
                                        *****************
                                        * O   R   C   A *
                                        *****************

                                            #,                                       
                                            ###                                      
                                            ####                                     
                                            #####                                    
                                            ######                                   
                                           ########,                                 
                                     ,,################,,,,,                         
                               ,,#################################,,                 
                          ,,##########################################,,             
                       ,#########################################, ''#####,          
                    ,#############################################,,   '####,        
                  ,##################################################,,,,####,       
                ,###########''''           ''''###############################       
              ,#####''   ,,,,##########,,,,          '''####'''          '####       
            ,##' ,,,,###########################,,,                        '##       
           ' ,,###''''                  '''############,,,                           
         ,,##''                                '''############,,,,        ,,,,,,###''
      ,#''                                            '''#######################'''  
     '                                                          ''''####''''         
             ,#######,   #######,   ,#######,      ##                                
            ,#'     '#,  ##    ##  ,#'     '#,    #''#        ######   ,####,        
            ##       ##  ##   ,#'  ##            #'  '#       #        #'  '#        
            ##       ##  #######   ##           ,######,      #####,   #    #        
            '#,     ,#'  ##    ##  '#,     ,#' ,#      #,         ##   #,  ,#        
             '#######'   ##     ##  '#######'  #'      '#     #####' # '####'        



                  #######################################################
                  #                        -***-                        #
                  #          Department of theory and spectroscopy      #
                  #    Directorship and core code : Frank Neese         #
                  #        Max Planck Institute fuer Kohlenforschung    #
                  #                Kaiser Wilhelm Platz 1               #
                  #                 D-45470 Muelheim/Ruhr               #
                  #                      Germany                        #
                  #                                                     #
                  #                  All rights reserved                #
                  #                        -***-                        #
                  #######################################################


                         Program Version 5.0.0 -  RELEASE  -
                                (SVN: $Rev: 19529$)
                ($Date: 2021-06-28 11:36:33 +0200 (Mo, 28 Jun 2021) $)


 With contributions from (in alphabetic order):
   Daniel Aravena         : Magnetic Suceptibility
   Michael Atanasov       : Ab Initio Ligand Field Theory (pilot matlab implementation)
   Alexander A. Auer      : GIAO ZORA, VPT2 properties, NMR spectrum
   Ute Becker             : Parallelization
   Giovanni Bistoni       : ED, misc. LED, open-shell LED, HFLD
   Martin Brehm           : Molecular dynamics
   Dmytro Bykov           : SCF Hessian
   Vijay G. Chilkuri      : MRCI spin determinant printing, contributions to CSF-ICE
   Dipayan Datta          : RHF DLPNO-CCSD density
   Achintya Kumar Dutta   : EOM-CC, STEOM-CC
   Dmitry Ganyushin       : Spin-Orbit,Spin-Spin,Magnetic field MRCI
   Miquel Garcia          : C-PCM Hessian, Gaussian charge scheme
   Yang Guo               : DLPNO-NEVPT2, F12-NEVPT2, CIM, IAO-localization
   Andreas Hansen         : Spin unrestricted coupled pair/coupled cluster methods
   Benjamin Helmich-Paris : MC-RPA, TRAH-SCF, COSX integrals
   Lee Huntington         : MR-EOM, pCC
   Robert Izsak           : Overlap fitted RIJCOSX, COSX-SCS-MP3, EOM
   Marcus Kettner         : VPT2
   Christian Kollmar      : KDIIS, OOCD, Brueckner-CCSD(T), CCSD density, CASPT2, CASPT2-K
   Simone Kossmann        : Meta GGA functionals, TD-DFT gradient, OOMP2, MP2 Hessian
   Martin Krupicka        : Initial AUTO-CI
   Lucas Lang             : DCDCAS
   Marvin Lechner         : AUTO-CI (C++ implementation), FIC-MRCC
   Dagmar Lenk            : GEPOL surface, SMD
   Dimitrios Liakos       : Extrapolation schemes; Compound Job, initial MDCI parallelization
   Dimitrios Manganas     : Further ROCIS development; embedding schemes
   Dimitrios Pantazis     : SARC Basis sets
   Anastasios Papadopoulos: AUTO-CI, single reference methods and gradients
   Taras Petrenko         : DFT Hessian,TD-DFT gradient, ASA, ECA, R-Raman, ABS, FL, XAS/XES, NRVS
   Peter Pinski           : DLPNO-MP2, DLPNO-MP2 Gradient
   Christoph Reimann      : Effective Core Potentials
   Marius Retegan         : Local ZFS, SOC
   Christoph Riplinger    : Optimizer, TS searches, QM/MM, DLPNO-CCSD(T), (RO)-DLPNO pert. Triples
   Tobias Risthaus        : Range-separated hybrids, TD-DFT gradient, RPA, STAB
   Michael Roemelt        : Original ROCIS implementation
   Masaaki Saitow         : Open-shell DLPNO-CCSD energy and density
   Barbara Sandhoefer     : DKH picture change effects
   Avijit Sen             : IP-ROCIS
   Kantharuban Sivalingam : CASSCF convergence, NEVPT2, FIC-MRCI
   Bernardo de Souza      : ESD, SOC TD-DFT
   Georgi Stoychev        : AutoAux, RI-MP2 NMR
   Willem Van den Heuvel  : Paramagnetic NMR
   Boris Wezisla          : Elementary symmetry handling
   Frank Wennmohs         : Technical directorship


 We gratefully acknowledge several colleagues who have allowed us to
 interface, adapt or use parts of their codes:
   Stefan Grimme, W. Hujo, H. Kruse, P. Pracht,  : VdW corrections, initial TS optimization,
                  C. Bannwarth, S. Ehlert          DFT functionals, gCP, sTDA/sTD-DF
   Ed Valeev, F. Pavosevic, A. Kumar             : LibInt (2-el integral package), F12 methods
   Garnet Chan, S. Sharma, J. Yang, R. Olivares  : DMRG
   Ulf Ekstrom                                   : XCFun DFT Library
   Mihaly Kallay                                 : mrcc  (arbitrary order and MRCC methods)
   Jiri Pittner, Ondrej Demel                    : Mk-CCSD
   Frank Weinhold                                : gennbo (NPA and NBO analysis)
   Christopher J. Cramer and Donald G. Truhlar   : smd solvation model
   Lars Goerigk                                  : TD-DFT with DH, B97 family of functionals
   V. Asgeirsson, H. Jonsson                     : NEB implementation
   FAccTs GmbH                                   : IRC, NEB, NEB-TS, DLPNO-Multilevel, CI-OPT
                                                   MM, QMMM, 2- and 3-layer-ONIOM, Crystal-QMMM,
                                                   LR-CPCM, SF, NACMEs, symmetry and pop. for TD-DFT,
                                                   nearIR, NL-DFT gradient (VV10), updates on ESD,
                                                   ML-optimized integration grids
   S Lehtola, MJT Oliveira, MAL Marques          : LibXC Library
   Liviu Ungur et al                             : ANISO software


 Your calculation uses the libint2 library for the computation of 2-el integrals
 For citations please refer to: http://libint.valeyev.net

 Your ORCA version has been built with support for libXC version: 5.1.0
 For citations please refer to: https://tddft.org/programs/libxc/

 This ORCA versions uses:
   CBLAS   interface :  Fast vector & matrix operations
   LAPACKE interface :  Fast linear algebra routines
   SCALAPACK package :  Parallel linear algebra routines
   Shared memory     :  Shared parallel matrices
   BLAS/LAPACK       :  OpenBLAS 0.3.15  USE64BITINT DYNAMIC_ARCH NO_AFFINITY Haswell SINGLE_THREADED
        Core in use  :  Haswell
   Copyright (c) 2011-2014, The OpenBLAS Project


Your calculation utilizes the atom-pairwise dispersion correction
with the Becke-Johnson damping scheme (D3BJ)
Cite in your paper:
S.Grimme, S.Ehrlich, L.Goerigk, J Comput Chem, (2011), 32, 1456–1465 
S.Grimme, J.Antony, S.Ehrlich and H.Krieg, J.Chem.Phys., 132, (2010), 154104 
   

================================================================================

----- Orbital basis set information -----
Your calculation utilizes the basis: def2-SVPD
   F. Weigend and R. Ahlrichs, Phys. Chem. Chem. Phys. 7, 3297 (2005).
   D. Rappoport and F. Furche, J. Chem. Phys. 133 134105 (2010).

----- AuxJ basis set information -----
Your calculation utilizes the auxiliary basis: def2/J
   F. Weigend, Phys. Chem. Chem. Phys. 8, 1057 (2006).

================================================================================
                                        WARNINGS
                       Please study these warnings very carefully!
================================================================================


INFO   : the flag for use of the SHARK integral package has been found!

================================================================================
                                       INPUT FILE
================================================================================
NAME = 14Feb_SVPD_PBE0_C1_wt_wb97_typ1_pos.com
|  1> !PBE0 D3BJ RIJCOSX def2-SVPD def2/J TightSCF 
|  2> *xyz 0 1
|  3> C          4.60295       -2.44010        2.63478
|  4> C          3.86085       -1.59157        3.62289
|  5> C          2.75650       -2.04616        4.16633
|  6> N          4.25433       -0.36291        3.86046
|  7> H          3.56526        0.31099        4.16898
|  8> H          5.05429       -0.01606        3.33784
|  9> H          2.43970       -2.97389        3.89740
| 10> H          2.06687       -1.41253        4.54981
| 11> C          3.74469       -2.58056        1.36188
| 12> C          3.20372       -1.25600        0.82621
| 13> H          2.89894       -3.23929        1.58307
| 14> H          4.33496       -3.09552        0.60019
| 15> H          5.56156       -1.97135        2.40708
| 16> H          4.81050       -3.42255        3.06310
| 17> H          2.62184       -1.43789       -0.05313
| 18> H          4.02069       -0.60826        0.58562
| 19> H          2.58975       -0.79418        1.57097
| 20> *
| 21> 
| 22> %MaxCore 64000
| 23> 
| 24> %pal nprocs 4
| 25> end  
| 26> 
| 27> %scf
| 28>   MaxIter 150
| 29> end
| 30> 
| 31> 
| 32>                          ****END OF INPUT****
================================================================================

                       ****************************
                       * Single Point Calculation *
                       ****************************

---------------------------------
CARTESIAN COORDINATES (ANGSTROEM)
---------------------------------
  C      4.602950   -2.440100    2.634780
  C      3.860850   -1.591570    3.622890
  C      2.756500   -2.046160    4.166330
  N      4.254330   -0.362910    3.860460
  H      3.565260    0.310990    4.168980
  H      5.054290   -0.016060    3.337840
  H      2.439700   -2.973890    3.897400
  H      2.066870   -1.412530    4.549810
  C      3.744690   -2.580560    1.361880
  C      3.203720   -1.256000    0.826210
  H      2.898940   -3.239290    1.583070
  H      4.334960   -3.095520    0.600190
  H      5.561560   -1.971350    2.407080
  H      4.810500   -3.422550    3.063100
  H      2.621840   -1.437890   -0.053130
  H      4.020690   -0.608260    0.585620
  H      2.589750   -0.794180    1.570970

----------------------------
CARTESIAN COORDINATES (A.U.)
----------------------------
  NO LB      ZA    FRAG     MASS         X           Y           Z
   0 C     6.0000    0    12.011    8.698315   -4.611121    4.979013
   1 C     6.0000    0    12.011    7.295949   -3.007631    6.846270
   2 C     6.0000    0    12.011    5.209030   -3.866682    7.873223
   3 N     7.0000    0    14.007    8.039519   -0.685801    7.295212
   4 H     1.0000    0     1.008    6.737365    0.587686    7.878230
   5 H     1.0000    0     1.008    9.551224   -0.030349    6.307603
   6 H     1.0000    0     1.008    4.610365   -5.619838    7.365019
   7 H     1.0000    0     1.008    3.905818   -2.669295    8.597895
   8 C     6.0000    0    12.011    7.076439   -4.876552    2.573580
   9 C     6.0000    0    12.011    6.054153   -2.373496    1.561311
  10 H     1.0000    0     1.008    5.478203   -6.121371    2.991569
  11 H     1.0000    0     1.008    8.191887   -5.849685    1.134195
  12 H     1.0000    0     1.008   10.509825   -3.725312    4.548722
  13 H     1.0000    0     1.008    9.090528   -6.467682    5.788420
  14 H     1.0000    0     1.008    4.954560   -2.717218   -0.100401
  15 H     1.0000    0     1.008    7.598003   -1.149445    1.106661
  16 H     1.0000    0     1.008    4.893918   -1.500783    2.968703

--------------------------------
INTERNAL COORDINATES (ANGSTROEM)
--------------------------------
 C      0   0   0     0.000000000000     0.00000000     0.00000000
 C      1   0   0     1.499025331007     0.00000000     0.00000000
 C      2   1   0     1.312085372299   119.57568677     0.00000000
 N      2   1   3     1.311819885083   120.06976995   185.44522009
 H      4   2   1     1.011999637006   118.33788111   152.74542731
 H      4   2   1     1.016549353696   117.54916055     1.38543617
 H      3   2   1     1.016547361317   117.96438387     0.26480118
 H      3   2   1     1.011994774789   120.90287833   202.77321355
 C      1   2   3     1.541626948778   108.67692307    67.43020295
 C      9   1   2     1.527759825169   114.05696950    49.17915504
 H      9   1   2     1.094597319337   108.55037350   287.95981462
 H      9   1   2     1.092599711971   108.52939284   173.25000692
 H      1   2   3     1.091103562729   109.22734322   188.48329293
 H      1   2   3     1.091669834428   110.17664154   306.40853300
 H     10   9   1     1.070003337425   109.47080275   180.00029474
 H     10   9   1     1.069995624570   109.47093448    60.00055955
 H     10   9   1     1.070002023783   109.47122160   300.00040277

---------------------------
INTERNAL COORDINATES (A.U.)
---------------------------
 C      0   0   0     0.000000000000     0.00000000     0.00000000
 C      1   0   0     2.832747343413     0.00000000     0.00000000
 C      2   1   0     2.479482017968   119.57568677     0.00000000
 N      2   1   3     2.478980319840   120.06976995   185.44522009
 H      4   2   1     1.912402161569   118.33788111   152.74542731
 H      4   2   1     1.920999880100   117.54916055     1.38543617
 H      3   2   1     1.920996115049   117.96438387     0.26480118
 H      3   2   1     1.912392973310   120.90287833   202.77321355
 C      1   2   3     2.913252733864   108.67692307    67.43020295
 C      9   1   2     2.887047667977   114.05696950    49.17915504
 H      9   1   2     2.068489160471   108.55037350   287.95981462
 H      9   1   2     2.064714229627   108.52939284   173.25000692
 H      1   2   3     2.061886917304   109.22734322   188.48329293
 H      1   2   3     2.062957015732   110.17664154   306.40853300
 H     10   9   1     2.022013270114   109.47080275   180.00029474
 H     10   9   1     2.021998694932   109.47093448    60.00055955
 H     10   9   1     2.022010787692   109.47122160   300.00040277

---------------------
BASIS SET INFORMATION
---------------------
There are 3 groups of distinct atoms

 Group   1 Type C   : 8s4p2d contracted to 4s2p2d pattern {5111/31/11}
 Group   2 Type N   : 8s4p2d contracted to 4s2p2d pattern {5111/31/11}
 Group   3 Type H   : 4s2p contracted to 2s2p pattern {31/11}

Atom   0C    basis set group =>   1
Atom   1C    basis set group =>   1
Atom   2C    basis set group =>   1
Atom   3N    basis set group =>   2
Atom   4H    basis set group =>   3
Atom   5H    basis set group =>   3
Atom   6H    basis set group =>   3
Atom   7H    basis set group =>   3
Atom   8C    basis set group =>   1
Atom   9C    basis set group =>   1
Atom  10H    basis set group =>   3
Atom  11H    basis set group =>   3
Atom  12H    basis set group =>   3
Atom  13H    basis set group =>   3
Atom  14H    basis set group =>   3
Atom  15H    basis set group =>   3
Atom  16H    basis set group =>   3
---------------------------------
AUXILIARY/J BASIS SET INFORMATION
---------------------------------
There are 3 groups of distinct atoms

 Group   1 Type C   : 12s5p4d2f1g contracted to 6s4p3d1f1g pattern {711111/2111/211/2/1}
 Group   2 Type N   : 12s5p4d2f1g contracted to 6s4p3d1f1g pattern {711111/2111/211/2/1}
 Group   3 Type H   : 5s2p1d contracted to 3s1p1d pattern {311/2/1}

Atom   0C    basis set group =>   1
Atom   1C    basis set group =>   1
Atom   2C    basis set group =>   1
Atom   3N    basis set group =>   2
Atom   4H    basis set group =>   3
Atom   5H    basis set group =>   3
Atom   6H    basis set group =>   3
Atom   7H    basis set group =>   3
Atom   8C    basis set group =>   1
Atom   9C    basis set group =>   1
Atom  10H    basis set group =>   3
Atom  11H    basis set group =>   3
Atom  12H    basis set group =>   3
Atom  13H    basis set group =>   3
Atom  14H    basis set group =>   3
Atom  15H    basis set group =>   3
Atom  16H    basis set group =>   3


           ************************************************************
           *        Program running with 4 parallel MPI-processes     *
           *              working on a common directory               *
           ************************************************************
------------------------------------------------------------------------------
                           ORCA GTO INTEGRAL CALCULATION
                           -- RI-GTO INTEGRALS CHOSEN --
------------------------------------------------------------------------------
------------------------------------------------------------------------------
                   ___                                                        
                  /   \      - P O W E R E D   B Y -                         
                 /     \                                                     
                 |  |  |   _    _      __       _____    __    __             
                 |  |  |  | |  | |    /  \     |  _  \  |  |  /  |          
                  \  \/   | |  | |   /    \    | | | |  |  | /  /          
                 / \  \   | |__| |  /  /\  \   | |_| |  |  |/  /          
                |  |  |   |  __  | /  /__\  \  |    /   |      \           
                |  |  |   | |  | | |   __   |  |    \   |  |\   \          
                \     /   | |  | | |  |  |  |  | |\  \  |  | \   \       
                 \___/    |_|  |_| |__|  |__|  |_| \__\ |__|  \__/        
                                                                              
                      - O R C A' S   B I G   F R I E N D -                    
                                      &                                       
                       - I N T E G R A L  F E E D E R -                       
                                                                              
 v1 FN, 2020, v2 2021                                                         
------------------------------------------------------------------------------


Reading SHARK input file 14Feb_SVPD_PBE0_C1_wt_wb97_typ1_pos.SHARKINP.tmp ... ok
----------------------
SHARK INTEGRAL PACKAGE
----------------------

Number of atoms                             ...     17
Number of basis functions                   ...    208
Number of shells                            ...     92
Maximum angular momentum                    ...      2
Integral batch strategy                     ... SHARK/LIBINT Hybrid
RI-J (if used) integral strategy            ... SPLIT-RIJ (Revised 2003 algorithm where possible)
Printlevel                                  ...      1
Contraction scheme used                     ... SEGMENTED contraction
Coulomb Range Separation                    ... NOT USED
Exchange Range Separation                   ... NOT USED
Finite Nucleus Model                        ... NOT USED
Auxiliary Coulomb fitting basis             ... AVAILABLE
   # of basis functions in Aux-J            ...    415
   # of shells in Aux-J                     ...    145
   Maximum angular momentum in Aux-J        ...      4
Auxiliary J/K fitting basis                 ... NOT available
Auxiliary Correlation fitting basis         ... NOT available
Auxiliary 'external' fitting basis          ... NOT available
Integral threshold                          ...     2.500000e-11
Primitive cut-off                           ...     2.500000e-12
Primitive pair pre-selection threshold      ...     2.500000e-12

Calculating pre-screening integrals         ... done (  0.0 sec) Dimension = 92
Organizing shell pair data                  ... done (  0.0 sec)
Shell pair information
Total number of shell pairs                 ...      4278
Shell pairs after pre-screening             ...      4245
Total number of primitive shell pairs       ...     11436
Primitive shell pairs kept                  ...      9546
          la=0 lb=0:   1068 shell pairs
          la=1 lb=0:   1549 shell pairs
          la=1 lb=1:    592 shell pairs
          la=2 lb=0:    550 shell pairs
          la=2 lb=1:    408 shell pairs
          la=2 lb=2:     78 shell pairs

Calculating one electron integrals          ... done (  0.0 sec)
Calculating RI/J V-Matrix + Cholesky decomp.... done (  0.0 sec)
Calculating Nuclear repulsion               ... done (  0.0 sec) ENN=    250.018651591918 Eh

SHARK setup successfully completed in   0.2 seconds

Maximum memory used throughout the entire GTOINT-calculation: 9.0 MB


           ************************************************************
           *        Program running with 4 parallel MPI-processes     *
           *              working on a common directory               *
           ************************************************************
-------------------------------------------------------------------------------
                                 ORCA SCF
-------------------------------------------------------------------------------

------------
SCF SETTINGS
------------
Hamiltonian:
 Density Functional     Method          .... DFT(GTOs)
 Exchange Functional    Exchange        .... PBE
   PBE kappa parameter   XKappa         ....  0.804000
   PBE mue parameter    XMuePBE         ....  0.219520
 Correlation Functional Correlation     .... PBE
   PBE beta parameter  CBetaPBE         ....  0.066725
 LDA part of GGA corr.  LDAOpt          .... PW91-LDA
 Gradients option       PostSCFGGA      .... off
 Hybrid DFT is turned on
   Fraction HF Exchange ScalHFX         ....  0.250000
   Scaling of DF-GGA-X  ScalDFX         ....  0.750000
   Scaling of DF-GGA-C  ScalDFC         ....  1.000000
   Scaling of DF-LDA-C  ScalLDAC        ....  1.000000
   Perturbative correction              ....  0.000000
   Density functional embedding theory  .... OFF
   NL short-range parameter             ....  6.900000
 RI-approximation to the Coulomb term is turned on
   Number of AuxJ basis functions       .... 415
   RIJ-COSX (HFX calculated with COS-X)).... on


General Settings:
 Integral files         IntName         .... 14Feb_SVPD_PBE0_C1_wt_wb97_typ1_pos
 Hartree-Fock type      HFTyp           .... RHF
 Total Charge           Charge          ....    0
 Multiplicity           Mult            ....    1
 Number of Electrons    NEL             ....   48
 Basis Dimension        Dim             ....  208
 Nuclear Repulsion      ENuc            ....    250.0186515919 Eh

Convergence Acceleration:
 DIIS                   CNVDIIS         .... on
   Start iteration      DIISMaxIt       ....    12
   Startup error        DIISStart       ....  0.200000
   # of expansion vecs  DIISMaxEq       ....     5
   Bias factor          DIISBfac        ....   1.050
   Max. coefficient     DIISMaxC        ....  10.000
 Trust-Rad. Augm. Hess. CNVTRAH         .... auto
   Auto Start mean grad. ratio tolernc. ....  1.125000
   Auto Start start iteration           ....    20
   Auto Start num. interpolation iter.  ....    10
   Max. Number of Micro iterations      ....    16
   Max. Number of Macro iterations      .... Maxiter - #DIIS iter
   Number of Davidson start vectors     ....     2
   Converg. threshold I  (grad. norm)   ....   1.000e-05
   Converg. threshold II (energy diff.) ....   1.000e-08
   Grad. Scal. Fac. for Micro threshold ....   0.100
   Minimum threshold for Micro iter.    ....   0.010
   NR start threshold (gradient norm)   ....   0.001
   Initial trust radius                 ....   0.400
   Minimum AH scaling param. (alpha)    ....   1.000
   Maximum AH scaling param. (alpha)    .... 1000.000
   Orbital update algorithm             .... Taylor
   White noise on init. David. guess    .... on
   Maximum white noise                  ....   0.010
   Quad. conv. algorithm                .... NR
 SOSCF                  CNVSOSCF        .... on
   Start iteration      SOSCFMaxIt      ....   150
   Startup grad/error   SOSCFStart      ....  0.003300
 Level Shifting         CNVShift        .... on
   Level shift para.    LevelShift      ....    0.2500
   Turn off err/grad.   ShiftErr        ....    0.0010
 Zerner damping         CNVZerner       .... off
 Static damping         CNVDamp         .... on
   Fraction old density DampFac         ....    0.7000
   Max. Damping (<1)    DampMax         ....    0.9800
   Min. Damping (>=0)   DampMin         ....    0.0000
   Turn off err/grad.   DampErr         ....    0.1000
 Fernandez-Rico         CNVRico         .... off

SCF Procedure:
 Maximum # iterations   MaxIter         ....   150
 SCF integral mode      SCFMode         .... Direct
   Integral package                     .... SHARK and LIBINT hybrid scheme
 Reset frequency        DirectResetFreq ....    20
 Integral Threshold     Thresh          ....  2.500e-11 Eh
 Primitive CutOff       TCut            ....  2.500e-12 Eh

Convergence Tolerance:
 Convergence Check Mode ConvCheckMode   .... Total+1el-Energy
 Convergence forced     ConvForced      .... 0
 Energy Change          TolE            ....  1.000e-08 Eh
 1-El. energy change                    ....  1.000e-05 Eh
 Orbital Gradient       TolG            ....  1.000e-05
 Orbital Rotation angle TolX            ....  1.000e-05
 DIIS Error             TolErr          ....  5.000e-07


Diagonalization of the overlap matrix:
Smallest eigenvalue                        ... 5.007e-05
Time for diagonalization                   ...    0.012 sec
Threshold for overlap eigenvalues          ... 1.000e-08
Number of eigenvalues below threshold      ... 0
Time for construction of square roots      ...    0.008 sec
Total time needed                          ...    0.021 sec

Time for model grid setup =    0.103 sec

------------------------------
INITIAL GUESS: MODEL POTENTIAL
------------------------------
Loading Hartree-Fock densities                     ... done
Calculating cut-offs                               ... done
Initializing the effective Hamiltonian             ... done
Setting up the integral package (SHARK)            ... done
Starting the Coulomb interaction                   ... done (   0.1 sec)
Reading the grid                                   ... done
Mapping shells                                     ... done
Starting the XC term evaluation                    ... done (   0.1 sec)
  promolecular density results
     # of electrons  =     47.992725939
     EX              =    -35.426161242
     EC              =     -1.566122375
     EX+EC           =    -36.992283617
Transforming the Hamiltonian                       ... done (   0.0 sec)
Diagonalizing the Hamiltonian                      ... done (   0.0 sec)
Back transforming the eigenvectors                 ... done (   0.0 sec)
Now organizing SCF variables                       ... done
                      ------------------
                      INITIAL GUESS DONE (   0.3 sec)
                      ------------------
-------------------
DFT GRID GENERATION
-------------------

General Integration Accuracy     IntAcc      ... 4.388
Radial Grid Type                 RadialGrid  ... OptM3 with GC (2021)
Angular Grid (max. ang.)         AngularGrid ... 4 (Lebedev-302)
Angular grid pruning method      GridPruning ... 4 (adaptive)
Weight generation scheme         WeightScheme... Becke
Basis function cutoff            BFCut       ... 1.0000e-11
Integration weight cutoff        WCut        ... 1.0000e-14
Angular grids for H and He will be reduced by one unit
Partially contracted basis set               ... off
Rotationally invariant grid construction     ... off

Total number of grid points                  ...    73367
Total number of batches                      ...     1155
Average number of points per batch           ...       63
Average number of grid points per atom       ...     4316
Time for grid setup =    0.448 sec

--------------------
COSX GRID GENERATION
--------------------

GRIDX 1
-------
General Integration Accuracy     IntAcc      ... 3.816
Radial Grid Type                 RadialGrid  ... OptM3 with GC (2021)
Angular Grid (max. ang.)         AngularGrid ... 1 (Lebedev-50)
Angular grid pruning method      GridPruning ... 4 (adaptive)
Weight generation scheme         WeightScheme... Becke
Basis function cutoff            BFCut       ... 1.0000e-11
Integration weight cutoff        WCut        ... 1.0000e-14
Angular grids for H and He will be reduced by one unit
Partially contracted basis set               ... on
Rotationally invariant grid construction     ... off

Total number of grid points                  ...     9178
Total number of batches                      ...      155
Average number of points per batch           ...       59
Average number of grid points per atom       ...      540
UseSFitting                                  ... on

GRIDX 2
-------
General Integration Accuracy     IntAcc      ... 4.020
Radial Grid Type                 RadialGrid  ... OptM3 with GC (2021)
Angular Grid (max. ang.)         AngularGrid ... 2 (Lebedev-110)
Angular grid pruning method      GridPruning ... 4 (adaptive)
Weight generation scheme         WeightScheme... Becke
Basis function cutoff            BFCut       ... 1.0000e-11
Integration weight cutoff        WCut        ... 1.0000e-14
Angular grids for H and He will be reduced by one unit
Partially contracted basis set               ... on
Rotationally invariant grid construction     ... off

Total number of grid points                  ...    19948
Total number of batches                      ...      321
Average number of points per batch           ...       62
Average number of grid points per atom       ...     1173
UseSFitting                                  ... on

GRIDX 3
-------
General Integration Accuracy     IntAcc      ... 4.338
Radial Grid Type                 RadialGrid  ... OptM3 with GC (2021)
Angular Grid (max. ang.)         AngularGrid ... 3 (Lebedev-194)
Angular grid pruning method      GridPruning ... 4 (adaptive)
Weight generation scheme         WeightScheme... Becke
Basis function cutoff            BFCut       ... 1.0000e-11
Integration weight cutoff        WCut        ... 1.0000e-14
Angular grids for H and He will be reduced by one unit
Partially contracted basis set               ... on
Rotationally invariant grid construction     ... off

Total number of grid points                  ...    45590
Total number of batches                      ...      721
Average number of points per batch           ...       63
Average number of grid points per atom       ...     2682
UseSFitting                                  ... on

Time for X-Grid setup             =    0.412 sec

--------------
SCF ITERATIONS
--------------
ITER       Energy         Delta-E        Max-DP      RMS-DP      [F,P]     Damp
               ***  Starting incremental Fock matrix formation  ***
  0   -251.1417523145   0.000000000000 0.43197849  0.00457194  0.2055695 0.7000
  1   -251.2571084296  -0.115356115097 0.43479997  0.00384074  0.1099699 0.7000
                               ***Turning on DIIS***
  2   -251.3066532605  -0.049544830843 0.83869343  0.00771404  0.0429054 0.0000
  3   -251.3738968201  -0.067243559613 0.32413980  0.00256464  0.0629685 0.0000
  4   -251.3940455447  -0.020148724574 0.12896532  0.00102318  0.0131492 0.0000
  5   -251.3949842845  -0.000938739872 0.06038443  0.00045638  0.0039154 0.0000
                      *** Initiating the SOSCF procedure ***
                           *** Shutting down DIIS ***
                      *** Re-Reading the Fockian *** 
                      *** Removing any level shift *** 
ITER      Energy       Delta-E        Grad      Rot      Max-DP    RMS-DP
  6   -251.39505573  -0.0000714476  0.000356  0.000356  0.025331  0.000208
               *** Restarting incremental Fock matrix formation ***
  7   -251.39509599  -0.0000402619  0.000108  0.000326  0.018349  0.000175
  8   -251.39509693  -0.0000009319  0.000080  0.000189  0.002097  0.000035
  9   -251.39509713  -0.0000002032  0.000051  0.000162  0.002359  0.000027
 10   -251.39509718  -0.0000000558  0.000031  0.000054  0.000237  0.000006
 11   -251.39509720  -0.0000000176  0.000010  0.000015  0.000397  0.000006
                  ***Gradient check signals convergence***
              ***Rediagonalizing the Fockian in SOSCF/NRSCF***

               *****************************************************
               *                     SUCCESS                       *
               *           SCF CONVERGED AFTER  12 CYCLES          *
               *****************************************************

Old exchange energy                            =     -9.126311321 Eh
New exchange energy                            =     -9.126237966 Eh
Exchange energy change after final integration =      0.000073354 Eh
Total energy after final integration           =   -251.395023850 Eh
Final COS-X integration done in                =     2.843 sec

----------------
TOTAL SCF ENERGY
----------------

Total Energy       :         -251.39502385 Eh           -6840.80638 eV

Components:
Nuclear Repulsion  :          250.01865159 Eh            6803.35339 eV
Electronic Energy  :         -501.41367544 Eh          -13644.15976 eV
One Electron Energy:         -832.92173331 Eh          -22664.95263 eV
Two Electron Energy:          331.50805787 Eh            9020.79286 eV
Max COSX asymmetry :            0.00000712 Eh               0.00019 eV

Virial components:
Potential Energy   :         -500.47682953 Eh          -13618.66689 eV
Kinetic Energy     :          249.08180568 Eh            6777.86051 eV
Virial Ratio       :            2.00928698


DFT components:
N(Alpha)           :       24.000110025947 electrons
N(Beta)            :       24.000110025947 electrons
N(Total)           :       48.000220051895 electrons
E(X)               :      -27.240980076839 Eh       
E(C)               :       -1.577329906734 Eh       
E(XC)              :      -28.818309983573 Eh       
DFET-embed. en.    :        0.000000000000 Eh       

---------------
SCF CONVERGENCE
---------------

  Last Energy change         ...   -1.6332e-09  Tolerance :   1.0000e-08
  Last MAX-Density change    ...    2.2204e-15  Tolerance :   1.0000e-07
  Last RMS-Density change    ...    3.0569e-17  Tolerance :   5.0000e-09
  Last Orbital Gradient      ...    1.6664e-06  Tolerance :   1.0000e-05
  Last Orbital Rotation      ...    3.3122e-06  Tolerance :   1.0000e-05

             **** THE GBW FILE WAS UPDATED (14Feb_SVPD_PBE0_C1_wt_wb97_typ1_pos.gbw) ****
             **** DENSITY 14Feb_SVPD_PBE0_C1_wt_wb97_typ1_pos.scfp WAS UPDATED ****
             **** ENERGY FILE WAS UPDATED (14Feb_SVPD_PBE0_C1_wt_wb97_typ1_pos.en.tmp) ****
             **** THE GBW FILE WAS UPDATED (14Feb_SVPD_PBE0_C1_wt_wb97_typ1_pos.gbw) ****
             **** DENSITY 14Feb_SVPD_PBE0_C1_wt_wb97_typ1_pos.scfp WAS UPDATED ****
----------------
ORBITAL ENERGIES
----------------

  NO   OCC          E(Eh)            E(eV) 
   0   2.0000     -14.399064      -391.8185 
   1   2.0000     -10.252336      -278.9802 
   2   2.0000     -10.234351      -278.4908 
   3   2.0000     -10.230893      -278.3967 
   4   2.0000     -10.212766      -277.9035 
   5   2.0000     -10.163141      -276.5531 
   6   2.0000      -0.953743       -25.9527 
   7   2.0000      -0.813595       -22.1391 
   8   2.0000      -0.747181       -20.3318 
   9   2.0000      -0.700574       -19.0636 
  10   2.0000      -0.620899       -16.8955 
  11   2.0000      -0.572563       -15.5802 
  12   2.0000      -0.538131       -14.6433 
  13   2.0000      -0.501758       -13.6535 
  14   2.0000      -0.470577       -12.8051 
  15   2.0000      -0.449893       -12.2422 
  16   2.0000      -0.416061       -11.3216 
  17   2.0000      -0.402514       -10.9530 
  18   2.0000      -0.380020       -10.3409 
  19   2.0000      -0.374603       -10.1935 
  20   2.0000      -0.349803        -9.5186 
  21   2.0000      -0.341544        -9.2939 
  22   2.0000      -0.335285        -9.1236 
  23   2.0000      -0.202513        -5.5107 
  24   0.0000       0.023117         0.6290 
  25   0.0000       0.034023         0.9258 
  26   0.0000       0.053907         1.4669 
  27   0.0000       0.061983         1.6867 
  28   0.0000       0.067197         1.8285 
  29   0.0000       0.087420         2.3788 
  30   0.0000       0.090789         2.4705 
  31   0.0000       0.098261         2.6738 
  32   0.0000       0.120591         3.2814 
  33   0.0000       0.134715         3.6658 
  34   0.0000       0.140068         3.8114 
  35   0.0000       0.142397         3.8748 
  36   0.0000       0.146993         3.9999 
  37   0.0000       0.152282         4.1438 
  38   0.0000       0.173965         4.7338 
  39   0.0000       0.178552         4.8586 
  40   0.0000       0.191078         5.1995 
  41   0.0000       0.196140         5.3372 
  42   0.0000       0.200491         5.4556 
  43   0.0000       0.209471         5.7000 
  44   0.0000       0.232341         6.3223 
  45   0.0000       0.237261         6.4562 
  46   0.0000       0.241394         6.5687 
  47   0.0000       0.248434         6.7602 
  48   0.0000       0.260184         7.0800 
  49   0.0000       0.265816         7.2332 
  50   0.0000       0.286429         7.7941 
  51   0.0000       0.301913         8.2155 
  52   0.0000       0.314911         8.5692 
  53   0.0000       0.318863         8.6767 
  54   0.0000       0.323354         8.7989 
  55   0.0000       0.329935         8.9780 
  56   0.0000       0.340290         9.2598 
  57   0.0000       0.345205         9.3935 
  58   0.0000       0.349993         9.5238 
  59   0.0000       0.354397         9.6436 
  60   0.0000       0.362089         9.8529 
  61   0.0000       0.369504        10.0547 
  62   0.0000       0.371738        10.1155 
  63   0.0000       0.387126        10.5342 
  64   0.0000       0.390093        10.6150 
  65   0.0000       0.392381        10.6772 
  66   0.0000       0.398750        10.8505 
  67   0.0000       0.408382        11.1126 
  68   0.0000       0.412303        11.2193 
  69   0.0000       0.421298        11.4641 
  70   0.0000       0.425767        11.5857 
  71   0.0000       0.433540        11.7972 
  72   0.0000       0.440543        11.9878 
  73   0.0000       0.450841        12.2680 
  74   0.0000       0.454361        12.3638 
  75   0.0000       0.466466        12.6932 
  76   0.0000       0.476622        12.9695 
  77   0.0000       0.478981        13.0337 
  78   0.0000       0.480488        13.0748 
  79   0.0000       0.496877        13.5207 
  80   0.0000       0.503201        13.6928 
  81   0.0000       0.511501        13.9186 
  82   0.0000       0.514286        13.9944 
  83   0.0000       0.525036        14.2870 
  84   0.0000       0.532806        14.4984 
  85   0.0000       0.541888        14.7455 
  86   0.0000       0.547785        14.9060 
  87   0.0000       0.550816        14.9885 
  88   0.0000       0.561046        15.2668 
  89   0.0000       0.565919        15.3994 
  90   0.0000       0.567429        15.4405 
  91   0.0000       0.579934        15.7808 
  92   0.0000       0.589269        16.0348 
  93   0.0000       0.598364        16.2823 
  94   0.0000       0.608264        16.5517 
  95   0.0000       0.614986        16.7346 
  96   0.0000       0.626873        17.0581 
  97   0.0000       0.635400        17.2901 
  98   0.0000       0.642748        17.4901 
  99   0.0000       0.644127        17.5276 
 100   0.0000       0.666935        18.1482 
 101   0.0000       0.675158        18.3720 
 102   0.0000       0.691779        18.8243 
 103   0.0000       0.707332        19.2475 
 104   0.0000       0.723096        19.6765 
 105   0.0000       0.750606        20.4250 
 106   0.0000       0.772871        21.0309 
 107   0.0000       0.787869        21.4390 
 108   0.0000       0.804787        21.8994 
 109   0.0000       0.830048        22.5867 
 110   0.0000       0.894704        24.3461 
 111   0.0000       0.910378        24.7726 
 112   0.0000       0.943439        25.6723 
 113   0.0000       0.951390        25.8886 
 114   0.0000       0.980078        26.6693 
 115   0.0000       1.003915        27.3179 
 116   0.0000       1.007764        27.4227 
 117   0.0000       1.013753        27.5856 
 118   0.0000       1.029704        28.0197 
 119   0.0000       1.045241        28.4424 
 120   0.0000       1.061490        28.8846 
 121   0.0000       1.064792        28.9745 
 122   0.0000       1.073297        29.2059 
 123   0.0000       1.091445        29.6997 
 124   0.0000       1.117412        30.4063 
 125   0.0000       1.134096        30.8603 
 126   0.0000       1.147091        31.2139 
 127   0.0000       1.177445        32.0399 
 128   0.0000       1.187489        32.3132 
 129   0.0000       1.196023        32.5454 
 130   0.0000       1.229709        33.4621 
 131   0.0000       1.243794        33.8454 
 132   0.0000       1.244625        33.8680 
 133   0.0000       1.275209        34.7002 
 134   0.0000       1.303209        35.4621 
 135   0.0000       1.331209        36.2240 
 136   0.0000       1.352237        36.7962 
 137   0.0000       1.370480        37.2926 
 138   0.0000       1.420868        38.6638 
 139   0.0000       1.425736        38.7962 
 140   0.0000       1.456402        39.6307 
 141   0.0000       1.517437        41.2916 
 142   0.0000       1.571742        42.7693 
 143   0.0000       1.609894        43.8074 
 144   0.0000       1.620716        44.1019 
 145   0.0000       1.637065        44.5468 
 146   0.0000       1.678586        45.6767 
 147   0.0000       1.707233        46.4562 
 148   0.0000       1.734149        47.1886 
 149   0.0000       1.746215        47.5169 
 150   0.0000       1.764451        48.0132 
 151   0.0000       1.784129        48.5486 
 152   0.0000       1.824968        49.6599 
 153   0.0000       1.830951        49.8227 
 154   0.0000       1.874009        50.9944 
 155   0.0000       1.901146        51.7328 
 156   0.0000       1.904298        51.8186 
 157   0.0000       1.921252        52.2799 
 158   0.0000       1.929253        52.4976 
 159   0.0000       1.956034        53.2264 
 160   0.0000       1.979772        53.8723 
 161   0.0000       1.986817        54.0640 
 162   0.0000       2.017313        54.8939 
 163   0.0000       2.031444        55.2784 
 164   0.0000       2.049965        55.7824 
 165   0.0000       2.065986        56.2183 
 166   0.0000       2.087993        56.8172 
 167   0.0000       2.103568        57.2410 
 168   0.0000       2.120386        57.6986 
 169   0.0000       2.137276        58.1582 
 170   0.0000       2.156398        58.6786 
 171   0.0000       2.188003        59.5386 
 172   0.0000       2.207940        60.0811 
 173   0.0000       2.251747        61.2731 
 174   0.0000       2.284381        62.1612 
 175   0.0000       2.309014        62.8315 
 176   0.0000       2.322647        63.2024 
 177   0.0000       2.347740        63.8853 
 178   0.0000       2.367447        64.4215 
 179   0.0000       2.397646        65.2433 
 180   0.0000       2.427623        66.0590 
 181   0.0000       2.450243        66.6745 
 182   0.0000       2.473318        67.3024 
 183   0.0000       2.508074        68.2482 
 184   0.0000       2.527980        68.7898 
 185   0.0000       2.610952        71.0476 
 186   0.0000       2.639533        71.8254 
 187   0.0000       2.662241        72.4433 
 188   0.0000       2.668492        72.6133 
 189   0.0000       2.713829        73.8470 
 190   0.0000       2.738000        74.5048 
 191   0.0000       2.758630        75.0661 
 192   0.0000       2.764178        75.2171 
 193   0.0000       2.870470        78.1095 
 194   0.0000       2.897334        78.8405 
 195   0.0000       2.987813        81.3025 
 196   0.0000       3.042059        82.7786 
 197   0.0000       3.094584        84.2079 
 198   0.0000       3.119565        84.8877 
 199   0.0000       3.173386        86.3522 
 200   0.0000       3.192791        86.8803 
 201   0.0000       3.228500        87.8519 
 202   0.0000       3.251542        88.4790 
 203   0.0000       3.268557        88.9420 
 204   0.0000       3.307990        90.0150 
 205   0.0000       3.340080        90.8882 
 206   0.0000       3.550456        96.6128 
 207   0.0000       3.729837       101.4940 

                    ********************************
                    * MULLIKEN POPULATION ANALYSIS *
                    ********************************

-----------------------
MULLIKEN ATOMIC CHARGES
-----------------------
   0 C :    0.336652
   1 C :   -0.226204
   2 C :    0.264073
   3 N :   -0.021226
   4 H :   -0.061114
   5 H :    0.018693
   6 H :   -0.055484
   7 H :   -0.345296
   8 C :   -0.496694
   9 C :    0.596401
  10 H :    0.054977
  11 H :   -0.087698
  12 H :    0.005498
  13 H :    0.059832
  14 H :   -0.124225
  15 H :    0.027882
  16 H :    0.053932
Sum of atomic charges:    0.0000000

--------------------------------
MULLIKEN REDUCED ORBITAL CHARGES
--------------------------------
  0 C s       :     2.657353  s :     2.657353
      pz      :     0.938306  p :     2.788822
      px      :     0.980181
      py      :     0.870335
      dz2     :     0.106484  d :     0.217173
      dxz     :     0.018634
      dyz     :     0.029304
      dx2y2   :     0.053876
      dxy     :     0.008875
  1 C s       :     2.930750  s :     2.930750
      pz      :     0.893091  p :     2.746025
      px      :     0.919002
      py      :     0.933932
      dz2     :     0.110547  d :     0.549429
      dxz     :     0.165461
      dyz     :    -0.081275
      dx2y2   :     0.152488
      dxy     :     0.202208
  2 C s       :     2.984312  s :     2.984312
      pz      :     1.022090  p :     2.625130
      px      :     0.868607
      py      :     0.734434
      dz2     :     0.010753  d :     0.126485
      dxz     :     0.037118
      dyz     :     0.010480
      dx2y2   :     0.005106
      dxy     :     0.063028
  3 N s       :     3.307080  s :     3.307080
      pz      :     1.515563  p :     3.700409
      px      :     1.142036
      py      :     1.042810
      dz2     :     0.008956  d :     0.013737
      dxz     :    -0.010101
      dyz     :     0.015001
      dx2y2   :     0.006365
      dxy     :    -0.006484
  4 H s       :     1.026737  s :     1.026737
      pz      :     0.052503  p :     0.034377
      px      :    -0.022872
      py      :     0.004745
  5 H s       :     0.949043  s :     0.949043
      pz      :     0.010233  p :     0.032264
      px      :     0.017696
      py      :     0.004334
  6 H s       :     1.054590  s :     1.054590
      pz      :    -0.002983  p :     0.000893
      px      :    -0.006064
      py      :     0.009940
  7 H s       :     1.286492  s :     1.286492
      pz      :     0.028178  p :     0.058804
      px      :     0.032538
      py      :    -0.001912
  8 C s       :     2.953182  s :     2.953182
      pz      :     0.907384  p :     2.954803
      px      :     0.974962
      py      :     1.072457
      dz2     :     0.053210  d :     0.588710
      dxz     :     0.126900
      dyz     :     0.173154
      dx2y2   :     0.085959
      dxy     :     0.149486
  9 C s       :     2.495697  s :     2.495697
      pz      :     0.895154  p :     2.796047
      px      :     0.918223
      py      :     0.982670
      dz2     :     0.010013  d :     0.111856
      dxz     :    -0.023258
      dyz     :     0.026700
      dx2y2   :     0.039743
      dxy     :     0.058659
 10 H s       :     0.902734  s :     0.902734
      pz      :     0.005559  p :     0.042289
      px      :     0.014123
      py      :     0.022606
 11 H s       :     1.047783  s :     1.047783
      pz      :     0.020956  p :     0.039915
      px      :     0.008730
      py      :     0.010229
 12 H s       :     0.944994  s :     0.944994
      pz      :    -0.009760  p :     0.049508
      px      :     0.053377
      py      :     0.005891
 13 H s       :     0.918211  s :     0.918211
      pz      :     0.005630  p :     0.021956
      px      :    -0.013187
      py      :     0.029513
 14 H s       :     1.101209  s :     1.101209
      pz      :     0.029446  p :     0.023016
      px      :    -0.014364
      py      :     0.007933
 15 H s       :     0.941993  s :     0.941993
      pz      :    -0.023519  p :     0.030125
      px      :     0.042222
      py      :     0.011422
 16 H s       :     0.866692  s :     0.866692
      pz      :     0.046643  p :     0.079375
      px      :     0.030617
      py      :     0.002116


                     *******************************
                     * LOEWDIN POPULATION ANALYSIS *
                     *******************************

----------------------
LOEWDIN ATOMIC CHARGES
----------------------
   0 C :    0.009382
   1 C :   -0.277930
   2 C :    0.167372
   3 N :    0.170667
   4 H :    0.012575
   5 H :    0.002336
   6 H :   -0.075334
   7 H :   -0.079425
   8 C :   -0.067014
   9 C :    0.119312
  10 H :    0.018778
  11 H :    0.017219
  12 H :    0.014525
  13 H :    0.029090
  14 H :   -0.018088
  15 H :   -0.017801
  16 H :   -0.025665

-------------------------------
LOEWDIN REDUCED ORBITAL CHARGES
-------------------------------
  0 C s       :     2.687379  s :     2.687379
      pz      :     0.884426  p :     2.681597
      px      :     0.896754
      py      :     0.900417
      dz2     :     0.159137  d :     0.621641
      dxz     :     0.130846
      dyz     :     0.127867
      dx2y2   :     0.105398
      dxy     :     0.098393
  1 C s       :     2.659645  s :     2.659645
      pz      :     0.796168  p :     2.569480
      px      :     0.905707
      py      :     0.867605
      dz2     :     0.162324  d :     1.048804
      dxz     :     0.181762
      dyz     :     0.220507
      dx2y2   :     0.245239
      dxy     :     0.238972
  2 C s       :     2.731762  s :     2.731762
      pz      :     0.900559  p :     2.761805
      px      :     0.938225
      py      :     0.923021
      dz2     :     0.043099  d :     0.339061
      dxz     :     0.071926
      dyz     :     0.038427
      dx2y2   :     0.080210
      dxy     :     0.105398
  3 N s       :     2.935097  s :     2.935097
      pz      :     1.303210  p :     3.518610
      px      :     1.124858
      py      :     1.090542
      dz2     :     0.027097  d :     0.375625
      dxz     :     0.034832
      dyz     :     0.096356
      dx2y2   :     0.087022
      dxy     :     0.130318
  4 H s       :     0.652815  s :     0.652815
      pz      :     0.109294  p :     0.334611
      px      :     0.121455
      py      :     0.103862
  5 H s       :     0.653853  s :     0.653853
      pz      :     0.132134  p :     0.343811
      px      :     0.128885
      py      :     0.082792
  6 H s       :     0.754779  s :     0.754779
      pz      :     0.112704  p :     0.320555
      px      :     0.081028
      py      :     0.126823
  7 H s       :     0.768316  s :     0.768316
      pz      :     0.105653  p :     0.311109
      px      :     0.096460
      py      :     0.108996
  8 C s       :     2.693319  s :     2.693319
      pz      :     0.881929  p :     2.690991
      px      :     0.905480
      py      :     0.903582
      dz2     :     0.126167  d :     0.682704
      dxz     :     0.140463
      dyz     :     0.157556
      dx2y2   :     0.096734
      dxy     :     0.161784
  9 C s       :     2.702650  s :     2.702650
      pz      :     0.922540  p :     2.763690
      px      :     0.930034
      py      :     0.911116
      dz2     :     0.066210  d :     0.414348
      dxz     :     0.079007
      dyz     :     0.081088
      dx2y2   :     0.068158
      dxy     :     0.119885
 10 H s       :     0.720647  s :     0.720647
      pz      :     0.077797  p :     0.260575
      px      :     0.101733
      py      :     0.081045
 11 H s       :     0.733180  s :     0.733180
      pz      :     0.091781  p :     0.249600
      px      :     0.084420
      py      :     0.073399
 12 H s       :     0.728432  s :     0.728432
      pz      :     0.064633  p :     0.257042
      px      :     0.104948
      py      :     0.087461
 13 H s       :     0.721355  s :     0.721355
      pz      :     0.070817  p :     0.249555
      px      :     0.067295
      py      :     0.111443
 14 H s       :     0.742685  s :     0.742685
      pz      :     0.112699  p :     0.275403
      px      :     0.091238
      py      :     0.071466
 15 H s       :     0.741129  s :     0.741129
      pz      :     0.076965  p :     0.276672
      px      :     0.111828
      py      :     0.087879
 16 H s       :     0.724678  s :     0.724678
      pz      :     0.124984  p :     0.300987
      px      :     0.095568
      py      :     0.080436


                      *****************************
                      * MAYER POPULATION ANALYSIS *
                      *****************************

  NA   - Mulliken gross atomic population
  ZA   - Total nuclear charge
  QA   - Mulliken gross atomic charge
  VA   - Mayer's total valence
  BVA  - Mayer's bonded valence
  FA   - Mayer's free valence

  ATOM       NA         ZA         QA         VA         BVA        FA
  0 C      5.6633     6.0000     0.3367     4.1842     4.1842     0.0000
  1 C      6.2262     6.0000    -0.2262     4.7712     4.7712    -0.0000
  2 C      5.7359     6.0000     0.2641     4.0063     4.0063    -0.0000
  3 N      7.0212     7.0000    -0.0212     3.4610     3.4610     0.0000
  4 H      1.0611     1.0000    -0.0611     0.9243     0.9243     0.0000
  5 H      0.9813     1.0000     0.0187     0.9018     0.9018     0.0000
  6 H      1.0555     1.0000    -0.0555     1.0085     1.0085     0.0000
  7 H      1.3453     1.0000    -0.3453     1.1110     1.1110    -0.0000
  8 C      6.4967     6.0000    -0.4967     5.3725     5.3725     0.0000
  9 C      5.4036     6.0000     0.5964     3.9049     3.9049    -0.0000
 10 H      0.9450     1.0000     0.0550     1.0851     1.0851    -0.0000
 11 H      1.0877     1.0000    -0.0877     1.1765     1.1765     0.0000
 12 H      0.9945     1.0000     0.0055     1.1324     1.1324     0.0000
 13 H      0.9402     1.0000     0.0598     1.0285     1.0285     0.0000
 14 H      1.1242     1.0000    -0.1242     1.0449     1.0449     0.0000
 15 H      0.9721     1.0000     0.0279     1.0090     1.0090     0.0000
 16 H      0.9461     1.0000     0.0539     1.1370     1.1370     0.0000

  Mayer bond orders larger than 0.100000
B(  0-C ,  1-C ) :   1.2064 B(  0-C ,  8-C ) :   1.1689 B(  0-C , 10-H ) :   0.1084 
B(  0-C , 11-H ) :   0.1511 B(  0-C , 12-H ) :   0.6936 B(  0-C , 13-H ) :   0.8131 
B(  1-C ,  2-C ) :   1.9419 B(  1-C ,  3-N ) :   0.8614 B(  1-C ,  5-H ) :   0.1020 
B(  1-C ,  7-H ) :   0.1997 B(  1-C , 12-H ) :   0.2276 B(  1-C , 13-H ) :   0.1853 
B(  2-C ,  3-N ) :   0.3213 B(  2-C ,  6-H ) :   0.7900 B(  2-C ,  7-H ) :   0.8427 
B(  3-N ,  4-H ) :   1.0934 B(  3-N ,  5-H ) :   0.9547 B(  4-H ,  5-H ) :  -0.1235 
B(  8-C ,  9-C ) :   1.3239 B(  8-C , 10-H ) :   0.9207 B(  8-C , 11-H ) :   0.9692 
B(  8-C , 12-H ) :   0.1607 B(  8-C , 14-H ) :   0.2085 B(  8-C , 15-H ) :   0.1874 
B(  8-C , 16-H ) :   0.2203 B(  9-C , 14-H ) :   0.8222 B(  9-C , 15-H ) :   0.7964 
B(  9-C , 16-H ) :   0.8237 

-------
TIMINGS
-------

Total SCF time: 0 days 0 hours 0 min 21 sec 

Total time                  ....      21.895 sec
Sum of individual times     ....      21.702 sec  ( 99.1%)

Fock matrix formation       ....      20.402 sec  ( 93.2%)
  Split-RI-J                ....       1.414 sec  (  6.9% of F)
  Chain of spheres X        ....      14.701 sec  ( 72.1% of F)
  XC integration            ....       4.244 sec  ( 20.8% of F)
    Basis function eval.    ....       1.391 sec  ( 32.8% of XC)
    Density eval.           ....       1.074 sec  ( 25.3% of XC)
    XC-Functional eval.     ....       0.200 sec  (  4.7% of XC)
    XC-Potential eval.      ....       1.399 sec  ( 33.0% of XC)
Diagonalization             ....       0.064 sec  (  0.3%)
Density matrix formation    ....       0.005 sec  (  0.0%)
Population analysis         ....       0.008 sec  (  0.0%)
Initial guess               ....       0.184 sec  (  0.8%)
Orbital Transformation      ....       0.000 sec  (  0.0%)
Orbital Orthonormalization  ....       0.000 sec  (  0.0%)
DIIS solution               ....       0.040 sec  (  0.2%)
SOSCF solution              ....       0.038 sec  (  0.2%)
Grid generation             ....       0.962 sec  (  4.4%)

Maximum memory used throughout the entire SCF-calculation: 56.1 MB


-------------------------------------------------------------------------------
                          DFT DISPERSION CORRECTION                            
                                                                               
                              DFTD3 V3.1  Rev 1                                
                          USING Becke-Johnson damping                          
-------------------------------------------------------------------------------
The PBE0 functional is recognized
Active option DFTDOPT                   ...         4   

molecular C6(AA) [au] = 2123.906262 


            DFT-D V3
 parameters
 s6 scaling factor         :     1.0000 
 a1 scaling factor         :     0.4145 
 s8 scaling factor         :     1.2177 
 a2 scaling factor         :     4.8593 
 ad hoc parameters k1-k3   :    16.0000     1.3333    -4.0000 

 Edisp/kcal,au: -7.831366815604  -0.012480076085 
 E6   /kcal   :  -5.081495324 
 E8   /kcal   :  -2.749871492 
 % E8         :  35.113557524 

-------------------------   ----------------
Dispersion correction           -0.012480076
-------------------------   ----------------


-------------------------   --------------------
FINAL SINGLE POINT ENERGY      -251.407503925861
-------------------------   --------------------


                            ***************************************
                            *     ORCA property calculations      *
                            ***************************************

                                    ---------------------
                                    Active property flags
                                    ---------------------
   (+) Dipole Moment


------------------------------------------------------------------------------
                       ORCA ELECTRIC PROPERTIES CALCULATION
------------------------------------------------------------------------------

Dipole Moment Calculation                       ... on
Quadrupole Moment Calculation                   ... off
Polarizability Calculation                      ... off
GBWName                                         ... 14Feb_SVPD_PBE0_C1_wt_wb97_typ1_pos.gbw
Electron density file                           ... 14Feb_SVPD_PBE0_C1_wt_wb97_typ1_pos.scfp
The origin for moment calculation is the CENTER OF MASS  = ( 7.059539, -3.173027  5.137079)

-------------
DIPOLE MOMENT
-------------
                                X             Y             Z
Electronic contribution:      1.36017       0.70209       3.42277
Nuclear contribution   :     -1.05621      -0.17147      -3.92631
                        -----------------------------------------
Total Dipole Moment    :      0.30396       0.53061      -0.50354
                        -----------------------------------------
Magnitude (a.u.)       :      0.79214
Magnitude (Debye)      :      2.01347



--------------------
Rotational spectrum 
--------------------
 
Rotational constants in cm-1:     0.171127     0.086782     0.080643 
Rotational constants in MHz :  5130.249275  2601.647634  2417.629092 

 Dipole components along the rotational axes: 
x,y,z [a.u.] :    -0.332867     0.690837    -0.198586 
x,y,z [Debye]:    -0.846080     1.755968    -0.504764 

 

Timings for individual modules:

Sum of individual times         ...       22.523 sec (=   0.375 min)
GTO integral calculation        ...        0.399 sec (=   0.007 min)   1.8 %
SCF iterations                  ...       22.124 sec (=   0.369 min)  98.2 %
                             ****ORCA TERMINATED NORMALLY****
TOTAL RUN TIME: 0 days 0 hours 0 minutes 22 seconds 910 msec
