
                                        *****************
                                        * O   R   C   A *
                                        *****************

                                            #,                                       
                                            ###                                      
                                            ####                                     
                                            #####                                    
                                            ######                                   
                                           ########,                                 
                                     ,,################,,,,,                         
                               ,,#################################,,                 
                          ,,##########################################,,             
                       ,#########################################, ''#####,          
                    ,#############################################,,   '####,        
                  ,##################################################,,,,####,       
                ,###########''''           ''''###############################       
              ,#####''   ,,,,##########,,,,          '''####'''          '####       
            ,##' ,,,,###########################,,,                        '##       
           ' ,,###''''                  '''############,,,                           
         ,,##''                                '''############,,,,        ,,,,,,###''
      ,#''                                            '''#######################'''  
     '                                                          ''''####''''         
             ,#######,   #######,   ,#######,      ##                                
            ,#'     '#,  ##    ##  ,#'     '#,    #''#        ######   ,####,        
            ##       ##  ##   ,#'  ##            #'  '#       #        #'  '#        
            ##       ##  #######   ##           ,######,      #####,   #    #        
            '#,     ,#'  ##    ##  '#,     ,#' ,#      #,         ##   #,  ,#        
             '#######'   ##     ##  '#######'  #'      '#     #####' # '####'        



                  #######################################################
                  #                        -***-                        #
                  #          Department of theory and spectroscopy      #
                  #    Directorship and core code : Frank Neese         #
                  #        Max Planck Institute fuer Kohlenforschung    #
                  #                Kaiser Wilhelm Platz 1               #
                  #                 D-45470 Muelheim/Ruhr               #
                  #                      Germany                        #
                  #                                                     #
                  #                  All rights reserved                #
                  #                        -***-                        #
                  #######################################################


                         Program Version 5.0.0 -  RELEASE  -
                                (SVN: $Rev: 19529$)
                ($Date: 2021-06-28 11:36:33 +0200 (Mo, 28 Jun 2021) $)


 With contributions from (in alphabetic order):
   Daniel Aravena         : Magnetic Suceptibility
   Michael Atanasov       : Ab Initio Ligand Field Theory (pilot matlab implementation)
   Alexander A. Auer      : GIAO ZORA, VPT2 properties, NMR spectrum
   Ute Becker             : Parallelization
   Giovanni Bistoni       : ED, misc. LED, open-shell LED, HFLD
   Martin Brehm           : Molecular dynamics
   Dmytro Bykov           : SCF Hessian
   Vijay G. Chilkuri      : MRCI spin determinant printing, contributions to CSF-ICE
   Dipayan Datta          : RHF DLPNO-CCSD density
   Achintya Kumar Dutta   : EOM-CC, STEOM-CC
   Dmitry Ganyushin       : Spin-Orbit,Spin-Spin,Magnetic field MRCI
   Miquel Garcia          : C-PCM Hessian, Gaussian charge scheme
   Yang Guo               : DLPNO-NEVPT2, F12-NEVPT2, CIM, IAO-localization
   Andreas Hansen         : Spin unrestricted coupled pair/coupled cluster methods
   Benjamin Helmich-Paris : MC-RPA, TRAH-SCF, COSX integrals
   Lee Huntington         : MR-EOM, pCC
   Robert Izsak           : Overlap fitted RIJCOSX, COSX-SCS-MP3, EOM
   Marcus Kettner         : VPT2
   Christian Kollmar      : KDIIS, OOCD, Brueckner-CCSD(T), CCSD density, CASPT2, CASPT2-K
   Simone Kossmann        : Meta GGA functionals, TD-DFT gradient, OOMP2, MP2 Hessian
   Martin Krupicka        : Initial AUTO-CI
   Lucas Lang             : DCDCAS
   Marvin Lechner         : AUTO-CI (C++ implementation), FIC-MRCC
   Dagmar Lenk            : GEPOL surface, SMD
   Dimitrios Liakos       : Extrapolation schemes; Compound Job, initial MDCI parallelization
   Dimitrios Manganas     : Further ROCIS development; embedding schemes
   Dimitrios Pantazis     : SARC Basis sets
   Anastasios Papadopoulos: AUTO-CI, single reference methods and gradients
   Taras Petrenko         : DFT Hessian,TD-DFT gradient, ASA, ECA, R-Raman, ABS, FL, XAS/XES, NRVS
   Peter Pinski           : DLPNO-MP2, DLPNO-MP2 Gradient
   Christoph Reimann      : Effective Core Potentials
   Marius Retegan         : Local ZFS, SOC
   Christoph Riplinger    : Optimizer, TS searches, QM/MM, DLPNO-CCSD(T), (RO)-DLPNO pert. Triples
   Tobias Risthaus        : Range-separated hybrids, TD-DFT gradient, RPA, STAB
   Michael Roemelt        : Original ROCIS implementation
   Masaaki Saitow         : Open-shell DLPNO-CCSD energy and density
   Barbara Sandhoefer     : DKH picture change effects
   Avijit Sen             : IP-ROCIS
   Kantharuban Sivalingam : CASSCF convergence, NEVPT2, FIC-MRCI
   Bernardo de Souza      : ESD, SOC TD-DFT
   Georgi Stoychev        : AutoAux, RI-MP2 NMR
   Willem Van den Heuvel  : Paramagnetic NMR
   Boris Wezisla          : Elementary symmetry handling
   Frank Wennmohs         : Technical directorship


 We gratefully acknowledge several colleagues who have allowed us to
 interface, adapt or use parts of their codes:
   Stefan Grimme, W. Hujo, H. Kruse, P. Pracht,  : VdW corrections, initial TS optimization,
                  C. Bannwarth, S. Ehlert          DFT functionals, gCP, sTDA/sTD-DF
   Ed Valeev, F. Pavosevic, A. Kumar             : LibInt (2-el integral package), F12 methods
   Garnet Chan, S. Sharma, J. Yang, R. Olivares  : DMRG
   Ulf Ekstrom                                   : XCFun DFT Library
   Mihaly Kallay                                 : mrcc  (arbitrary order and MRCC methods)
   Jiri Pittner, Ondrej Demel                    : Mk-CCSD
   Frank Weinhold                                : gennbo (NPA and NBO analysis)
   Christopher J. Cramer and Donald G. Truhlar   : smd solvation model
   Lars Goerigk                                  : TD-DFT with DH, B97 family of functionals
   V. Asgeirsson, H. Jonsson                     : NEB implementation
   FAccTs GmbH                                   : IRC, NEB, NEB-TS, DLPNO-Multilevel, CI-OPT
                                                   MM, QMMM, 2- and 3-layer-ONIOM, Crystal-QMMM,
                                                   LR-CPCM, SF, NACMEs, symmetry and pop. for TD-DFT,
                                                   nearIR, NL-DFT gradient (VV10), updates on ESD,
                                                   ML-optimized integration grids
   S Lehtola, MJT Oliveira, MAL Marques          : LibXC Library
   Liviu Ungur et al                             : ANISO software


 Your calculation uses the libint2 library for the computation of 2-el integrals
 For citations please refer to: http://libint.valeyev.net

 Your ORCA version has been built with support for libXC version: 5.1.0
 For citations please refer to: https://tddft.org/programs/libxc/

 This ORCA versions uses:
   CBLAS   interface :  Fast vector & matrix operations
   LAPACKE interface :  Fast linear algebra routines
   SCALAPACK package :  Parallel linear algebra routines
   Shared memory     :  Shared parallel matrices
   BLAS/LAPACK       :  OpenBLAS 0.3.15  USE64BITINT DYNAMIC_ARCH NO_AFFINITY Haswell SINGLE_THREADED
        Core in use  :  Haswell
   Copyright (c) 2011-2014, The OpenBLAS Project




***************************************
The coordinates will be read from file: D.xyz
***************************************


Your calculation utilizes the atom-pairwise dispersion correction
with the Becke-Johnson damping scheme (D3BJ)
Cite in your paper:
S.Grimme, S.Ehrlich, L.Goerigk, J Comput Chem, (2011), 32, 1456–1465 
S.Grimme, J.Antony, S.Ehrlich and H.Krieg, J.Chem.Phys., 132, (2010), 154104 
   

================================================================================

----- Orbital basis set information -----
Your calculation utilizes the basis: def2-TZVPD
   F. Weigend and R. Ahlrichs, Phys. Chem. Chem. Phys. 7, 3297 (2005).
   D. Rappoport and F. Furche, J. Chem. Phys. 133 134105 (2010).

----- AuxJ basis set information -----
Your calculation utilizes the auxiliary basis: def2/J
   F. Weigend, Phys. Chem. Chem. Phys. 8, 1057 (2006).

================================================================================
                                        WARNINGS
                       Please study these warnings very carefully!
================================================================================



WARNING: Found flag for RIJCOSX approximation but no HF exchange needed!
  ===> : RIJCOSX  will be disabled and Split-RI-J is turned on

INFO   : the flag for use of the SHARK integral package has been found!

================================================================================
                                       INPUT FILE
================================================================================
NAME = 28Oct_TZVPD_PBE_D_wt_wb97.com
|  1> !PBE D3BJ RIJCOSX def2-TZVPD def2/J TightSCF xyzfile                                                                                         
|  2> 
|  3> *xyzfile 0 1 D.xyz
|  4> 
|  5> %MaxCore 64000
|  6> 
|  7> %pal nprocs 4  
|  8> end  
|  9> 
| 10> %scf
| 11>   MaxIter 150
| 12> end
| 13> 
| 14> 
| 15>                          ****END OF INPUT****
================================================================================

                       ****************************
                       * Single Point Calculation *
                       ****************************

---------------------------------
CARTESIAN COORDINATES (ANGSTROEM)
---------------------------------
  C     -2.120502    0.885196    1.789506
  C     -0.778939    0.171966    1.804965
  H     -2.324193    1.472649    2.686078
  H     -2.187698    1.541272    0.919482
  C     -3.176900   -0.159484    1.610700
  H      0.015695    0.910767    1.939153
  H     -0.743553   -0.506827    2.665420
  C     -0.602493   -0.630712    0.492240
  H      0.313894   -1.240346    0.603498
  H     -0.363829    0.113322   -0.301169
  F     -1.712061   -1.376836    0.202535
  H     -4.064736    0.231272    1.286754
  H     -3.344073   -0.671511    2.484928
  H     -2.716861   -0.781886    0.935880

----------------------------
CARTESIAN COORDINATES (A.U.)
----------------------------
  NO LB      ZA    FRAG     MASS         X           Y           Z
   0 C     6.0000    0    12.011   -4.007169    1.672777    3.381676
   1 C     6.0000    0    12.011   -1.471982    0.324969    3.410889
   2 H     1.0000    0     1.008   -4.392089    2.782903    5.075951
   3 H     1.0000    0     1.008   -4.134150    2.912581    1.737568
   4 C     6.0000    0    12.011   -6.003470   -0.301381    3.043781
   5 H     1.0000    0     1.008    0.029659    1.721101    3.664469
   6 H     1.0000    0     1.008   -1.405112   -0.957764    5.036915
   7 C     6.0000    0    12.011   -1.138546   -1.191873    0.930199
   8 H     1.0000    0     1.008    0.593174   -2.343914    1.140446
   9 H     1.0000    0     1.008   -0.687536    0.214148   -0.569127
  10 F     9.0000    0    18.998   -3.235325   -2.601843    0.382735
  11 H     1.0000    0     1.008   -7.681238    0.437041    2.431613
  12 H     1.0000    0     1.008   -6.319383   -1.268971    4.695833
  13 H     1.0000    0     1.008   -5.134123   -1.477551    1.768557

--------------------------------
INTERNAL COORDINATES (ANGSTROEM)
--------------------------------
 C      0   0   0     0.000000000000     0.00000000     0.00000000
 C      1   0   0     1.519449644450     0.00000000     0.00000000
 H      1   2   0     1.091069523679   114.15500392     0.00000000
 H      1   2   3     1.091738488962   110.15344070   122.54378605
 C      1   2   3     1.496429790892   107.26662724   237.84444195
 H      2   1   3     1.093287446389   109.01309694   302.40678057
 H      2   1   3     1.096538255331   109.08982085    59.36929242
 C      2   1   3     1.548764524221   109.58724637   179.74801984
 H      8   2   1     1.106253537470   107.14181190   187.64352253
 H      8   2   1     1.113573478149   106.38180806    75.50765501
 F      8   2   1     1.368126402258   111.69890898   312.03849074
 H      5   1   2     1.022684613029   112.57972907   198.71528345
 H      5   1   2     1.026836283400   111.18080867    76.60847439
 H      5   1   2     1.026840791569   100.68461984   320.91959228

---------------------------
INTERNAL COORDINATES (A.U.)
---------------------------
 C      0   0   0     0.000000000000     0.00000000     0.00000000
 C      1   0   0     2.871343702294     0.00000000     0.00000000
 H      1   2   0     2.061822592821   114.15500392     0.00000000
 H      1   2   3     2.063086753999   110.15344070   122.54378605
 C      1   2   3     2.827842483428   107.26662724   237.84444195
 H      2   1   3     2.066013859330   109.01309694   302.40678057
 H      2   1   3     2.072156997943   109.08982085    59.36929242
 C      2   1   3     2.926740796711   109.58724637   179.74801984
 H      8   2   1     2.090516220501   107.14181190   187.64352253
 H      8   2   1     2.104348903699   106.38180806    75.50765501
 F      8   2   1     2.585384216855   111.69890898   312.03849074
 H      5   1   2     1.932593840000   112.57972907   198.71528345
 H      5   1   2     1.940439360000   111.18080867    76.60847439
 H      5   1   2     1.940447879204   100.68461984   320.91959228

---------------------
BASIS SET INFORMATION
---------------------
There are 3 groups of distinct atoms

 Group   1 Type C   : 12s6p3d1f contracted to 6s3p3d1f pattern {621111/411/111/1}
 Group   2 Type H   : 5s2p contracted to 3s2p pattern {311/11}
 Group   3 Type F   : 12s7p3d1f contracted to 6s4p3d1f pattern {621111/4111/111/1}

Atom   0C    basis set group =>   1
Atom   1C    basis set group =>   1
Atom   2H    basis set group =>   2
Atom   3H    basis set group =>   2
Atom   4C    basis set group =>   1
Atom   5H    basis set group =>   2
Atom   6H    basis set group =>   2
Atom   7C    basis set group =>   1
Atom   8H    basis set group =>   2
Atom   9H    basis set group =>   2
Atom  10F    basis set group =>   3
Atom  11H    basis set group =>   2
Atom  12H    basis set group =>   2
Atom  13H    basis set group =>   2
---------------------------------
AUXILIARY/J BASIS SET INFORMATION
---------------------------------
There are 3 groups of distinct atoms

 Group   1 Type C   : 12s5p4d2f1g contracted to 6s4p3d1f1g pattern {711111/2111/211/2/1}
 Group   2 Type H   : 5s2p1d contracted to 3s1p1d pattern {311/2/1}
 Group   3 Type F   : 12s5p4d2f1g contracted to 6s4p3d1f1g pattern {711111/2111/211/2/1}

Atom   0C    basis set group =>   1
Atom   1C    basis set group =>   1
Atom   2H    basis set group =>   2
Atom   3H    basis set group =>   2
Atom   4C    basis set group =>   1
Atom   5H    basis set group =>   2
Atom   6H    basis set group =>   2
Atom   7C    basis set group =>   1
Atom   8H    basis set group =>   2
Atom   9H    basis set group =>   2
Atom  10F    basis set group =>   3
Atom  11H    basis set group =>   2
Atom  12H    basis set group =>   2
Atom  13H    basis set group =>   2


           ************************************************************
           *        Program running with 4 parallel MPI-processes     *
           *              working on a common directory               *
           ************************************************************
------------------------------------------------------------------------------
                           ORCA GTO INTEGRAL CALCULATION
                           -- RI-GTO INTEGRALS CHOSEN --
------------------------------------------------------------------------------
------------------------------------------------------------------------------
                   ___                                                        
                  /   \      - P O W E R E D   B Y -                         
                 /     \                                                     
                 |  |  |   _    _      __       _____    __    __             
                 |  |  |  | |  | |    /  \     |  _  \  |  |  /  |          
                  \  \/   | |  | |   /    \    | | | |  |  | /  /          
                 / \  \   | |__| |  /  /\  \   | |_| |  |  |/  /          
                |  |  |   |  __  | /  /__\  \  |    /   |      \           
                |  |  |   | |  | | |   __   |  |    \   |  |\   \          
                \     /   | |  | | |  |  |  |  | |\  \  |  | \   \       
                 \___/    |_|  |_| |__|  |__|  |_| \__\ |__|  \__/        
                                                                              
                      - O R C A' S   B I G   F R I E N D -                    
                                      &                                       
                       - I N T E G R A L  F E E D E R -                       
                                                                              
 v1 FN, 2020, v2 2021                                                         
------------------------------------------------------------------------------


Reading SHARK input file 28Oct_TZVPD_PBE_D_wt_wb97.SHARKINP.tmp ... ok
----------------------
SHARK INTEGRAL PACKAGE
----------------------

Number of atoms                             ...     14
Number of basis functions                   ...    269
Number of shells                            ...    111
Maximum angular momentum                    ...      3
Integral batch strategy                     ... SHARK/LIBINT Hybrid
RI-J (if used) integral strategy            ... SPLIT-RIJ (Revised 2003 algorithm where possible)
Printlevel                                  ...      1
Contraction scheme used                     ... SEGMENTED contraction
Coulomb Range Separation                    ... NOT USED
Exchange Range Separation                   ... NOT USED
Finite Nucleus Model                        ... NOT USED
Auxiliary Coulomb fitting basis             ... AVAILABLE
   # of basis functions in Aux-J            ...    344
   # of shells in Aux-J                     ...    120
   Maximum angular momentum in Aux-J        ...      4
Auxiliary J/K fitting basis                 ... NOT available
Auxiliary Correlation fitting basis         ... NOT available
Auxiliary 'external' fitting basis          ... NOT available
Integral threshold                          ...     2.500000e-11
Primitive cut-off                           ...     2.500000e-12
Primitive pair pre-selection threshold      ...     2.500000e-12

Calculating pre-screening integrals         ... done (  0.1 sec) Dimension = 111
Organizing shell pair data                  ... done (  0.1 sec)
Shell pair information
Total number of shell pairs                 ...      6216
Shell pairs after pre-screening             ...      6096
Total number of primitive shell pairs       ...     15362
Primitive shell pairs kept                  ...     12708
          la=0 lb=0:   1577 shell pairs
          la=1 lb=0:   1908 shell pairs
          la=1 lb=1:    594 shell pairs
          la=2 lb=0:    847 shell pairs
          la=2 lb=1:    509 shell pairs
          la=2 lb=2:    120 shell pairs
          la=3 lb=0:    281 shell pairs
          la=3 lb=1:    170 shell pairs
          la=3 lb=2:     75 shell pairs
          la=3 lb=3:     15 shell pairs

Calculating one electron integrals          ... done (  0.0 sec)
Calculating RI/J V-Matrix + Cholesky decomp.... done (  0.0 sec)
Calculating Nuclear repulsion               ... done (  0.0 sec) ENN=    199.793214318789 Eh

SHARK setup successfully completed in   0.2 seconds

Maximum memory used throughout the entire GTOINT-calculation: 13.9 MB


           ************************************************************
           *        Program running with 4 parallel MPI-processes     *
           *              working on a common directory               *
           ************************************************************
-------------------------------------------------------------------------------
                                 ORCA SCF
-------------------------------------------------------------------------------

------------
SCF SETTINGS
------------
Hamiltonian:
 Density Functional     Method          .... DFT(GTOs)
 Exchange Functional    Exchange        .... PBE
   PBE kappa parameter   XKappa         ....  0.804000
   PBE mue parameter    XMuePBE         ....  0.219520
 Correlation Functional Correlation     .... PBE
   PBE beta parameter  CBetaPBE         ....  0.066725
 LDA part of GGA corr.  LDAOpt          .... PW91-LDA
 Gradients option       PostSCFGGA      .... off
   Density functional embedding theory  .... OFF
   NL short-range parameter             ....  6.400000
 RI-approximation to the Coulomb term is turned on
   Number of AuxJ basis functions       .... 344


General Settings:
 Integral files         IntName         .... 28Oct_TZVPD_PBE_D_wt_wb97
 Hartree-Fock type      HFTyp           .... RHF
 Total Charge           Charge          ....    0
 Multiplicity           Mult            ....    1
 Number of Electrons    NEL             ....   42
 Basis Dimension        Dim             ....  269
 Nuclear Repulsion      ENuc            ....    199.7932143188 Eh

Convergence Acceleration:
 DIIS                   CNVDIIS         .... on
   Start iteration      DIISMaxIt       ....    12
   Startup error        DIISStart       ....  0.200000
   # of expansion vecs  DIISMaxEq       ....     5
   Bias factor          DIISBfac        ....   1.050
   Max. coefficient     DIISMaxC        ....  10.000
 Trust-Rad. Augm. Hess. CNVTRAH         .... auto
   Auto Start mean grad. ratio tolernc. ....  1.125000
   Auto Start start iteration           ....    20
   Auto Start num. interpolation iter.  ....    10
   Max. Number of Micro iterations      ....    16
   Max. Number of Macro iterations      .... Maxiter - #DIIS iter
   Number of Davidson start vectors     ....     2
   Converg. threshold I  (grad. norm)   ....   1.000e-05
   Converg. threshold II (energy diff.) ....   1.000e-08
   Grad. Scal. Fac. for Micro threshold ....   0.100
   Minimum threshold for Micro iter.    ....   0.010
   NR start threshold (gradient norm)   ....   0.001
   Initial trust radius                 ....   0.400
   Minimum AH scaling param. (alpha)    ....   1.000
   Maximum AH scaling param. (alpha)    .... 1000.000
   Orbital update algorithm             .... Taylor
   White noise on init. David. guess    .... on
   Maximum white noise                  ....   0.010
   Quad. conv. algorithm                .... NR
 SOSCF                  CNVSOSCF        .... on
   Start iteration      SOSCFMaxIt      ....   150
   Startup grad/error   SOSCFStart      ....  0.003300
 Level Shifting         CNVShift        .... on
   Level shift para.    LevelShift      ....    0.2500
   Turn off err/grad.   ShiftErr        ....    0.0010
 Zerner damping         CNVZerner       .... off
 Static damping         CNVDamp         .... on
   Fraction old density DampFac         ....    0.7000
   Max. Damping (<1)    DampMax         ....    0.9800
   Min. Damping (>=0)   DampMin         ....    0.0000
   Turn off err/grad.   DampErr         ....    0.1000
 Fernandez-Rico         CNVRico         .... off

SCF Procedure:
 Maximum # iterations   MaxIter         ....   150
 SCF integral mode      SCFMode         .... Direct
   Integral package                     .... SHARK and LIBINT hybrid scheme
 Reset frequency        DirectResetFreq ....    20
 Integral Threshold     Thresh          ....  2.500e-11 Eh
 Primitive CutOff       TCut            ....  2.500e-12 Eh

Convergence Tolerance:
 Convergence Check Mode ConvCheckMode   .... Total+1el-Energy
 Convergence forced     ConvForced      .... 0
 Energy Change          TolE            ....  1.000e-08 Eh
 1-El. energy change                    ....  1.000e-05 Eh
 Orbital Gradient       TolG            ....  1.000e-05
 Orbital Rotation angle TolX            ....  1.000e-05
 DIIS Error             TolErr          ....  5.000e-07


Diagonalization of the overlap matrix:
Smallest eigenvalue                        ... 3.433e-06
Time for diagonalization                   ...    0.015 sec
Threshold for overlap eigenvalues          ... 1.000e-08
Number of eigenvalues below threshold      ... 0
Time for construction of square roots      ...    0.013 sec
Total time needed                          ...    0.029 sec

Time for model grid setup =    0.100 sec

------------------------------
INITIAL GUESS: MODEL POTENTIAL
------------------------------
Loading Hartree-Fock densities                     ... done
Calculating cut-offs                               ... done
Initializing the effective Hamiltonian             ... done
Setting up the integral package (SHARK)            ... done
Starting the Coulomb interaction                   ... done (   0.1 sec)
Reading the grid                                   ... done
Mapping shells                                     ... done
Starting the XC term evaluation                    ... done (   0.2 sec)
  promolecular density results
     # of electrons  =     41.995782732
     EX              =    -33.180433449
     EC              =     -1.392180441
     EX+EC           =    -34.572613890
Transforming the Hamiltonian                       ... done (   0.0 sec)
Diagonalizing the Hamiltonian                      ... done (   0.0 sec)
Back transforming the eigenvectors                 ... done (   0.0 sec)
Now organizing SCF variables                       ... done
                      ------------------
                      INITIAL GUESS DONE (   0.4 sec)
                      ------------------
-------------------
DFT GRID GENERATION
-------------------

General Integration Accuracy     IntAcc      ... 4.388
Radial Grid Type                 RadialGrid  ... OptM3 with GC (2021)
Angular Grid (max. ang.)         AngularGrid ... 4 (Lebedev-302)
Angular grid pruning method      GridPruning ... 4 (adaptive)
Weight generation scheme         WeightScheme... Becke
Basis function cutoff            BFCut       ... 1.0000e-11
Integration weight cutoff        WCut        ... 1.0000e-14
Angular grids for H and He will be reduced by one unit
Partially contracted basis set               ... off
Rotationally invariant grid construction     ... off

Total number of grid points                  ...    62041
Total number of batches                      ...      977
Average number of points per batch           ...       63
Average number of grid points per atom       ...     4432
Time for grid setup =    0.452 sec

--------------
SCF ITERATIONS
--------------
ITER       Energy         Delta-E        Max-DP      RMS-DP      [F,P]     Damp
               ***  Starting incremental Fock matrix formation  ***
  0   -257.2223662995   0.000000000000 0.08607601  0.00194533  0.2198706 0.7000
  1   -257.3096397873  -0.087273487836 0.06945954  0.00135100  0.1035066 0.7000
                               ***Turning on DIIS***
  2   -257.3399229189  -0.030283131552 0.10621110  0.00271695  0.0276958 0.0000
  3   -257.3836778359  -0.043754917043 0.02920282  0.00076508  0.0679160 0.0000
  4   -257.3982176295  -0.014539793621 0.02527158  0.00036645  0.0124331 0.0000
                      *** Initiating the SOSCF procedure ***
                           *** Shutting down DIIS ***
                      *** Re-Reading the Fockian *** 
                      *** Removing any level shift *** 
ITER      Energy       Delta-E        Grad      Rot      Max-DP    RMS-DP
  5   -257.39897665  -0.0007590253  0.000866  0.000866  0.009663  0.000197
               *** Restarting incremental Fock matrix formation ***
  6   -257.39903765  -0.0000609904  0.000395  0.001426  0.010423  0.000212
  7   -257.39903786  -0.0000002120  0.000407  0.000301  0.001015  0.000026
  8   -257.39904630  -0.0000084401  0.000041  0.000181  0.001218  0.000028
  9   -257.39904639  -0.0000000910  0.000042  0.000049  0.000751  0.000006
 10   -257.39904650  -0.0000001092  0.000024  0.000048  0.000308  0.000007
 11   -257.39904650  -0.0000000007  0.000013  0.000023  0.000465  0.000005
 12   -257.39904652  -0.0000000228  0.000003  0.000006  0.000305  0.000004
                  ***Gradient check signals convergence***
              ***Rediagonalizing the Fockian in SOSCF/NRSCF***

               *****************************************************
               *                     SUCCESS                       *
               *           SCF CONVERGED AFTER  13 CYCLES          *
               *****************************************************


----------------
TOTAL SCF ENERGY
----------------

Total Energy       :         -257.39904652 Eh           -7004.18414 eV

Components:
Nuclear Repulsion  :          199.79321432 Eh            5436.64976 eV
Electronic Energy  :         -457.19226084 Eh          -12440.83390 eV
One Electron Energy:         -746.41468828 Eh          -20310.97626 eV
Two Electron Energy:          289.22242744 Eh            7870.14236 eV

Virial components:
Potential Energy   :         -514.37937150 Eh          -13996.97429 eV
Kinetic Energy     :          256.98032498 Eh            6992.79015 eV
Virial Ratio       :            2.00162939


DFT components:
N(Alpha)           :       20.999981271573 electrons
N(Beta)            :       20.999981271573 electrons
N(Total)           :       41.999962543146 electrons
E(X)               :      -33.982500929864 Eh       
E(C)               :       -1.386992675254 Eh       
E(XC)              :      -35.369493605118 Eh       
DFET-embed. en.    :        0.000000000000 Eh       

---------------
SCF CONVERGENCE
---------------

  Last Energy change         ...   -3.4788e-11  Tolerance :   1.0000e-08
  Last MAX-Density change    ...    2.0606e-04  Tolerance :   1.0000e-07
  Last RMS-Density change    ...    2.6174e-06  Tolerance :   5.0000e-09
  Last Orbital Gradient      ...    2.3879e-06  Tolerance :   1.0000e-05
  Last Orbital Rotation      ...    2.6347e-06  Tolerance :   1.0000e-05

             **** THE GBW FILE WAS UPDATED (28Oct_TZVPD_PBE_D_wt_wb97.gbw) ****
             **** DENSITY 28Oct_TZVPD_PBE_D_wt_wb97.scfp WAS UPDATED ****
             **** ENERGY FILE WAS UPDATED (28Oct_TZVPD_PBE_D_wt_wb97.en.tmp) ****
             **** THE GBW FILE WAS UPDATED (28Oct_TZVPD_PBE_D_wt_wb97.gbw) ****
             **** DENSITY 28Oct_TZVPD_PBE_D_wt_wb97.scfp WAS UPDATED ****
----------------
ORBITAL ENERGIES
----------------

  NO   OCC          E(Eh)            E(eV) 
   0   2.0000     -24.266443      -660.3235 
   1   2.0000      -9.965108      -271.1644 
   2   2.0000      -9.885994      -269.0116 
   3   2.0000      -9.866676      -268.4859 
   4   2.0000      -9.805545      -266.8225 
   5   2.0000      -1.132920       -30.8283 
   6   2.0000      -0.733188       -19.9511 
   7   2.0000      -0.665914       -18.1204 
   8   2.0000      -0.574489       -15.6326 
   9   2.0000      -0.532190       -14.4816 
  10   2.0000      -0.474691       -12.9170 
  11   2.0000      -0.471273       -12.8240 
  12   2.0000      -0.432992       -11.7823 
  13   2.0000      -0.392130       -10.6704 
  14   2.0000      -0.363019        -9.8783 
  15   2.0000      -0.355638        -9.6774 
  16   2.0000      -0.334862        -9.1121 
  17   2.0000      -0.299583        -8.1521 
  18   2.0000      -0.288199        -7.8423 
  19   2.0000      -0.282104        -7.6764 
  20   2.0000      -0.232902        -6.3376 
  21   0.0000      -0.007832        -0.2131 
  22   0.0000       0.015926         0.4334 
  23   0.0000       0.017254         0.4695 
  24   0.0000       0.021125         0.5748 
  25   0.0000       0.043818         1.1923 
  26   0.0000       0.052174         1.4197 
  27   0.0000       0.062703         1.7062 
  28   0.0000       0.068808         1.8724 
  29   0.0000       0.075955         2.0668 
  30   0.0000       0.097018         2.6400 
  31   0.0000       0.103709         2.8221 
  32   0.0000       0.109826         2.9885 
  33   0.0000       0.123360         3.3568 
  34   0.0000       0.131342         3.5740 
  35   0.0000       0.132852         3.6151 
  36   0.0000       0.138750         3.7756 
  37   0.0000       0.149395         4.0652 
  38   0.0000       0.166848         4.5402 
  39   0.0000       0.186531         5.0758 
  40   0.0000       0.192308         5.2330 
  41   0.0000       0.196156         5.3377 
  42   0.0000       0.199742         5.4353 
  43   0.0000       0.205285         5.5861 
  44   0.0000       0.212530         5.7832 
  45   0.0000       0.217970         5.9313 
  46   0.0000       0.232485         6.3262 
  47   0.0000       0.235246         6.4014 
  48   0.0000       0.238382         6.4867 
  49   0.0000       0.244706         6.6588 
  50   0.0000       0.248594         6.7646 
  51   0.0000       0.254856         6.9350 
  52   0.0000       0.264417         7.1952 
  53   0.0000       0.267390         7.2761 
  54   0.0000       0.274097         7.4586 
  55   0.0000       0.281789         7.6679 
  56   0.0000       0.297923         8.1069 
  57   0.0000       0.302512         8.2318 
  58   0.0000       0.311016         8.4632 
  59   0.0000       0.311608         8.4793 
  60   0.0000       0.324040         8.8176 
  61   0.0000       0.334083         9.0909 
  62   0.0000       0.337842         9.1932 
  63   0.0000       0.344737         9.3808 
  64   0.0000       0.352526         9.5927 
  65   0.0000       0.355135         9.6637 
  66   0.0000       0.359402         9.7798 
  67   0.0000       0.368168        10.0184 
  68   0.0000       0.370951        10.0941 
  69   0.0000       0.384507        10.4630 
  70   0.0000       0.386216        10.5095 
  71   0.0000       0.398339        10.8394 
  72   0.0000       0.401905        10.9364 
  73   0.0000       0.409668        11.1476 
  74   0.0000       0.414009        11.2658 
  75   0.0000       0.418881        11.3983 
  76   0.0000       0.427133        11.6229 
  77   0.0000       0.440500        11.9866 
  78   0.0000       0.451353        12.2819 
  79   0.0000       0.457130        12.4391 
  80   0.0000       0.468671        12.7532 
  81   0.0000       0.477859        13.0032 
  82   0.0000       0.491795        13.3824 
  83   0.0000       0.494224        13.4485 
  84   0.0000       0.502961        13.6863 
  85   0.0000       0.506776        13.7901 
  86   0.0000       0.519727        14.1425 
  87   0.0000       0.524358        14.2685 
  88   0.0000       0.535953        14.5840 
  89   0.0000       0.549519        14.9532 
  90   0.0000       0.580273        15.7900 
  91   0.0000       0.589038        16.0285 
  92   0.0000       0.597812        16.2673 
  93   0.0000       0.612591        16.6695 
  94   0.0000       0.631412        17.1816 
  95   0.0000       0.637900        17.3581 
  96   0.0000       0.641814        17.4646 
  97   0.0000       0.651693        17.7335 
  98   0.0000       0.657796        17.8995 
  99   0.0000       0.664441        18.0803 
 100   0.0000       0.673567        18.3287 
 101   0.0000       0.675853        18.3909 
 102   0.0000       0.681973        18.5574 
 103   0.0000       0.688943        18.7471 
 104   0.0000       0.706216        19.2171 
 105   0.0000       0.715543        19.4709 
 106   0.0000       0.717266        19.5178 
 107   0.0000       0.732243        19.9254 
 108   0.0000       0.748483        20.3673 
 109   0.0000       0.758680        20.6447 
 110   0.0000       0.760909        20.7054 
 111   0.0000       0.765914        20.8416 
 112   0.0000       0.799800        21.7637 
 113   0.0000       0.818349        22.2684 
 114   0.0000       0.823449        22.4072 
 115   0.0000       0.840560        22.8728 
 116   0.0000       0.868771        23.6405 
 117   0.0000       0.892257        24.2796 
 118   0.0000       0.914933        24.8966 
 119   0.0000       0.933973        25.4147 
 120   0.0000       0.957804        26.0632 
 121   0.0000       0.965511        26.2729 
 122   0.0000       0.992096        26.9963 
 123   0.0000       1.042097        28.3569 
 124   0.0000       1.051787        28.6206 
 125   0.0000       1.072749        29.1910 
 126   0.0000       1.092463        29.7274 
 127   0.0000       1.110526        30.2190 
 128   0.0000       1.154552        31.4170 
 129   0.0000       1.164555        31.6892 
 130   0.0000       1.194965        32.5166 
 131   0.0000       1.199855        32.6497 
 132   0.0000       1.247469        33.9454 
 133   0.0000       1.249832        34.0096 
 134   0.0000       1.265685        34.4411 
 135   0.0000       1.282178        34.8898 
 136   0.0000       1.292534        35.1716 
 137   0.0000       1.328962        36.1629 
 138   0.0000       1.346930        36.6518 
 139   0.0000       1.362881        37.0859 
 140   0.0000       1.402972        38.1768 
 141   0.0000       1.422971        38.7210 
 142   0.0000       1.524590        41.4862 
 143   0.0000       1.676014        45.6066 
 144   0.0000       1.715960        46.6936 
 145   0.0000       1.725778        46.9608 
 146   0.0000       1.745502        47.4975 
 147   0.0000       1.757389        47.8210 
 148   0.0000       1.762415        47.9578 
 149   0.0000       1.788343        48.6633 
 150   0.0000       1.796981        48.8983 
 151   0.0000       1.804840        49.1122 
 152   0.0000       1.827050        49.7166 
 153   0.0000       1.837245        49.9940 
 154   0.0000       1.857377        50.5418 
 155   0.0000       1.869377        50.8683 
 156   0.0000       1.888328        51.3840 
 157   0.0000       1.910945        51.9995 
 158   0.0000       1.952594        53.1328 
 159   0.0000       1.965815        53.4926 
 160   0.0000       1.977444        53.8090 
 161   0.0000       2.011421        54.7335 
 162   0.0000       2.021790        55.0157 
 163   0.0000       2.058397        56.0118 
 164   0.0000       2.077995        56.5451 
 165   0.0000       2.117862        57.6300 
 166   0.0000       2.154230        58.6196 
 167   0.0000       2.184368        59.4397 
 168   0.0000       2.207098        60.0582 
 169   0.0000       2.225466        60.5580 
 170   0.0000       2.252092        61.2825 
 171   0.0000       2.342656        63.7469 
 172   0.0000       2.372928        64.5707 
 173   0.0000       2.385492        64.9125 
 174   0.0000       2.420867        65.8751 
 175   0.0000       2.451942        66.7207 
 176   0.0000       2.491437        67.7954 
 177   0.0000       2.512457        68.3674 
 178   0.0000       2.528447        68.8025 
 179   0.0000       2.559790        69.6554 
 180   0.0000       2.574920        70.0671 
 181   0.0000       2.588678        70.4415 
 182   0.0000       2.606081        70.9151 
 183   0.0000       2.608068        70.9691 
 184   0.0000       2.621235        71.3274 
 185   0.0000       2.640587        71.8540 
 186   0.0000       2.658017        72.3283 
 187   0.0000       2.661717        72.4290 
 188   0.0000       2.672648        72.7265 
 189   0.0000       2.695441        73.3467 
 190   0.0000       2.754116        74.9433 
 191   0.0000       2.776560        75.5540 
 192   0.0000       2.779372        75.6306 
 193   0.0000       2.799935        76.1901 
 194   0.0000       2.834309        77.1255 
 195   0.0000       2.859448        77.8095 
 196   0.0000       2.894235        78.7561 
 197   0.0000       2.951990        80.3277 
 198   0.0000       2.983648        81.1892 
 199   0.0000       3.022093        82.2353 
 200   0.0000       3.047064        82.9148 
 201   0.0000       3.135047        85.3090 
 202   0.0000       3.158265        85.9408 
 203   0.0000       3.177698        86.4696 
 204   0.0000       3.188175        86.7547 
 205   0.0000       3.216309        87.5202 
 206   0.0000       3.232048        87.9485 
 207   0.0000       3.246713        88.3475 
 208   0.0000       3.255038        88.5741 
 209   0.0000       3.275246        89.1240 
 210   0.0000       3.309499        90.0561 
 211   0.0000       3.332294        90.6763 
 212   0.0000       3.346058        91.0509 
 213   0.0000       3.358916        91.4008 
 214   0.0000       3.402065        92.5749 
 215   0.0000       3.420422        93.0744 
 216   0.0000       3.441959        93.6605 
 217   0.0000       3.477209        94.6197 
 218   0.0000       3.498024        95.1861 
 219   0.0000       3.547789        96.5403 
 220   0.0000       3.584908        97.5503 
 221   0.0000       3.598434        97.9184 
 222   0.0000       3.615717        98.3887 
 223   0.0000       3.659642        99.5839 
 224   0.0000       3.672996        99.9473 
 225   0.0000       3.695875       100.5699 
 226   0.0000       3.774217       102.7017 
 227   0.0000       3.786333       103.0314 
 228   0.0000       3.853051       104.8469 
 229   0.0000       3.869976       105.3074 
 230   0.0000       3.938979       107.1851 
 231   0.0000       3.964555       107.8810 
 232   0.0000       4.013585       109.2152 
 233   0.0000       4.040334       109.9431 
 234   0.0000       4.119674       112.1020 
 235   0.0000       4.132601       112.4538 
 236   0.0000       4.180585       113.7595 
 237   0.0000       4.203542       114.3842 
 238   0.0000       4.322544       117.6224 
 239   0.0000       4.340331       118.1064 
 240   0.0000       4.387679       119.3948 
 241   0.0000       4.431001       120.5737 
 242   0.0000       4.539842       123.5354 
 243   0.0000       4.558813       124.0516 
 244   0.0000       4.585605       124.7807 
 245   0.0000       4.696934       127.8101 
 246   0.0000       4.732571       128.7798 
 247   0.0000       4.833142       131.5165 
 248   0.0000       4.899941       133.3342 
 249   0.0000       4.946123       134.5909 
 250   0.0000       5.010359       136.3388 
 251   0.0000       5.351916       145.6330 
 252   0.0000       6.768030       184.1675 
 253   0.0000       6.834941       185.9882 
 254   0.0000       6.844268       186.2420 
 255   0.0000       7.004094       190.5911 
 256   0.0000       7.152078       194.6179 
 257   0.0000       7.200754       195.9425 
 258   0.0000       7.329843       199.4552 
 259   0.0000       8.426979       229.3098 
 260   0.0000       8.631845       234.8844 
 261   0.0000       8.656531       235.5562 
 262   0.0000       8.783901       239.0221 
 263   0.0000       9.193045       250.1555 
 264   0.0000      22.302865       606.8918 
 265   0.0000      22.407988       609.7524 
 266   0.0000      22.460497       611.1812 
 267   0.0000      22.669043       616.8560 
 268   0.0000      57.248356      1557.8070 

                    ********************************
                    * MULLIKEN POPULATION ANALYSIS *
                    ********************************

-----------------------
MULLIKEN ATOMIC CHARGES
-----------------------
   0 C :   -0.043962
   1 C :   -0.244406
   2 H :    0.073989
   3 H :    0.158791
   4 C :   -1.018503
   5 H :    0.116017
   6 H :    0.189209
   7 C :   -0.171933
   8 H :    0.170712
   9 H :    0.176996
  10 F :   -0.242546
  11 H :    0.233599
  12 H :    0.279844
  13 H :    0.322194
Sum of atomic charges:   -0.0000000

--------------------------------
MULLIKEN REDUCED ORBITAL CHARGES
--------------------------------
  0 C s       :     2.978062  s :     2.978062
      pz      :     1.095853  p :     3.012391
      px      :     0.952966
      py      :     0.963571
      dz2     :     0.000448  d :     0.047546
      dxz     :    -0.020758
      dyz     :     0.018760
      dx2y2   :     0.030768
      dxy     :     0.018328
      f0      :     0.000792  f :     0.005963
      f+1     :     0.000108
      f-1     :     0.000889
      f+2     :     0.000122
      f-2     :     0.001217
      f+3     :     0.001665
      f-3     :     0.001171
  1 C s       :     3.065005  s :     3.065005
      pz      :     0.964882  p :     3.058510
      px      :     1.059351
      py      :     1.034278
      dz2     :     0.020211  d :     0.115795
      dxz     :     0.015172
      dyz     :     0.040562
      dx2y2   :     0.008241
      dxy     :     0.031610
      f0      :     0.001057  f :     0.005097
      f+1     :     0.000212
      f-1     :     0.001085
      f+2     :     0.000370
      f-2     :     0.000748
      f+3     :     0.001071
      f-3     :     0.000554
  2 H s       :     0.862310  s :     0.862310
      pz      :     0.028613  p :     0.063701
      px      :     0.018020
      py      :     0.017068
  3 H s       :     0.796520  s :     0.796520
      pz      :     0.021730  p :     0.044689
      px      :     0.008184
      py      :     0.014775
  4 C s       :     3.297088  s :     3.297088
      pz      :     1.326354  p :     3.618649
      px      :     1.167431
      py      :     1.124864
      dz2     :     0.022281  d :     0.099498
      dxz     :    -0.012069
      dyz     :     0.041226
      dx2y2   :     0.017208
      dxy     :     0.030853
      f0      :     0.000302  f :     0.003268
      f+1     :     0.000145
      f-1     :     0.000514
      f+2     :    -0.000109
      f-2     :     0.001098
      f+3     :     0.000628
      f-3     :     0.000691
  5 H s       :     0.829930  s :     0.829930
      pz      :    -0.006987  p :     0.054054
      px      :     0.035058
      py      :     0.025983
  6 H s       :     0.767044  s :     0.767044
      pz      :     0.024884  p :     0.043747
      px      :     0.004640
      py      :     0.014222
  7 C s       :     3.254633  s :     3.254633
      pz      :     1.016841  p :     2.700750
      px      :     0.773011
      py      :     0.910899
      dz2     :     0.025966  d :     0.204269
      dxz     :     0.029239
      dyz     :     0.038638
      dx2y2   :     0.073444
      dxy     :     0.036982
      f0      :     0.001642  f :     0.012281
      f+1     :     0.001470
      f-1     :     0.001278
      f+2     :     0.000889
      f-2     :     0.002145
      f+3     :     0.002827
      f-3     :     0.002030
  8 H s       :     0.791552  s :     0.791552
      pz      :     0.005001  p :     0.037735
      px      :     0.021952
      py      :     0.010782
  9 H s       :     0.782846  s :     0.782846
      pz      :     0.018663  p :     0.040158
      px      :     0.003636
      py      :     0.017859
 10 F s       :     3.963356  s :     3.963356
      pz      :     1.899454  p :     5.257479
      px      :     1.583543
      py      :     1.774482
      dz2     :     0.002106  d :     0.021087
      dxz     :     0.003822
      dyz     :     0.004349
      dx2y2   :     0.005022
      dxy     :     0.005788
      f0      :     0.000066  f :     0.000624
      f+1     :     0.000078
      f-1     :     0.000040
      f+2     :     0.000031
      f-2     :     0.000123
      f+3     :     0.000119
      f-3     :     0.000167
 11 H s       :     0.682915  s :     0.682915
      pz      :     0.031374  p :     0.083486
      px      :     0.032125
      py      :     0.019986
 12 H s       :     0.667367  s :     0.667367
      pz      :     0.034048  p :     0.052789
      px      :     0.004331
      py      :     0.014410
 13 H s       :     0.609222  s :     0.609222
      pz      :     0.023232  p :     0.068584
      px      :     0.029307
      py      :     0.016045


                     *******************************
                     * LOEWDIN POPULATION ANALYSIS *
                     *******************************

----------------------
LOEWDIN ATOMIC CHARGES
----------------------
   0 C :   -0.258142
   1 C :   -0.190053
   2 H :    0.105326
   3 H :    0.111328
   4 C :   -0.104427
   5 H :    0.112278
   6 H :    0.115473
   7 C :   -0.214002
   8 H :    0.117825
   9 H :    0.126086
  10 F :   -0.014840
  11 H :    0.055855
  12 H :    0.061576
  13 H :   -0.024284

-------------------------------
LOEWDIN REDUCED ORBITAL CHARGES
-------------------------------
  0 C s       :     2.673913  s :     2.673913
      pz      :     0.919389  p :     2.771597
      px      :     0.922558
      py      :     0.929650
      dz2     :     0.078880  d :     0.767852
      dxz     :     0.116840
      dyz     :     0.196380
      dx2y2   :     0.202218
      dxy     :     0.173533
      f0      :     0.004953  f :     0.044780
      f+1     :     0.003680
      f-1     :     0.005309
      f+2     :     0.003995
      f-2     :     0.007069
      f+3     :     0.011036
      f-3     :     0.008736
  1 C s       :     2.684433  s :     2.684433
      pz      :     0.906980  p :     2.758108
      px      :     0.931600
      py      :     0.919528
      dz2     :     0.156231  d :     0.708918
      dxz     :     0.112348
      dyz     :     0.161631
      dx2y2   :     0.105913
      dxy     :     0.172795
      f0      :     0.006270  f :     0.038593
      f+1     :     0.004350
      f-1     :     0.005995
      f+2     :     0.005773
      f-2     :     0.004402
      f+3     :     0.007212
      f-3     :     0.004592
  2 H s       :     0.692452  s :     0.692452
      pz      :     0.085740  p :     0.202222
      px      :     0.049888
      py      :     0.066595
  3 H s       :     0.680520  s :     0.680520
      pz      :     0.088218  p :     0.208152
      px      :     0.052699
      py      :     0.067234
  4 C s       :     2.690081  s :     2.690081
      pz      :     0.977114  p :     2.882194
      px      :     0.943206
      py      :     0.961874
      dz2     :     0.053662  d :     0.500770
      dxz     :     0.082808
      dyz     :     0.122651
      dx2y2   :     0.127993
      dxy     :     0.113655
      f0      :     0.003391  f :     0.031383
      f+1     :     0.003157
      f-1     :     0.004625
      f+2     :     0.001530
      f-2     :     0.006309
      f+3     :     0.005402
      f-3     :     0.006968
  5 H s       :     0.684326  s :     0.684326
      pz      :     0.050963  p :     0.203396
      px      :     0.079070
      py      :     0.073363
  6 H s       :     0.679794  s :     0.679794
      pz      :     0.077528  p :     0.204732
      px      :     0.054855
      py      :     0.072349
  7 C s       :     2.687281  s :     2.687281
      pz      :     0.934676  p :     2.581248
      px      :     0.776818
      py      :     0.869754
      dz2     :     0.168199  d :     0.856250
      dxz     :     0.142352
      dyz     :     0.180666
      dx2y2   :     0.154300
      dxy     :     0.210733
      f0      :     0.010839  f :     0.089222
      f+1     :     0.013526
      f-1     :     0.007744
      f+2     :     0.009025
      f-2     :     0.012598
      f+3     :     0.016837
      f-3     :     0.018653
  8 H s       :     0.691732  s :     0.691732
      pz      :     0.053375  p :     0.190443
      px      :     0.073485
      py      :     0.063583
  9 H s       :     0.683725  s :     0.683725
      pz      :     0.076090  p :     0.190189
      px      :     0.039592
      py      :     0.074506
 10 F s       :     3.543093  s :     3.543093
      pz      :     1.794988  p :     5.144608
      px      :     1.616474
      py      :     1.733145
      dz2     :     0.028015  d :     0.325340
      dxz     :     0.083837
      dyz     :     0.048472
      dx2y2   :     0.078713
      dxy     :     0.086303
      f0      :     0.000210  f :     0.001800
      f+1     :     0.000207
      f-1     :     0.000099
      f+2     :     0.000104
      f-2     :     0.000365
      f+3     :     0.000393
      f-3     :     0.000422
 11 H s       :     0.714163  s :     0.714163
      pz      :     0.070941  p :     0.229982
      px      :     0.091801
      py      :     0.067240
 12 H s       :     0.706496  s :     0.706496
      pz      :     0.095102  p :     0.231927
      px      :     0.062929
      py      :     0.073896
 13 H s       :     0.613475  s :     0.613475
      pz      :     0.138628  p :     0.410809
      px      :     0.151566
      py      :     0.120615


                      *****************************
                      * MAYER POPULATION ANALYSIS *
                      *****************************

  NA   - Mulliken gross atomic population
  ZA   - Total nuclear charge
  QA   - Mulliken gross atomic charge
  VA   - Mayer's total valence
  BVA  - Mayer's bonded valence
  FA   - Mayer's free valence

  ATOM       NA         ZA         QA         VA         BVA        FA
  0 C      6.0440     6.0000    -0.0440     3.7584     3.7584    -0.0000
  1 C      6.2444     6.0000    -0.2444     4.1322     4.1322     0.0000
  2 H      0.9260     1.0000     0.0740     1.1333     1.1333    -0.0000
  3 H      0.8412     1.0000     0.1588     1.0203     1.0203    -0.0000
  4 C      7.0185     6.0000    -1.0185     4.2758     4.2758    -0.0000
  5 H      0.8840     1.0000     0.1160     1.1021     1.1021     0.0000
  6 H      0.8108     1.0000     0.1892     1.0114     1.0114     0.0000
  7 C      6.1719     6.0000    -0.1719     4.0752     4.0752     0.0000
  8 H      0.8293     1.0000     0.1707     1.0176     1.0176    -0.0000
  9 H      0.8230     1.0000     0.1770     1.0074     1.0074     0.0000
 10 F      9.2425     9.0000    -0.2425     0.9974     0.9974    -0.0000
 11 H      0.7664     1.0000     0.2336     1.1033     1.1033     0.0000
 12 H      0.7202     1.0000     0.2798     1.0280     1.0280     0.0000
 13 H      0.6778     1.0000     0.3222     1.0690     1.0690    -0.0000

  Mayer bond orders larger than 0.100000
B(  0-C ,  1-C ) :   0.8547 B(  0-C ,  2-H ) :   1.0102 B(  0-C ,  3-H ) :   0.9470 
B(  0-C ,  4-C ) :   0.8226 B(  0-C ,  7-C ) :   0.1196 B(  1-C ,  4-C ) :   0.2066 
B(  1-C ,  5-H ) :   1.0026 B(  1-C ,  6-H ) :   0.9528 B(  1-C ,  7-C ) :   1.0244 
B(  4-C , 10-F ) :   0.1042 B(  4-C , 11-H ) :   0.9539 B(  4-C , 12-H ) :   0.9303 
B(  4-C , 13-H ) :   1.0894 B(  7-C ,  8-H ) :   0.9772 B(  7-C ,  9-H ) :   0.9888 
B(  7-C , 10-F ) :   0.8924 B( 10-F , 13-H ) :  -0.1127 B( 12-H , 13-H ) :   0.1059 


-------
TIMINGS
-------

Total SCF time: 0 days 0 hours 0 min 10 sec 

Total time                  ....      10.330 sec
Sum of individual times     ....      10.078 sec  ( 97.6%)

Fock matrix formation       ....       8.870 sec  ( 85.9%)
  Split-RI-J                ....       2.026 sec  ( 22.8% of F)
  XC integration            ....       6.777 sec  ( 76.4% of F)
    Basis function eval.    ....       1.767 sec  ( 26.1% of XC)
    Density eval.           ....       1.875 sec  ( 27.7% of XC)
    XC-Functional eval.     ....       0.217 sec  (  3.2% of XC)
    XC-Potential eval.      ....       2.707 sec  ( 39.9% of XC)
Diagonalization             ....       0.118 sec  (  1.1%)
Density matrix formation    ....       0.010 sec  (  0.1%)
Population analysis         ....       0.017 sec  (  0.2%)
Initial guess               ....       0.339 sec  (  3.3%)
Orbital Transformation      ....       0.000 sec  (  0.0%)
Orbital Orthonormalization  ....       0.000 sec  (  0.0%)
DIIS solution               ....       0.060 sec  (  0.6%)
SOSCF solution              ....       0.112 sec  (  1.1%)
Grid generation             ....       0.552 sec  (  5.3%)

Maximum memory used throughout the entire SCF-calculation: 28.2 MB


-------------------------------------------------------------------------------
                          DFT DISPERSION CORRECTION                            
                                                                               
                              DFTD3 V3.1  Rev 1                                
                          USING Becke-Johnson damping                          
-------------------------------------------------------------------------------
The PBE functional is recognized
Active option DFTDOPT                   ...         4   

molecular C6(AA) [au] = 1250.901446 


            DFT-D V3
 parameters
 s6 scaling factor         :     1.0000 
 a1 scaling factor         :     0.4289 
 s8 scaling factor         :     0.7875 
 a2 scaling factor         :     4.4407 
 ad hoc parameters k1-k3   :    16.0000     1.3333    -4.0000 

 Edisp/kcal,au: -6.241218279646  -0.009946013362 
 E6   /kcal   :  -4.530159199 
 E8   /kcal   :  -1.711059081 
 % E8         :  27.415466088 

-------------------------   ----------------
Dispersion correction           -0.009946013
-------------------------   ----------------


-------------------------   --------------------
FINAL SINGLE POINT ENERGY      -257.408992534515
-------------------------   --------------------


                            ***************************************
                            *     ORCA property calculations      *
                            ***************************************

                                    ---------------------
                                    Active property flags
                                    ---------------------
   (+) Dipole Moment


------------------------------------------------------------------------------
                       ORCA ELECTRIC PROPERTIES CALCULATION
------------------------------------------------------------------------------

Dipole Moment Calculation                       ... on
Quadrupole Moment Calculation                   ... off
Polarizability Calculation                      ... off
GBWName                                         ... 28Oct_TZVPD_PBE_D_wt_wb97.gbw
Electron density file                           ... 28Oct_TZVPD_PBE_D_wt_wb97.scfp
The origin for moment calculation is the CENTER OF MASS  = (-3.184978, -0.543062  2.125368)

-------------
DIPOLE MOMENT
-------------
                                X             Y             Z
Electronic contribution:      0.85199      -4.22247      -3.74448
Nuclear contribution   :     -0.20666       4.43855       3.76066
                        -----------------------------------------
Total Dipole Moment    :      0.64532       0.21608       0.01618
                        -----------------------------------------
Magnitude (a.u.)       :      0.68073
Magnitude (Debye)      :      1.73028



--------------------
Rotational spectrum 
--------------------
 
Rotational constants in cm-1:     0.236353     0.155239     0.105045 
Rotational constants in MHz :  7085.692869  4653.957069  3149.180346 

 Dipole components along the rotational axes: 
x,y,z [a.u.] :    -0.224074     0.639647    -0.063534 
x,y,z [Debye]:    -0.569550     1.625853    -0.161490 

 

Timings for individual modules:

Sum of individual times         ...       14.337 sec (=   0.239 min)
GTO integral calculation        ...        2.296 sec (=   0.038 min)  16.0 %
SCF iterations                  ...       12.041 sec (=   0.201 min)  84.0 %
                             ****ORCA TERMINATED NORMALLY****
TOTAL RUN TIME: 0 days 0 hours 0 minutes 14 seconds 893 msec
