
                                        *****************
                                        * O   R   C   A *
                                        *****************

                                            #,                                       
                                            ###                                      
                                            ####                                     
                                            #####                                    
                                            ######                                   
                                           ########,                                 
                                     ,,################,,,,,                         
                               ,,#################################,,                 
                          ,,##########################################,,             
                       ,#########################################, ''#####,          
                    ,#############################################,,   '####,        
                  ,##################################################,,,,####,       
                ,###########''''           ''''###############################       
              ,#####''   ,,,,##########,,,,          '''####'''          '####       
            ,##' ,,,,###########################,,,                        '##       
           ' ,,###''''                  '''############,,,                           
         ,,##''                                '''############,,,,        ,,,,,,###''
      ,#''                                            '''#######################'''  
     '                                                          ''''####''''         
             ,#######,   #######,   ,#######,      ##                                
            ,#'     '#,  ##    ##  ,#'     '#,    #''#        ######   ,####,        
            ##       ##  ##   ,#'  ##            #'  '#       #        #'  '#        
            ##       ##  #######   ##           ,######,      #####,   #    #        
            '#,     ,#'  ##    ##  '#,     ,#' ,#      #,         ##   #,  ,#        
             '#######'   ##     ##  '#######'  #'      '#     #####' # '####'        



                  #######################################################
                  #                        -***-                        #
                  #          Department of theory and spectroscopy      #
                  #    Directorship and core code : Frank Neese         #
                  #        Max Planck Institute fuer Kohlenforschung    #
                  #                Kaiser Wilhelm Platz 1               #
                  #                 D-45470 Muelheim/Ruhr               #
                  #                      Germany                        #
                  #                                                     #
                  #                  All rights reserved                #
                  #                        -***-                        #
                  #######################################################


                         Program Version 5.0.0 -  RELEASE  -
                                (SVN: $Rev: 19529$)
                ($Date: 2021-06-28 11:36:33 +0200 (Mo, 28 Jun 2021) $)


 With contributions from (in alphabetic order):
   Daniel Aravena         : Magnetic Suceptibility
   Michael Atanasov       : Ab Initio Ligand Field Theory (pilot matlab implementation)
   Alexander A. Auer      : GIAO ZORA, VPT2 properties, NMR spectrum
   Ute Becker             : Parallelization
   Giovanni Bistoni       : ED, misc. LED, open-shell LED, HFLD
   Martin Brehm           : Molecular dynamics
   Dmytro Bykov           : SCF Hessian
   Vijay G. Chilkuri      : MRCI spin determinant printing, contributions to CSF-ICE
   Dipayan Datta          : RHF DLPNO-CCSD density
   Achintya Kumar Dutta   : EOM-CC, STEOM-CC
   Dmitry Ganyushin       : Spin-Orbit,Spin-Spin,Magnetic field MRCI
   Miquel Garcia          : C-PCM Hessian, Gaussian charge scheme
   Yang Guo               : DLPNO-NEVPT2, F12-NEVPT2, CIM, IAO-localization
   Andreas Hansen         : Spin unrestricted coupled pair/coupled cluster methods
   Benjamin Helmich-Paris : MC-RPA, TRAH-SCF, COSX integrals
   Lee Huntington         : MR-EOM, pCC
   Robert Izsak           : Overlap fitted RIJCOSX, COSX-SCS-MP3, EOM
   Marcus Kettner         : VPT2
   Christian Kollmar      : KDIIS, OOCD, Brueckner-CCSD(T), CCSD density, CASPT2, CASPT2-K
   Simone Kossmann        : Meta GGA functionals, TD-DFT gradient, OOMP2, MP2 Hessian
   Martin Krupicka        : Initial AUTO-CI
   Lucas Lang             : DCDCAS
   Marvin Lechner         : AUTO-CI (C++ implementation), FIC-MRCC
   Dagmar Lenk            : GEPOL surface, SMD
   Dimitrios Liakos       : Extrapolation schemes; Compound Job, initial MDCI parallelization
   Dimitrios Manganas     : Further ROCIS development; embedding schemes
   Dimitrios Pantazis     : SARC Basis sets
   Anastasios Papadopoulos: AUTO-CI, single reference methods and gradients
   Taras Petrenko         : DFT Hessian,TD-DFT gradient, ASA, ECA, R-Raman, ABS, FL, XAS/XES, NRVS
   Peter Pinski           : DLPNO-MP2, DLPNO-MP2 Gradient
   Christoph Reimann      : Effective Core Potentials
   Marius Retegan         : Local ZFS, SOC
   Christoph Riplinger    : Optimizer, TS searches, QM/MM, DLPNO-CCSD(T), (RO)-DLPNO pert. Triples
   Tobias Risthaus        : Range-separated hybrids, TD-DFT gradient, RPA, STAB
   Michael Roemelt        : Original ROCIS implementation
   Masaaki Saitow         : Open-shell DLPNO-CCSD energy and density
   Barbara Sandhoefer     : DKH picture change effects
   Avijit Sen             : IP-ROCIS
   Kantharuban Sivalingam : CASSCF convergence, NEVPT2, FIC-MRCI
   Bernardo de Souza      : ESD, SOC TD-DFT
   Georgi Stoychev        : AutoAux, RI-MP2 NMR
   Willem Van den Heuvel  : Paramagnetic NMR
   Boris Wezisla          : Elementary symmetry handling
   Frank Wennmohs         : Technical directorship


 We gratefully acknowledge several colleagues who have allowed us to
 interface, adapt or use parts of their codes:
   Stefan Grimme, W. Hujo, H. Kruse, P. Pracht,  : VdW corrections, initial TS optimization,
                  C. Bannwarth, S. Ehlert          DFT functionals, gCP, sTDA/sTD-DF
   Ed Valeev, F. Pavosevic, A. Kumar             : LibInt (2-el integral package), F12 methods
   Garnet Chan, S. Sharma, J. Yang, R. Olivares  : DMRG
   Ulf Ekstrom                                   : XCFun DFT Library
   Mihaly Kallay                                 : mrcc  (arbitrary order and MRCC methods)
   Jiri Pittner, Ondrej Demel                    : Mk-CCSD
   Frank Weinhold                                : gennbo (NPA and NBO analysis)
   Christopher J. Cramer and Donald G. Truhlar   : smd solvation model
   Lars Goerigk                                  : TD-DFT with DH, B97 family of functionals
   V. Asgeirsson, H. Jonsson                     : NEB implementation
   FAccTs GmbH                                   : IRC, NEB, NEB-TS, DLPNO-Multilevel, CI-OPT
                                                   MM, QMMM, 2- and 3-layer-ONIOM, Crystal-QMMM,
                                                   LR-CPCM, SF, NACMEs, symmetry and pop. for TD-DFT,
                                                   nearIR, NL-DFT gradient (VV10), updates on ESD,
                                                   ML-optimized integration grids
   S Lehtola, MJT Oliveira, MAL Marques          : LibXC Library
   Liviu Ungur et al                             : ANISO software


 Your calculation uses the libint2 library for the computation of 2-el integrals
 For citations please refer to: http://libint.valeyev.net

 Your ORCA version has been built with support for libXC version: 5.1.0
 For citations please refer to: https://tddft.org/programs/libxc/

 This ORCA versions uses:
   CBLAS   interface :  Fast vector & matrix operations
   LAPACKE interface :  Fast linear algebra routines
   SCALAPACK package :  Parallel linear algebra routines
   Shared memory     :  Shared parallel matrices
   BLAS/LAPACK       :  OpenBLAS 0.3.15  USE64BITINT DYNAMIC_ARCH NO_AFFINITY Haswell SINGLE_THREADED
        Core in use  :  Haswell
   Copyright (c) 2011-2014, The OpenBLAS Project


Your calculation utilizes the atom-pairwise dispersion correction
with the Becke-Johnson damping scheme (D3BJ)
Cite in your paper:
S.Grimme, S.Ehrlich, L.Goerigk, J Comput Chem, (2011), 32, 1456–1465 
S.Grimme, J.Antony, S.Ehrlich and H.Krieg, J.Chem.Phys., 132, (2010), 154104 
   

================================================================================

----- Orbital basis set information -----
Your calculation utilizes the basis: def2-SVPD
   F. Weigend and R. Ahlrichs, Phys. Chem. Chem. Phys. 7, 3297 (2005).
   D. Rappoport and F. Furche, J. Chem. Phys. 133 134105 (2010).

----- AuxJ basis set information -----
Your calculation utilizes the auxiliary basis: def2/J
   F. Weigend, Phys. Chem. Chem. Phys. 8, 1057 (2006).

================================================================================
                                        WARNINGS
                       Please study these warnings very carefully!
================================================================================



WARNING: Found flag for RIJCOSX approximation but no HF exchange needed!
  ===> : RIJCOSX  will be disabled and Split-RI-J is turned on

INFO   : the flag for use of the SHARK integral package has been found!

================================================================================
                                       INPUT FILE
================================================================================
NAME = SVPD_PBE_A_wt_dlpno_neg.com
|  1> !PBE D3BJ RIJCOSX def2-SVPD def2/J TightSCF
|  2> *xyz -1 1 
|  3> C         -0.10608        1.76991       -4.08984
|  4> C         -0.25875        1.00432       -5.40983
|  5> C          0.39596       -0.37070       -5.33994
|  6> H          0.23915        1.56939       -6.20125
|  7> H         -1.30936        0.88869       -5.68245
|  8> O         -0.32633       -1.39040       -5.49128
|  9> O          1.61941       -0.40073       -5.03683
| 10> H         -0.57627        2.72718       -4.17630
| 11> H          0.93321        1.90140       -3.87192
| 12> H         -0.56868        1.21534       -3.30031
| 13> *
| 14> %MaxCore 64000
| 15> 
| 16> %pal nprocs 4
| 17> end  
| 18> 
| 19> %scf
| 20>   MaxIter 150
| 21> end
| 22> 
| 23> 
| 24>                          ****END OF INPUT****
================================================================================

                       ****************************
                       * Single Point Calculation *
                       ****************************

---------------------------------
CARTESIAN COORDINATES (ANGSTROEM)
---------------------------------
  C     -0.106080    1.769910   -4.089840
  C     -0.258750    1.004320   -5.409830
  C      0.395960   -0.370700   -5.339940
  H      0.239150    1.569390   -6.201250
  H     -1.309360    0.888690   -5.682450
  O     -0.326330   -1.390400   -5.491280
  O      1.619410   -0.400730   -5.036830
  H     -0.576270    2.727180   -4.176300
  H      0.933210    1.901400   -3.871920
  H     -0.568680    1.215340   -3.300310

----------------------------
CARTESIAN COORDINATES (A.U.)
----------------------------
  NO LB      ZA    FRAG     MASS         X           Y           Z
   0 C     6.0000    0    12.011   -0.200462    3.344645   -7.728678
   1 C     6.0000    0    12.011   -0.488967    1.897890  -10.223097
   2 C     6.0000    0    12.011    0.748256   -0.700521  -10.091024
   3 H     1.0000    0     1.008    0.451928    2.965717  -11.718664
   4 H     1.0000    0     1.008   -2.474332    1.679381  -10.738274
   5 O     8.0000    0    15.999   -0.616674   -2.627475  -10.377015
   6 O     8.0000    0    15.999    3.060241   -0.757270   -9.518229
   7 H     1.0000    0     1.008   -1.088992    5.153623   -7.892063
   8 H     1.0000    0     1.008    1.763511    3.593125   -7.316868
   9 H     1.0000    0     1.008   -1.074649    2.296660   -6.236682

--------------------------------
INTERNAL COORDINATES (ANGSTROEM)
--------------------------------
 C      0   0   0     0.000000000000     0.00000000     0.00000000
 C      1   0   0     1.533561142276     0.00000000     0.00000000
 C      2   1   0     1.524535928275   111.59549479     0.00000000
 H      2   1   3     1.092499030343   108.65959152   241.39604748
 H      2   1   3     1.091546303828   111.32615887   122.32181944
 O      3   2   1     1.258727424703   118.60144394   118.44579200
 O      3   2   1     1.260796325938   116.69439283   303.37508509
 H      1   2   3     1.070009261923   109.47089552   180.00008670
 H      1   2   3     1.070001145140   109.47186238    60.00011054
 H      1   2   3     1.070001993363   109.47130051   299.99920492

---------------------------
INTERNAL COORDINATES (A.U.)
---------------------------
 C      0   0   0     0.000000000000     0.00000000     0.00000000
 C      1   0   0     2.898010568526     0.00000000     0.00000000
 C      2   1   0     2.880955385762   111.59549479     0.00000000
 H      2   1   3     2.064523968922   108.65959152   241.39604748
 H      2   1   3     2.062723576728   111.32615887   122.32181944
 O      3   2   1     2.378650109945   118.60144394   118.44579200
 O      3   2   1     2.382559766678   116.69439283   303.37508509
 H      1   2   3     2.022024465793   109.47089552   180.00008670
 H      1   2   3     2.022009127296   109.47186238    60.00011054
 H      1   2   3     2.022010730205   109.47130051   299.99920492

---------------------
BASIS SET INFORMATION
---------------------
There are 3 groups of distinct atoms

 Group   1 Type C   : 8s4p2d contracted to 4s2p2d pattern {5111/31/11}
 Group   2 Type H   : 4s2p contracted to 2s2p pattern {31/11}
 Group   3 Type O   : 8s5p2d contracted to 4s3p2d pattern {5111/311/11}

Atom   0C    basis set group =>   1
Atom   1C    basis set group =>   1
Atom   2C    basis set group =>   1
Atom   3H    basis set group =>   2
Atom   4H    basis set group =>   2
Atom   5O    basis set group =>   3
Atom   6O    basis set group =>   3
Atom   7H    basis set group =>   2
Atom   8H    basis set group =>   2
Atom   9H    basis set group =>   2
---------------------------------
AUXILIARY/J BASIS SET INFORMATION
---------------------------------
There are 3 groups of distinct atoms

 Group   1 Type C   : 12s5p4d2f1g contracted to 6s4p3d1f1g pattern {711111/2111/211/2/1}
 Group   2 Type H   : 5s2p1d contracted to 3s1p1d pattern {311/2/1}
 Group   3 Type O   : 12s5p4d2f1g contracted to 6s4p3d1f1g pattern {711111/2111/211/2/1}

Atom   0C    basis set group =>   1
Atom   1C    basis set group =>   1
Atom   2C    basis set group =>   1
Atom   3H    basis set group =>   2
Atom   4H    basis set group =>   2
Atom   5O    basis set group =>   3
Atom   6O    basis set group =>   3
Atom   7H    basis set group =>   2
Atom   8H    basis set group =>   2
Atom   9H    basis set group =>   2


           ************************************************************
           *        Program running with 4 parallel MPI-processes     *
           *              working on a common directory               *
           ************************************************************
------------------------------------------------------------------------------
                           ORCA GTO INTEGRAL CALCULATION
                           -- RI-GTO INTEGRALS CHOSEN --
------------------------------------------------------------------------------
------------------------------------------------------------------------------
                   ___                                                        
                  /   \      - P O W E R E D   B Y -                         
                 /     \                                                     
                 |  |  |   _    _      __       _____    __    __             
                 |  |  |  | |  | |    /  \     |  _  \  |  |  /  |          
                  \  \/   | |  | |   /    \    | | | |  |  | /  /          
                 / \  \   | |__| |  /  /\  \   | |_| |  |  |/  /          
                |  |  |   |  __  | /  /__\  \  |    /   |      \           
                |  |  |   | |  | | |   __   |  |    \   |  |\   \          
                \     /   | |  | | |  |  |  |  | |\  \  |  | \   \       
                 \___/    |_|  |_| |__|  |__|  |_| \__\ |__|  \__/        
                                                                              
                      - O R C A' S   B I G   F R I E N D -                    
                                      &                                       
                       - I N T E G R A L  F E E D E R -                       
                                                                              
 v1 FN, 2020, v2 2021                                                         
------------------------------------------------------------------------------


Reading SHARK input file SVPD_PBE_A_wt_dlpno_neg.SHARKINP.tmp ... ok
----------------------
SHARK INTEGRAL PACKAGE
----------------------

Number of atoms                             ...     10
Number of basis functions                   ...    146
Number of shells                            ...     62
Maximum angular momentum                    ...      2
Integral batch strategy                     ... SHARK/LIBINT Hybrid
RI-J (if used) integral strategy            ... SPLIT-RIJ (Revised 2003 algorithm where possible)
Printlevel                                  ...      1
Contraction scheme used                     ... SEGMENTED contraction
Coulomb Range Separation                    ... NOT USED
Exchange Range Separation                   ... NOT USED
Finite Nucleus Model                        ... NOT USED
Auxiliary Coulomb fitting basis             ... AVAILABLE
   # of basis functions in Aux-J            ...    300
   # of shells in Aux-J                     ...    100
   Maximum angular momentum in Aux-J        ...      4
Auxiliary J/K fitting basis                 ... NOT available
Auxiliary Correlation fitting basis         ... NOT available
Auxiliary 'external' fitting basis          ... NOT available
Integral threshold                          ...     2.500000e-11
Primitive cut-off                           ...     2.500000e-12
Primitive pair pre-selection threshold      ...     2.500000e-12

Calculating pre-screening integrals         ... done (  0.0 sec) Dimension = 62
Organizing shell pair data                  ... done (  0.0 sec)
Shell pair information
Total number of shell pairs                 ...      1953
Shell pairs after pre-screening             ...      1937
Total number of primitive shell pairs       ...      5333
Primitive shell pairs kept                  ...      4534
          la=0 lb=0:    457 shell pairs
          la=1 lb=0:    655 shell pairs
          la=1 lb=1:    253 shell pairs
          la=2 lb=0:    298 shell pairs
          la=2 lb=1:    219 shell pairs
          la=2 lb=2:     55 shell pairs

Calculating one electron integrals          ... done (  0.0 sec)
Calculating RI/J V-Matrix + Cholesky decomp.... done (  0.0 sec)
Calculating Nuclear repulsion               ... done (  0.0 sec) ENN=    169.191044020877 Eh

SHARK setup successfully completed in   0.2 seconds

Maximum memory used throughout the entire GTOINT-calculation: 8.8 MB


           ************************************************************
           *        Program running with 4 parallel MPI-processes     *
           *              working on a common directory               *
           ************************************************************
-------------------------------------------------------------------------------
                                 ORCA SCF
-------------------------------------------------------------------------------

------------
SCF SETTINGS
------------
Hamiltonian:
 Density Functional     Method          .... DFT(GTOs)
 Exchange Functional    Exchange        .... PBE
   PBE kappa parameter   XKappa         ....  0.804000
   PBE mue parameter    XMuePBE         ....  0.219520
 Correlation Functional Correlation     .... PBE
   PBE beta parameter  CBetaPBE         ....  0.066725
 LDA part of GGA corr.  LDAOpt          .... PW91-LDA
 Gradients option       PostSCFGGA      .... off
   Density functional embedding theory  .... OFF
   NL short-range parameter             ....  6.400000
 RI-approximation to the Coulomb term is turned on
   Number of AuxJ basis functions       .... 300


General Settings:
 Integral files         IntName         .... SVPD_PBE_A_wt_dlpno_neg
 Hartree-Fock type      HFTyp           .... RHF
 Total Charge           Charge          ....   -1
 Multiplicity           Mult            ....    1
 Number of Electrons    NEL             ....   40
 Basis Dimension        Dim             ....  146
 Nuclear Repulsion      ENuc            ....    169.1910440209 Eh

Convergence Acceleration:
 DIIS                   CNVDIIS         .... on
   Start iteration      DIISMaxIt       ....    12
   Startup error        DIISStart       ....  0.200000
   # of expansion vecs  DIISMaxEq       ....     5
   Bias factor          DIISBfac        ....   1.050
   Max. coefficient     DIISMaxC        ....  10.000
 Trust-Rad. Augm. Hess. CNVTRAH         .... auto
   Auto Start mean grad. ratio tolernc. ....  1.125000
   Auto Start start iteration           ....    20
   Auto Start num. interpolation iter.  ....    10
   Max. Number of Micro iterations      ....    16
   Max. Number of Macro iterations      .... Maxiter - #DIIS iter
   Number of Davidson start vectors     ....     2
   Converg. threshold I  (grad. norm)   ....   1.000e-05
   Converg. threshold II (energy diff.) ....   1.000e-08
   Grad. Scal. Fac. for Micro threshold ....   0.100
   Minimum threshold for Micro iter.    ....   0.010
   NR start threshold (gradient norm)   ....   0.001
   Initial trust radius                 ....   0.400
   Minimum AH scaling param. (alpha)    ....   1.000
   Maximum AH scaling param. (alpha)    .... 1000.000
   Orbital update algorithm             .... Taylor
   White noise on init. David. guess    .... on
   Maximum white noise                  ....   0.010
   Quad. conv. algorithm                .... NR
 SOSCF                  CNVSOSCF        .... on
   Start iteration      SOSCFMaxIt      ....   150
   Startup grad/error   SOSCFStart      ....  0.003300
 Level Shifting         CNVShift        .... on
   Level shift para.    LevelShift      ....    0.2500
   Turn off err/grad.   ShiftErr        ....    0.0010
 Zerner damping         CNVZerner       .... off
 Static damping         CNVDamp         .... on
   Fraction old density DampFac         ....    0.7000
   Max. Damping (<1)    DampMax         ....    0.9800
   Min. Damping (>=0)   DampMin         ....    0.0000
   Turn off err/grad.   DampErr         ....    0.1000
 Fernandez-Rico         CNVRico         .... off

SCF Procedure:
 Maximum # iterations   MaxIter         ....   150
 SCF integral mode      SCFMode         .... Direct
   Integral package                     .... SHARK and LIBINT hybrid scheme
 Reset frequency        DirectResetFreq ....    20
 Integral Threshold     Thresh          ....  2.500e-11 Eh
 Primitive CutOff       TCut            ....  2.500e-12 Eh

Convergence Tolerance:
 Convergence Check Mode ConvCheckMode   .... Total+1el-Energy
 Convergence forced     ConvForced      .... 0
 Energy Change          TolE            ....  1.000e-08 Eh
 1-El. energy change                    ....  1.000e-05 Eh
 Orbital Gradient       TolG            ....  1.000e-05
 Orbital Rotation angle TolX            ....  1.000e-05
 DIIS Error             TolErr          ....  5.000e-07


Diagonalization of the overlap matrix:
Smallest eigenvalue                        ... 1.160e-04
Time for diagonalization                   ...    0.007 sec
Threshold for overlap eigenvalues          ... 1.000e-08
Number of eigenvalues below threshold      ... 0
Time for construction of square roots      ...    0.005 sec
Total time needed                          ...    0.012 sec

Time for model grid setup =    0.064 sec

------------------------------
INITIAL GUESS: MODEL POTENTIAL
------------------------------
Loading Hartree-Fock densities                     ... done
Calculating cut-offs                               ... done
Initializing the effective Hamiltonian             ... done
Setting up the integral package (SHARK)            ... done
Starting the Coulomb interaction                   ... done (   0.0 sec)
Reading the grid                                   ... done
Mapping shells                                     ... done
Starting the XC term evaluation                    ... done (   0.1 sec)
  promolecular density results
     # of electrons  =     38.998878340
     EX              =    -33.067157356
     EC              =     -1.282969377
     EX+EC           =    -34.350126734
Transforming the Hamiltonian                       ... done (   0.0 sec)
Diagonalizing the Hamiltonian                      ... done (   0.0 sec)
Back transforming the eigenvectors                 ... done (   0.0 sec)
Now organizing SCF variables                       ... done
                      ------------------
                      INITIAL GUESS DONE (   0.1 sec)
                      ------------------
-------------------
DFT GRID GENERATION
-------------------

General Integration Accuracy     IntAcc      ... 4.388
Radial Grid Type                 RadialGrid  ... OptM3 with GC (2021)
Angular Grid (max. ang.)         AngularGrid ... 4 (Lebedev-302)
Angular grid pruning method      GridPruning ... 4 (adaptive)
Weight generation scheme         WeightScheme... Becke
Basis function cutoff            BFCut       ... 1.0000e-11
Integration weight cutoff        WCut        ... 1.0000e-14
Angular grids for H and He will be reduced by one unit
Partially contracted basis set               ... off
Rotationally invariant grid construction     ... off

Total number of grid points                  ...    48151
Total number of batches                      ...      757
Average number of points per batch           ...       63
Average number of grid points per atom       ...     4815
Time for grid setup =    0.322 sec

--------------
SCF ITERATIONS
--------------
ITER       Energy         Delta-E        Max-DP      RMS-DP      [F,P]     Damp
               ***  Starting incremental Fock matrix formation  ***
  0   -267.0731688969   0.000000000000 0.09776794  0.00437199  0.2784960 0.7000
  1   -267.2171244004  -0.143955503517 0.19438423  0.00392647  0.0901348 0.7000
                               ***Turning on DIIS***
  2   -267.2568754922  -0.039751091820 0.47552128  0.00819341  0.0244526 0.0000
  3   -267.3310381551  -0.074162662841 0.19416343  0.00289888  0.0522290 0.0000
  4   -267.3477181820  -0.016680026904 0.13456513  0.00181741  0.0231928 0.0000
                      *** Initiating the SOSCF procedure ***
                           *** Shutting down DIIS ***
                      *** Re-Reading the Fockian *** 
                      *** Removing any level shift *** 
ITER      Energy       Delta-E        Grad      Rot      Max-DP    RMS-DP
  5   -267.35006963  -0.0023514466  0.001169  0.001169  0.079084  0.001104
               *** Restarting incremental Fock matrix formation ***
  6   -267.35017506  -0.0001054314  0.000488  0.002890  0.085943  0.001307
  7   -267.35018852  -0.0000134648  0.000516  0.001129  0.024983  0.000420
  8   -267.35018836   0.0000001649  0.000419  0.001263  0.028347  0.000470
  9   -267.35019404  -0.0000056850  0.000308  0.000676  0.011073  0.000182
 10   -267.35019155   0.0000024932  0.000368  0.000558  0.014449  0.000233
 11   -267.35019569  -0.0000041370  0.000100  0.000152  0.001103  0.000029
 12   -267.35019525   0.0000004422  0.000146  0.000094  0.002435  0.000042
 13   -267.35019606  -0.0000008170  0.000003  0.000009  0.000180  0.000003
 14   -267.35019606  -0.0000000005  0.000004  0.000003  0.000023  0.000001
                  ***Gradient check signals convergence***
              ***Rediagonalizing the Fockian in SOSCF/NRSCF***

               *****************************************************
               *                     SUCCESS                       *
               *           SCF CONVERGED AFTER  15 CYCLES          *
               *****************************************************


----------------
TOTAL SCF ENERGY
----------------

Total Energy       :         -267.35019607 Eh           -7274.96869 eV

Components:
Nuclear Repulsion  :          169.19104402 Eh            4603.92237 eV
Electronic Energy  :         -436.54124009 Eh          -11878.89105 eV
One Electron Energy:         -707.92949595 Eh          -19263.74093 eV
Two Electron Energy:          271.38825586 Eh            7384.84988 eV

Virial components:
Potential Energy   :         -532.37489950 Eh          -14486.65750 eV
Kinetic Energy     :          265.02470344 Eh            7211.68882 eV
Virial Ratio       :            2.00877463


DFT components:
N(Alpha)           :       20.000222146165 electrons
N(Beta)            :       20.000222146165 electrons
N(Total)           :       40.000444292331 electrons
E(X)               :      -33.863371538068 Eh       
E(C)               :       -1.324092174874 Eh       
E(XC)              :      -35.187463712942 Eh       
DFET-embed. en.    :        0.000000000000 Eh       

---------------
SCF CONVERGENCE
---------------

  Last Energy change         ...   -1.3229e-09  Tolerance :   1.0000e-08
  Last MAX-Density change    ...    2.4733e-05  Tolerance :   1.0000e-07
  Last RMS-Density change    ...    5.5357e-07  Tolerance :   5.0000e-09
  Last Orbital Gradient      ...    5.6731e-07  Tolerance :   1.0000e-05
  Last Orbital Rotation      ...    1.9384e-06  Tolerance :   1.0000e-05

             **** THE GBW FILE WAS UPDATED (SVPD_PBE_A_wt_dlpno_neg.gbw) ****
             **** DENSITY SVPD_PBE_A_wt_dlpno_neg.scfp WAS UPDATED ****
             **** ENERGY FILE WAS UPDATED (SVPD_PBE_A_wt_dlpno_neg.en.tmp) ****
             **** THE GBW FILE WAS UPDATED (SVPD_PBE_A_wt_dlpno_neg.gbw) ****
             **** DENSITY SVPD_PBE_A_wt_dlpno_neg.scfp WAS UPDATED ****
----------------
ORBITAL ENERGIES
----------------

  NO   OCC          E(Eh)            E(eV) 
   0   2.0000     -18.505717      -503.5662 
   1   2.0000     -18.504756      -503.5400 
   2   2.0000      -9.772131      -265.9132 
   3   2.0000      -9.733817      -264.8706 
   4   2.0000      -9.722731      -264.5690 
   5   2.0000      -0.723825       -19.6963 
   6   2.0000      -0.634019       -17.2525 
   7   2.0000      -0.528543       -14.3824 
   8   2.0000      -0.405961       -11.0468 
   9   2.0000      -0.266281        -7.2459 
  10   2.0000      -0.243865        -6.6359 
  11   2.0000      -0.207785        -5.6541 
  12   2.0000      -0.184181        -5.0118 
  13   2.0000      -0.167165        -4.5488 
  14   2.0000      -0.159880        -4.3506 
  15   2.0000      -0.131262        -3.5718 
  16   2.0000      -0.120315        -3.2739 
  17   2.0000      -0.013374        -0.3639 
  18   2.0000      -0.000189        -0.0051 
  19   2.0000       0.018377         0.5001 
  20   0.0000       0.139279         3.7900 
  21   0.0000       0.172462         4.6929 
  22   0.0000       0.186634         5.0786 
  23   0.0000       0.198029         5.3886 
  24   0.0000       0.214122         5.8266 
  25   0.0000       0.228125         6.2076 
  26   0.0000       0.236860         6.4453 
  27   0.0000       0.244311         6.6480 
  28   0.0000       0.252934         6.8827 
  29   0.0000       0.256514         6.9801 
  30   0.0000       0.276285         7.5181 
  31   0.0000       0.285314         7.7638 
  32   0.0000       0.290736         7.9113 
  33   0.0000       0.303490         8.2584 
  34   0.0000       0.314189         8.5495 
  35   0.0000       0.328064         8.9271 
  36   0.0000       0.333121         9.0647 
  37   0.0000       0.374333        10.1861 
  38   0.0000       0.391555        10.6548 
  39   0.0000       0.399481        10.8704 
  40   0.0000       0.405816        11.0428 
  41   0.0000       0.423497        11.5239 
  42   0.0000       0.439583        11.9617 
  43   0.0000       0.447673        12.1818 
  44   0.0000       0.463274        12.6063 
  45   0.0000       0.466636        12.6978 
  46   0.0000       0.476671        12.9709 
  47   0.0000       0.479336        13.0434 
  48   0.0000       0.487664        13.2700 
  49   0.0000       0.498440        13.5632 
  50   0.0000       0.515905        14.0385 
  51   0.0000       0.528149        14.3717 
  52   0.0000       0.534812        14.5530 
  53   0.0000       0.544085        14.8053 
  54   0.0000       0.555695        15.1212 
  55   0.0000       0.578525        15.7425 
  56   0.0000       0.592206        16.1147 
  57   0.0000       0.597486        16.2584 
  58   0.0000       0.619679        16.8623 
  59   0.0000       0.620525        16.8853 
  60   0.0000       0.628575        17.1044 
  61   0.0000       0.628875        17.1126 
  62   0.0000       0.644855        17.5474 
  63   0.0000       0.652458        17.7543 
  64   0.0000       0.664321        18.0771 
  65   0.0000       0.675631        18.3848 
  66   0.0000       0.688172        18.7261 
  67   0.0000       0.696480        18.9522 
  68   0.0000       0.723553        19.6889 
  69   0.0000       0.727849        19.8058 
  70   0.0000       0.766863        20.8674 
  71   0.0000       0.780167        21.2294 
  72   0.0000       0.798706        21.7339 
  73   0.0000       0.819161        22.2905 
  74   0.0000       0.835992        22.7485 
  75   0.0000       0.854708        23.2578 
  76   0.0000       0.860307        23.4101 
  77   0.0000       0.867885        23.6164 
  78   0.0000       0.883929        24.0529 
  79   0.0000       0.909784        24.7565 
  80   0.0000       0.951181        25.8829 
  81   0.0000       0.984329        26.7850 
  82   0.0000       1.010499        27.4971 
  83   0.0000       1.044174        28.4134 
  84   0.0000       1.062040        28.8996 
  85   0.0000       1.096235        29.8301 
  86   0.0000       1.108590        30.1663 
  87   0.0000       1.119157        30.4538 
  88   0.0000       1.143384        31.1131 
  89   0.0000       1.150543        31.3079 
  90   0.0000       1.165398        31.7121 
  91   0.0000       1.203953        32.7612 
  92   0.0000       1.232192        33.5297 
  93   0.0000       1.285737        34.9867 
  94   0.0000       1.326119        36.0855 
  95   0.0000       1.375306        37.4240 
  96   0.0000       1.415932        38.5295 
  97   0.0000       1.462528        39.7974 
  98   0.0000       1.632452        44.4213 
  99   0.0000       1.640433        44.6385 
 100   0.0000       1.665545        45.3218 
 101   0.0000       1.678379        45.6710 
 102   0.0000       1.691923        46.0396 
 103   0.0000       1.721789        46.8523 
 104   0.0000       1.770724        48.1839 
 105   0.0000       1.786073        48.6015 
 106   0.0000       1.819350        49.5070 
 107   0.0000       1.829822        49.7920 
 108   0.0000       1.881596        51.2008 
 109   0.0000       1.950625        53.0792 
 110   0.0000       1.964963        53.4694 
 111   0.0000       2.005342        54.5681 
 112   0.0000       2.015676        54.8493 
 113   0.0000       2.057170        55.9784 
 114   0.0000       2.084305        56.7168 
 115   0.0000       2.113230        57.5039 
 116   0.0000       2.146628        58.4127 
 117   0.0000       2.160714        58.7960 
 118   0.0000       2.179241        59.3002 
 119   0.0000       2.214057        60.2476 
 120   0.0000       2.256393        61.3996 
 121   0.0000       2.319457        63.1156 
 122   0.0000       2.365942        64.3806 
 123   0.0000       2.418776        65.8182 
 124   0.0000       2.440647        66.4134 
 125   0.0000       2.555439        69.5370 
 126   0.0000       2.593548        70.5740 
 127   0.0000       2.651859        72.1608 
 128   0.0000       2.698761        73.4370 
 129   0.0000       2.748615        74.7936 
 130   0.0000       2.795416        76.0671 
 131   0.0000       2.993996        81.4708 
 132   0.0000       2.995513        81.5121 
 133   0.0000       3.006604        81.8139 
 134   0.0000       3.038049        82.6695 
 135   0.0000       3.088114        84.0318 
 136   0.0000       3.104517        84.4782 
 137   0.0000       3.156474        85.8920 
 138   0.0000       3.180436        86.5441 
 139   0.0000       3.212676        87.4214 
 140   0.0000       3.230067        87.8946 
 141   0.0000       3.334653        90.7405 
 142   0.0000       3.409071        92.7655 
 143   0.0000       3.579183        97.3945 
 144   0.0000       3.816359       103.8484 
 145   0.0000       3.926645       106.8494 

                    ********************************
                    * MULLIKEN POPULATION ANALYSIS *
                    ********************************

-----------------------
MULLIKEN ATOMIC CHARGES
-----------------------
   0 C :    0.539408
   1 C :   -0.316374
   2 C :    0.379889
   3 H :    0.003581
   4 H :   -0.054609
   5 O :   -0.654102
   6 O :   -0.690922
   7 H :   -0.090388
   8 H :   -0.032277
   9 H :   -0.084204
Sum of atomic charges:   -1.0000000

--------------------------------
MULLIKEN REDUCED ORBITAL CHARGES
--------------------------------
  0 C s       :     2.548737  s :     2.548737
      pz      :     0.993773  p :     2.758525
      px      :     0.909170
      py      :     0.855582
      dz2     :     0.076230  d :     0.153330
      dxz     :     0.068832
      dyz     :     0.002998
      dx2y2   :    -0.005212
      dxy     :     0.010482
  1 C s       :     2.870238  s :     2.870238
      pz      :     1.025053  p :     3.008252
      px      :     0.913611
      py      :     1.069588
      dz2     :     0.103606  d :     0.437885
      dxz     :     0.132441
      dyz     :     0.059931
      dx2y2   :     0.088302
      dxy     :     0.053605
  2 C s       :     2.960605  s :     2.960605
      pz      :     0.759478  p :     2.453087
      px      :     0.836486
      py      :     0.857123
      dz2     :     0.028454  d :     0.206419
      dxz     :     0.031409
      dyz     :     0.025792
      dx2y2   :     0.079427
      dxy     :     0.041337
  3 H s       :     0.955686  s :     0.955686
      pz      :     0.033141  p :     0.040733
      px      :     0.002682
      py      :     0.004910
  4 H s       :     0.978896  s :     0.978896
      pz      :    -0.005079  p :     0.075713
      px      :     0.074908
      py      :     0.005883
  5 O s       :     3.863870  s :     3.863870
      pz      :     1.597553  p :     4.760079
      px      :     1.693386
      py      :     1.469140
      dz2     :     0.004993  d :     0.030154
      dxz     :     0.005786
      dyz     :     0.007918
      dx2y2   :     0.008339
      dxy     :     0.003117
  6 O s       :     3.887515  s :     3.887515
      pz      :     1.581936  p :     4.777423
      px      :     1.292452
      py      :     1.903035
      dz2     :     0.005054  d :     0.025985
      dxz     :     0.011529
      dyz     :     0.002541
      dx2y2   :     0.002970
      dxy     :     0.003891
  7 H s       :     1.049824  s :     1.049824
      pz      :     0.005802  p :     0.040564
      px      :    -0.003616
      py      :     0.038378
  8 H s       :     0.967884  s :     0.967884
      pz      :    -0.003109  p :     0.064392
      px      :     0.077189
      py      :    -0.009688
  9 H s       :     1.030232  s :     1.030232
      pz      :     0.034287  p :     0.053973
      px      :    -0.002048
      py      :     0.021734


                     *******************************
                     * LOEWDIN POPULATION ANALYSIS *
                     *******************************

----------------------
LOEWDIN ATOMIC CHARGES
----------------------
   0 C :    0.098541
   1 C :   -0.046118
   2 C :   -0.326700
   3 H :    0.005671
   4 H :   -0.002801
   5 O :   -0.316885
   6 O :   -0.312160
   7 H :   -0.046233
   8 H :   -0.029989
   9 H :   -0.023326

-------------------------------
LOEWDIN REDUCED ORBITAL CHARGES
-------------------------------
  0 C s       :     2.712739  s :     2.712739
      pz      :     0.912725  p :     2.757584
      px      :     0.937204
      py      :     0.907655
      dz2     :     0.122984  d :     0.431136
      dxz     :     0.092366
      dyz     :     0.084656
      dx2y2   :     0.068371
      dxy     :     0.062759
  1 C s       :     2.703053  s :     2.703053
      pz      :     0.884974  p :     2.696909
      px      :     0.904823
      py      :     0.907112
      dz2     :     0.137028  d :     0.646156
      dxz     :     0.110158
      dyz     :     0.157218
      dx2y2   :     0.140658
      dxy     :     0.101094
  2 C s       :     2.676015  s :     2.676015
      pz      :     0.674847  p :     2.452853
      px      :     0.901478
      py      :     0.876527
      dz2     :     0.114683  d :     1.197832
      dxz     :     0.207130
      dyz     :     0.156685
      dx2y2   :     0.358647
      dxy     :     0.360686
  3 H s       :     0.728308  s :     0.728308
      pz      :     0.092830  p :     0.266022
      px      :     0.087306
      py      :     0.085886
  4 H s       :     0.731912  s :     0.731912
      pz      :     0.067060  p :     0.270889
      px      :     0.125528
      py      :     0.078301
  5 O s       :     3.478114  s :     3.478114
      pz      :     1.451831  p :     4.608555
      px      :     1.621668
      py      :     1.535056
      dz2     :     0.028544  d :     0.230215
      dxz     :     0.025476
      dyz     :     0.031070
      dx2y2   :     0.084177
      dxy     :     0.060947
  6 O s       :     3.473803  s :     3.473803
      pz      :     1.452200  p :     4.604944
      px      :     1.447601
      py      :     1.705143
      dz2     :     0.029444  d :     0.233413
      dxz     :     0.055630
      dyz     :     0.009167
      dx2y2   :     0.056572
      dxy     :     0.082600
  7 H s       :     0.753143  s :     0.753143
      pz      :     0.076804  p :     0.293090
      px      :     0.092157
      py      :     0.124129
  8 H s       :     0.730724  s :     0.730724
      pz      :     0.074298  p :     0.299265
      px      :     0.140800
      py      :     0.084168
  9 H s       :     0.741530  s :     0.741530
      pz      :     0.099933  p :     0.281797
      px      :     0.087663
      py      :     0.094201


                      *****************************
                      * MAYER POPULATION ANALYSIS *
                      *****************************

  NA   - Mulliken gross atomic population
  ZA   - Total nuclear charge
  QA   - Mulliken gross atomic charge
  VA   - Mayer's total valence
  BVA  - Mayer's bonded valence
  FA   - Mayer's free valence

  ATOM       NA         ZA         QA         VA         BVA        FA
  0 C      5.4606     6.0000     0.5394     4.1132     4.1132    -0.0000
  1 C      6.3164     6.0000    -0.3164     4.9089     4.9089    -0.0000
  2 C      5.6201     6.0000     0.3799     4.2624     4.2624    -0.0000
  3 H      0.9964     1.0000     0.0036     1.0877     1.0877    -0.0000
  4 H      1.0546     1.0000    -0.0546     1.2208     1.2208    -0.0000
  5 O      8.6541     8.0000    -0.6541     1.5071     1.5071    -0.0000
  6 O      8.6909     8.0000    -0.6909     1.6024     1.6024    -0.0000
  7 H      1.0904     1.0000    -0.0904     1.0633     1.0633    -0.0000
  8 H      1.0323     1.0000    -0.0323     1.1000     1.1000    -0.0000
  9 H      1.0842     1.0000    -0.0842     1.0832     1.0832    -0.0000

  Mayer bond orders larger than 0.100000
B(  0-C ,  1-C ) :   1.3255 B(  0-C ,  4-H ) :   0.1012 B(  0-C ,  7-H ) :   0.8483 
B(  0-C ,  8-H ) :   0.8275 B(  0-C ,  9-H ) :   0.8496 B(  1-C ,  2-C ) :   1.0753 
B(  1-C ,  3-H ) :   0.8788 B(  1-C ,  4-H ) :   0.9735 B(  1-C ,  7-H ) :   0.1696 
B(  1-C ,  8-H ) :   0.2028 B(  1-C ,  9-H ) :   0.1784 B(  2-C ,  4-H ) :   0.1751 
B(  2-C ,  5-O ) :   1.4475 B(  2-C ,  6-O ) :   1.4782 

-------
TIMINGS
-------

Total SCF time: 0 days 0 hours 0 min 4 sec 

Total time                  ....       4.102 sec
Sum of individual times     ....       3.956 sec  ( 96.4%)

Fock matrix formation       ....       3.383 sec  ( 82.5%)
  Split-RI-J                ....       0.682 sec  ( 20.1% of F)
  XC integration            ....       2.668 sec  ( 78.8% of F)
    Basis function eval.    ....       0.901 sec  ( 33.8% of XC)
    Density eval.           ....       0.591 sec  ( 22.2% of XC)
    XC-Functional eval.     ....       0.189 sec  (  7.1% of XC)
    XC-Potential eval.      ....       0.856 sec  ( 32.1% of XC)
Diagonalization             ....       0.032 sec  (  0.8%)
Density matrix formation    ....       0.004 sec  (  0.1%)
Population analysis         ....       0.006 sec  (  0.1%)
Initial guess               ....       0.085 sec  (  2.1%)
Orbital Transformation      ....       0.000 sec  (  0.0%)
Orbital Orthonormalization  ....       0.000 sec  (  0.0%)
DIIS solution               ....       0.021 sec  (  0.5%)
SOSCF solution              ....       0.038 sec  (  0.9%)
Grid generation             ....       0.386 sec  (  9.4%)

Maximum memory used throughout the entire SCF-calculation: 15.7 MB


-------------------------------------------------------------------------------
                          DFT DISPERSION CORRECTION                            
                                                                               
                              DFTD3 V3.1  Rev 1                                
                          USING Becke-Johnson damping                          
-------------------------------------------------------------------------------
The PBE functional is recognized
Active option DFTDOPT                   ...         4   

molecular C6(AA) [au] = 865.589696 


            DFT-D V3
 parameters
 s6 scaling factor         :     1.0000 
 a1 scaling factor         :     0.4289 
 s8 scaling factor         :     0.7875 
 a2 scaling factor         :     4.4407 
 ad hoc parameters k1-k3   :    16.0000     1.3333    -4.0000 

 Edisp/kcal,au: -4.113013722319  -0.006554503882 
 E6   /kcal   :  -2.942352449 
 E8   /kcal   :  -1.170661273 
 % E8         :  28.462372176 

-------------------------   ----------------
Dispersion correction           -0.006554504
-------------------------   ----------------


-------------------------   --------------------
FINAL SINGLE POINT ENERGY      -267.356750569191
-------------------------   --------------------


                            ***************************************
                            *     ORCA property calculations      *
                            ***************************************

                                    ---------------------
                                    Active property flags
                                    ---------------------
   (+) Dipole Moment


------------------------------------------------------------------------------
                       ORCA ELECTRIC PROPERTIES CALCULATION
------------------------------------------------------------------------------

Dipole Moment Calculation                       ... on
Quadrupole Moment Calculation                   ... off
Polarizability Calculation                      ... off
GBWName                                         ... SVPD_PBE_A_wt_dlpno_neg.gbw
Electron density file                           ... SVPD_PBE_A_wt_dlpno_neg.scfp
The origin for moment calculation is the CENTER OF MASS  = ( 0.511274,  0.221916 -9.571237)

-------------
DIPOLE MOMENT
-------------
                                X             Y             Z
Electronic contribution:      1.76874      -5.36531      -1.70400
Nuclear contribution   :     -2.46071       7.20791       1.95694
                        -----------------------------------------
Total Dipole Moment    :     -0.69198       1.84260       0.25293
                        -----------------------------------------
Magnitude (a.u.)       :      1.98444
Magnitude (Debye)      :      5.04404



--------------------
Rotational spectrum 
--------------------
 
Rotational constants in cm-1:     0.309435     0.135317     0.107436 
Rotational constants in MHz :  9276.637721  4056.700783  3220.846587 

 Dipole components along the rotational axes: 
x,y,z [a.u.] :    -1.917495    -0.419450     0.292009 
x,y,z [Debye]:    -4.873884    -1.066156     0.742227 

 

Timings for individual modules:

Sum of individual times         ...        6.793 sec (=   0.113 min)
GTO integral calculation        ...        2.273 sec (=   0.038 min)  33.5 %
SCF iterations                  ...        4.520 sec (=   0.075 min)  66.5 %
                             ****ORCA TERMINATED NORMALLY****
TOTAL RUN TIME: 0 days 0 hours 0 minutes 7 seconds 404 msec
