
                                        *****************
                                        * O   R   C   A *
                                        *****************

                                            #,                                       
                                            ###                                      
                                            ####                                     
                                            #####                                    
                                            ######                                   
                                           ########,                                 
                                     ,,################,,,,,                         
                               ,,#################################,,                 
                          ,,##########################################,,             
                       ,#########################################, ''#####,          
                    ,#############################################,,   '####,        
                  ,##################################################,,,,####,       
                ,###########''''           ''''###############################       
              ,#####''   ,,,,##########,,,,          '''####'''          '####       
            ,##' ,,,,###########################,,,                        '##       
           ' ,,###''''                  '''############,,,                           
         ,,##''                                '''############,,,,        ,,,,,,###''
      ,#''                                            '''#######################'''  
     '                                                          ''''####''''         
             ,#######,   #######,   ,#######,      ##                                
            ,#'     '#,  ##    ##  ,#'     '#,    #''#        ######   ,####,        
            ##       ##  ##   ,#'  ##            #'  '#       #        #'  '#        
            ##       ##  #######   ##           ,######,      #####,   #    #        
            '#,     ,#'  ##    ##  '#,     ,#' ,#      #,         ##   #,  ,#        
             '#######'   ##     ##  '#######'  #'      '#     #####' # '####'        



                  #######################################################
                  #                        -***-                        #
                  #          Department of theory and spectroscopy      #
                  #    Directorship and core code : Frank Neese         #
                  #        Max Planck Institute fuer Kohlenforschung    #
                  #                Kaiser Wilhelm Platz 1               #
                  #                 D-45470 Muelheim/Ruhr               #
                  #                      Germany                        #
                  #                                                     #
                  #                  All rights reserved                #
                  #                        -***-                        #
                  #######################################################


                         Program Version 5.0.0 -  RELEASE  -
                                (SVN: $Rev: 19529$)
                ($Date: 2021-06-28 11:36:33 +0200 (Mo, 28 Jun 2021) $)


 With contributions from (in alphabetic order):
   Daniel Aravena         : Magnetic Suceptibility
   Michael Atanasov       : Ab Initio Ligand Field Theory (pilot matlab implementation)
   Alexander A. Auer      : GIAO ZORA, VPT2 properties, NMR spectrum
   Ute Becker             : Parallelization
   Giovanni Bistoni       : ED, misc. LED, open-shell LED, HFLD
   Martin Brehm           : Molecular dynamics
   Dmytro Bykov           : SCF Hessian
   Vijay G. Chilkuri      : MRCI spin determinant printing, contributions to CSF-ICE
   Dipayan Datta          : RHF DLPNO-CCSD density
   Achintya Kumar Dutta   : EOM-CC, STEOM-CC
   Dmitry Ganyushin       : Spin-Orbit,Spin-Spin,Magnetic field MRCI
   Miquel Garcia          : C-PCM Hessian, Gaussian charge scheme
   Yang Guo               : DLPNO-NEVPT2, F12-NEVPT2, CIM, IAO-localization
   Andreas Hansen         : Spin unrestricted coupled pair/coupled cluster methods
   Benjamin Helmich-Paris : MC-RPA, TRAH-SCF, COSX integrals
   Lee Huntington         : MR-EOM, pCC
   Robert Izsak           : Overlap fitted RIJCOSX, COSX-SCS-MP3, EOM
   Marcus Kettner         : VPT2
   Christian Kollmar      : KDIIS, OOCD, Brueckner-CCSD(T), CCSD density, CASPT2, CASPT2-K
   Simone Kossmann        : Meta GGA functionals, TD-DFT gradient, OOMP2, MP2 Hessian
   Martin Krupicka        : Initial AUTO-CI
   Lucas Lang             : DCDCAS
   Marvin Lechner         : AUTO-CI (C++ implementation), FIC-MRCC
   Dagmar Lenk            : GEPOL surface, SMD
   Dimitrios Liakos       : Extrapolation schemes; Compound Job, initial MDCI parallelization
   Dimitrios Manganas     : Further ROCIS development; embedding schemes
   Dimitrios Pantazis     : SARC Basis sets
   Anastasios Papadopoulos: AUTO-CI, single reference methods and gradients
   Taras Petrenko         : DFT Hessian,TD-DFT gradient, ASA, ECA, R-Raman, ABS, FL, XAS/XES, NRVS
   Peter Pinski           : DLPNO-MP2, DLPNO-MP2 Gradient
   Christoph Reimann      : Effective Core Potentials
   Marius Retegan         : Local ZFS, SOC
   Christoph Riplinger    : Optimizer, TS searches, QM/MM, DLPNO-CCSD(T), (RO)-DLPNO pert. Triples
   Tobias Risthaus        : Range-separated hybrids, TD-DFT gradient, RPA, STAB
   Michael Roemelt        : Original ROCIS implementation
   Masaaki Saitow         : Open-shell DLPNO-CCSD energy and density
   Barbara Sandhoefer     : DKH picture change effects
   Avijit Sen             : IP-ROCIS
   Kantharuban Sivalingam : CASSCF convergence, NEVPT2, FIC-MRCI
   Bernardo de Souza      : ESD, SOC TD-DFT
   Georgi Stoychev        : AutoAux, RI-MP2 NMR
   Willem Van den Heuvel  : Paramagnetic NMR
   Boris Wezisla          : Elementary symmetry handling
   Frank Wennmohs         : Technical directorship


 We gratefully acknowledge several colleagues who have allowed us to
 interface, adapt or use parts of their codes:
   Stefan Grimme, W. Hujo, H. Kruse, P. Pracht,  : VdW corrections, initial TS optimization,
                  C. Bannwarth, S. Ehlert          DFT functionals, gCP, sTDA/sTD-DF
   Ed Valeev, F. Pavosevic, A. Kumar             : LibInt (2-el integral package), F12 methods
   Garnet Chan, S. Sharma, J. Yang, R. Olivares  : DMRG
   Ulf Ekstrom                                   : XCFun DFT Library
   Mihaly Kallay                                 : mrcc  (arbitrary order and MRCC methods)
   Jiri Pittner, Ondrej Demel                    : Mk-CCSD
   Frank Weinhold                                : gennbo (NPA and NBO analysis)
   Christopher J. Cramer and Donald G. Truhlar   : smd solvation model
   Lars Goerigk                                  : TD-DFT with DH, B97 family of functionals
   V. Asgeirsson, H. Jonsson                     : NEB implementation
   FAccTs GmbH                                   : IRC, NEB, NEB-TS, DLPNO-Multilevel, CI-OPT
                                                   MM, QMMM, 2- and 3-layer-ONIOM, Crystal-QMMM,
                                                   LR-CPCM, SF, NACMEs, symmetry and pop. for TD-DFT,
                                                   nearIR, NL-DFT gradient (VV10), updates on ESD,
                                                   ML-optimized integration grids
   S Lehtola, MJT Oliveira, MAL Marques          : LibXC Library
   Liviu Ungur et al                             : ANISO software


 Your calculation uses the libint2 library for the computation of 2-el integrals
 For citations please refer to: http://libint.valeyev.net

 Your ORCA version has been built with support for libXC version: 5.1.0
 For citations please refer to: https://tddft.org/programs/libxc/

 This ORCA versions uses:
   CBLAS   interface :  Fast vector & matrix operations
   LAPACKE interface :  Fast linear algebra routines
   SCALAPACK package :  Parallel linear algebra routines
   Shared memory     :  Shared parallel matrices
   BLAS/LAPACK       :  OpenBLAS 0.3.15  USE64BITINT DYNAMIC_ARCH NO_AFFINITY Haswell SINGLE_THREADED
        Core in use  :  Haswell
   Copyright (c) 2011-2014, The OpenBLAS Project


Your calculation utilizes the atom-pairwise dispersion correction
with the zero-damping scheme (D30)
Cite in your paper:
S.Grimme, J.Antony, S.Ehrlich and H.Krieg, J.Chem.Phys., 132, (2010), 154104 
   

XCFun DFT library Copyright 2009-2010 Ulf Ekstrom and contributors.
See http://admol.org/xcfun for more information.
This is free software; see the source code for copying conditions.
There is ABSOLUTELY NO WARRANTY; not even for MERCHANTABILITY or FITNESS FOR A PARTICULAR PURPOSE.
For details see the documentation.
Scientific users of this library should cite U. Ekstrom, L. Visscher, R. Bast, A. J. Thorvaldsen and K. Ruud;
J.Chem.Theor.Comp. 2010, DOI: 10.1021/ct100117s
XCFun Version 0.99 

================================================================================

----- Orbital basis set information -----
Your calculation utilizes the basis: def2-TZVPD
   F. Weigend and R. Ahlrichs, Phys. Chem. Chem. Phys. 7, 3297 (2005).
   D. Rappoport and F. Furche, J. Chem. Phys. 133 134105 (2010).

----- AuxJ basis set information -----
Your calculation utilizes the auxiliary basis: def2/J
   F. Weigend, Phys. Chem. Chem. Phys. 8, 1057 (2006).

================================================================================
                                        WARNINGS
                       Please study these warnings very carefully!
================================================================================


INFO   : the flag for use of the SHARK integral package has been found!

================================================================================
                                       INPUT FILE
================================================================================
NAME = TZVPD_wB97XD3_C1_wt_dlpno_neg.com
|  1> !wB97X-D3 RIJCOSX def2-TZVPD def2/J TightSCF
|  2> *xyz 0 1
|  3> C          0.61188        1.65763       -4.50029
|  4> C          1.69499        1.54179       -5.57045
|  5> H          2.69733        1.73466       -5.18400
|  6> H          1.50666        2.27224       -6.35808
|  7> S          1.78029       -0.03313       -6.42874
|  8> F          2.56929        0.21366       -7.60736
|  9> O          0.41688       -0.46297       -6.61859
| 10> O          2.50513       -0.93326       -5.48257
| 11> H         -0.34424        1.45871       -4.93752
| 12> H          0.61845        2.64655       -4.09174
| 13> H          0.80247        0.94882       -3.72173
| 14> *
| 15> %MaxCore 64000
| 16> 
| 17> %pal nprocs 4
| 18> end  
| 19> 
| 20> %scf
| 21>   MaxIter 150
| 22> end
| 23> 
| 24> 
| 25>                          ****END OF INPUT****
================================================================================

                       ****************************
                       * Single Point Calculation *
                       ****************************

---------------------------------
CARTESIAN COORDINATES (ANGSTROEM)
---------------------------------
  C      0.611880    1.657630   -4.500290
  C      1.694990    1.541790   -5.570450
  H      2.697330    1.734660   -5.184000
  H      1.506660    2.272240   -6.358080
  S      1.780290   -0.033130   -6.428740
  F      2.569290    0.213660   -7.607360
  O      0.416880   -0.462970   -6.618590
  O      2.505130   -0.933260   -5.482570
  H     -0.344240    1.458710   -4.937520
  H      0.618450    2.646550   -4.091740
  H      0.802470    0.948820   -3.721730

----------------------------
CARTESIAN COORDINATES (A.U.)
----------------------------
  NO LB      ZA    FRAG     MASS         X           Y           Z
   0 C     6.0000    0    12.011    1.156286    3.132467   -8.504316
   1 C     6.0000    0    12.011    3.203067    2.913561  -10.526625
   2 H     1.0000    0     1.008    5.097215    3.278032   -9.796340
   3 H     1.0000    0     1.008    2.847175    4.293911  -12.015030
   4 S    16.0000    0    32.060    3.364261   -0.062607  -12.148558
   5 F     9.0000    0    18.998    4.855254    0.403759  -14.375827
   6 O     8.0000    0    15.999    0.787789   -0.874887  -12.507322
   7 O     8.0000    0    15.999    4.734010   -1.763606  -10.360556
   8 H     1.0000    0     1.008   -0.650519    2.756562   -9.330561
   9 H     1.0000    0     1.008    1.168701    5.001255   -7.732268
  10 H     1.0000    0     1.008    1.516449    1.793010   -7.033050

--------------------------------
INTERNAL COORDINATES (ANGSTROEM)
--------------------------------
 C      0   0   0     0.000000000000     0.00000000     0.00000000
 C      1   0   0     1.527019516345     0.00000000     0.00000000
 H      2   1   0     1.091433880269   112.94513473     0.00000000
 H      2   1   3     1.090589935906   109.44112933   240.64418737
 S      2   1   3     1.795636605914   115.79870243   122.89445723
 F      5   2   1     1.439642805872   105.48605342   163.81980865
 O      5   2   1     1.442113822207   106.22673339    38.41531616
 O      5   2   1     1.493607951037   104.40866289   280.72744689
 H      1   2   3     1.070002193316   109.47107582   179.99958216
 H      1   2   3     1.070008894262   109.47169820    59.99998276
 H      1   2   3     1.069996185881   109.47160243   300.00021220

---------------------------
INTERNAL COORDINATES (A.U.)
---------------------------
 C      0   0   0     0.000000000000     0.00000000     0.00000000
 C      1   0   0     2.885648687046     0.00000000     0.00000000
 H      2   1   0     2.062511126992   112.94513473     0.00000000
 H      2   1   3     2.060916303274   109.44112933   240.64418737
 S      2   1   3     3.393261421222   115.79870243   122.89445723
 F      5   2   1     2.720530633769   105.48605342   163.81980865
 O      5   2   1     2.725200177913   106.22673339    38.41531616
 O      5   2   1     2.822509978907   104.40866289   280.72744689
 H      1   2   3     2.022011108061   109.47107582   179.99958216
 H      1   2   3     2.022023771015   109.47169820    59.99998276
 H      1   2   3     2.021999755655   109.47160243   300.00021220

---------------------
BASIS SET INFORMATION
---------------------
There are 5 groups of distinct atoms

 Group   1 Type C   : 12s6p3d1f contracted to 6s3p3d1f pattern {621111/411/111/1}
 Group   2 Type H   : 5s2p contracted to 3s2p pattern {311/11}
 Group   3 Type S   : 15s10p4d1f contracted to 6s6p3d1f pattern {732111/511111/211/1}
 Group   4 Type F   : 12s7p3d1f contracted to 6s4p3d1f pattern {621111/4111/111/1}
 Group   5 Type O   : 12s7p3d1f contracted to 6s4p3d1f pattern {621111/4111/111/1}

Atom   0C    basis set group =>   1
Atom   1C    basis set group =>   1
Atom   2H    basis set group =>   2
Atom   3H    basis set group =>   2
Atom   4S    basis set group =>   3
Atom   5F    basis set group =>   4
Atom   6O    basis set group =>   5
Atom   7O    basis set group =>   5
Atom   8H    basis set group =>   2
Atom   9H    basis set group =>   2
Atom  10H    basis set group =>   2
---------------------------------
AUXILIARY/J BASIS SET INFORMATION
---------------------------------
There are 5 groups of distinct atoms

 Group   1 Type C   : 12s5p4d2f1g contracted to 6s4p3d1f1g pattern {711111/2111/211/2/1}
 Group   2 Type H   : 5s2p1d contracted to 3s1p1d pattern {311/2/1}
 Group   3 Type S   : 14s5p5d2f1g contracted to 8s4p3d1f1g pattern {71111111/2111/311/2/1}
 Group   4 Type F   : 12s5p4d2f1g contracted to 6s4p3d1f1g pattern {711111/2111/211/2/1}
 Group   5 Type O   : 12s5p4d2f1g contracted to 6s4p3d1f1g pattern {711111/2111/211/2/1}

Atom   0C    basis set group =>   1
Atom   1C    basis set group =>   1
Atom   2H    basis set group =>   2
Atom   3H    basis set group =>   2
Atom   4S    basis set group =>   3
Atom   5F    basis set group =>   4
Atom   6O    basis set group =>   5
Atom   7O    basis set group =>   5
Atom   8H    basis set group =>   2
Atom   9H    basis set group =>   2
Atom  10H    basis set group =>   2


           ************************************************************
           *        Program running with 4 parallel MPI-processes     *
           *              working on a common directory               *
           ************************************************************
------------------------------------------------------------------------------
                           ORCA GTO INTEGRAL CALCULATION
                           -- RI-GTO INTEGRALS CHOSEN --
------------------------------------------------------------------------------
------------------------------------------------------------------------------
                   ___                                                        
                  /   \      - P O W E R E D   B Y -                         
                 /     \                                                     
                 |  |  |   _    _      __       _____    __    __             
                 |  |  |  | |  | |    /  \     |  _  \  |  |  /  |          
                  \  \/   | |  | |   /    \    | | | |  |  | /  /          
                 / \  \   | |__| |  /  /\  \   | |_| |  |  |/  /          
                |  |  |   |  __  | /  /__\  \  |    /   |      \           
                |  |  |   | |  | | |   __   |  |    \   |  |\   \          
                \     /   | |  | | |  |  |  |  | |\  \  |  | \   \       
                 \___/    |_|  |_| |__|  |__|  |_| \__\ |__|  \__/        
                                                                              
                      - O R C A' S   B I G   F R I E N D -                    
                                      &                                       
                       - I N T E G R A L  F E E D E R -                       
                                                                              
 v1 FN, 2020, v2 2021                                                         
------------------------------------------------------------------------------


Reading SHARK input file TZVPD_wB97XD3_C1_wt_dlpno_neg.SHARKINP.tmp ... ok
----------------------
SHARK INTEGRAL PACKAGE
----------------------

Number of atoms                             ...     11
Number of basis functions                   ...    285
Number of shells                            ...    109
Maximum angular momentum                    ...      3
Integral batch strategy                     ... SHARK/LIBINT Hybrid
RI-J (if used) integral strategy            ... SPLIT-RIJ (Revised 2003 algorithm where possible)
Printlevel                                  ...      1
Contraction scheme used                     ... SEGMENTED contraction
Coulomb Range Separation                    ... NOT USED
Exchange Range Separation                   ... Long Range
   Mu parameter                             ...  0.250000
   Scaling (regular/separated)              ...  0.195728  0.804272
Finite Nucleus Model                        ... NOT USED
Auxiliary Coulomb fitting basis             ... AVAILABLE
   # of basis functions in Aux-J            ...    351
   # of shells in Aux-J                     ...    117
   Maximum angular momentum in Aux-J        ...      4
Auxiliary J/K fitting basis                 ... NOT available
Auxiliary Correlation fitting basis         ... NOT available
Auxiliary 'external' fitting basis          ... NOT available
Integral threshold                          ...     2.500000e-11
Primitive cut-off                           ...     2.500000e-12
Primitive pair pre-selection threshold      ...     2.500000e-12

Calculating pre-screening integrals         ... done (  0.1 sec) Dimension = 109
Organizing shell pair data                  ... done (  0.1 sec)
Shell pair information
Total number of shell pairs                 ...      5995
Shell pairs after pre-screening             ...      5730
Total number of primitive shell pairs       ...     16092
Primitive shell pairs kept                  ...     12383
          la=0 lb=0:   1213 shell pairs
          la=1 lb=0:   1666 shell pairs
          la=1 lb=1:    587 shell pairs
          la=2 lb=0:    874 shell pairs
          la=2 lb=1:    604 shell pairs
          la=2 lb=2:    170 shell pairs
          la=3 lb=0:    288 shell pairs
          la=3 lb=1:    200 shell pairs
          la=3 lb=2:    107 shell pairs
          la=3 lb=3:     21 shell pairs

Calculating one electron integrals          ... done (  0.0 sec)
Calculating RI/J V-Matrix + Cholesky decomp.... done (  0.0 sec)
Calculating Nuclear repulsion               ... done (  0.0 sec) ENN=    362.353534773016 Eh

SHARK setup successfully completed in   0.3 seconds

Maximum memory used throughout the entire GTOINT-calculation: 15.3 MB


           ************************************************************
           *        Program running with 4 parallel MPI-processes     *
           *              working on a common directory               *
           ************************************************************
-------------------------------------------------------------------------------
                                 ORCA SCF
-------------------------------------------------------------------------------

------------
SCF SETTINGS
------------
Hamiltonian:
 Density Functional     Method          .... DFT(GTOs)
 Exchange Functional    Exchange        .... WB97X-D3
 Correlation Functional Correlation     .... WB97X-D3
 Gradients option       PostSCFGGA      .... off
 Hybrid DFT is turned on
   Fraction HF Exchange ScalHFX         ....  0.195728
   Scaling of DF-GGA-X  ScalDFX         ....  0.000000
   Scaling of DF-GGA-C  ScalDFC         ....  1.000000
   Scaling of DF-LDA-C  ScalLDAC        ....  1.000000
   Perturbative correction              ....  0.000000
   Density functional embedding theory  .... OFF
 Long-range corrected/Screened/Range-Separated Hybrid DFT is turned on
   Amount of maximum screened exact exchange              ....  0.804272
   Range separation parameter mu (erf(mu*r12)/r12)        ....  0.250000
 RI-approximation to the Coulomb term is turned on
   Number of AuxJ basis functions       .... 351
   RIJ-COSX (HFX calculated with COS-X)).... on


General Settings:
 Integral files         IntName         .... TZVPD_wB97XD3_C1_wt_dlpno_neg
 Hartree-Fock type      HFTyp           .... RHF
 Total Charge           Charge          ....    0
 Multiplicity           Mult            ....    1
 Number of Electrons    NEL             ....   58
 Basis Dimension        Dim             ....  285
 Nuclear Repulsion      ENuc            ....    362.3535347730 Eh

Convergence Acceleration:
 DIIS                   CNVDIIS         .... on
   Start iteration      DIISMaxIt       ....    12
   Startup error        DIISStart       ....  0.200000
   # of expansion vecs  DIISMaxEq       ....     5
   Bias factor          DIISBfac        ....   1.050
   Max. coefficient     DIISMaxC        ....  10.000
 Trust-Rad. Augm. Hess. CNVTRAH         .... auto
   Auto Start mean grad. ratio tolernc. ....  1.125000
   Auto Start start iteration           ....    20
   Auto Start num. interpolation iter.  ....    10
   Max. Number of Micro iterations      ....    16
   Max. Number of Macro iterations      .... Maxiter - #DIIS iter
   Number of Davidson start vectors     ....     2
   Converg. threshold I  (grad. norm)   ....   1.000e-05
   Converg. threshold II (energy diff.) ....   1.000e-08
   Grad. Scal. Fac. for Micro threshold ....   0.100
   Minimum threshold for Micro iter.    ....   0.010
   NR start threshold (gradient norm)   ....   0.001
   Initial trust radius                 ....   0.400
   Minimum AH scaling param. (alpha)    ....   1.000
   Maximum AH scaling param. (alpha)    .... 1000.000
   Orbital update algorithm             .... Taylor
   White noise on init. David. guess    .... on
   Maximum white noise                  ....   0.010
   Quad. conv. algorithm                .... NR
 SOSCF                  CNVSOSCF        .... on
   Start iteration      SOSCFMaxIt      ....   150
   Startup grad/error   SOSCFStart      ....  0.003300
 Level Shifting         CNVShift        .... on
   Level shift para.    LevelShift      ....    0.2500
   Turn off err/grad.   ShiftErr        ....    0.0010
 Zerner damping         CNVZerner       .... off
 Static damping         CNVDamp         .... on
   Fraction old density DampFac         ....    0.7000
   Max. Damping (<1)    DampMax         ....    0.9800
   Min. Damping (>=0)   DampMin         ....    0.0000
   Turn off err/grad.   DampErr         ....    0.1000
 Fernandez-Rico         CNVRico         .... off

SCF Procedure:
 Maximum # iterations   MaxIter         ....   150
 SCF integral mode      SCFMode         .... Direct
   Integral package                     .... SHARK and LIBINT hybrid scheme
 Reset frequency        DirectResetFreq ....    20
 Integral Threshold     Thresh          ....  2.500e-11 Eh
 Primitive CutOff       TCut            ....  2.500e-12 Eh

Convergence Tolerance:
 Convergence Check Mode ConvCheckMode   .... Total+1el-Energy
 Convergence forced     ConvForced      .... 0
 Energy Change          TolE            ....  1.000e-08 Eh
 1-El. energy change                    ....  1.000e-05 Eh
 Orbital Gradient       TolG            ....  1.000e-05
 Orbital Rotation angle TolX            ....  1.000e-05
 DIIS Error             TolErr          ....  5.000e-07


Diagonalization of the overlap matrix:
Smallest eigenvalue                        ... 1.166e-05
Time for diagonalization                   ...    0.019 sec
Threshold for overlap eigenvalues          ... 1.000e-08
Number of eigenvalues below threshold      ... 0
Time for construction of square roots      ...    0.015 sec
Total time needed                          ...    0.035 sec

Time for model grid setup =    0.141 sec

------------------------------
INITIAL GUESS: MODEL POTENTIAL
------------------------------
Loading Hartree-Fock densities                     ... done
Calculating cut-offs                               ... done
Initializing the effective Hamiltonian             ... done
Setting up the integral package (SHARK)            ... done
Starting the Coulomb interaction                   ... done (   0.1 sec)
Reading the grid                                   ... done
Mapping shells                                     ... done
Starting the XC term evaluation                    ... done (   0.2 sec)
  promolecular density results
     # of electrons  =     57.997230054
     EX              =    -63.051721810
     EC              =     -2.063123166
     EX+EC           =    -65.114844975
Transforming the Hamiltonian                       ... done (   0.0 sec)
Diagonalizing the Hamiltonian                      ... done (   0.0 sec)
Back transforming the eigenvectors                 ... done (   0.0 sec)
Now organizing SCF variables                       ... done
                      ------------------
                      INITIAL GUESS DONE (   0.4 sec)
                      ------------------
-------------------
DFT GRID GENERATION
-------------------

General Integration Accuracy     IntAcc      ... 4.388
Radial Grid Type                 RadialGrid  ... OptM3 with GC (2021)
Angular Grid (max. ang.)         AngularGrid ... 4 (Lebedev-302)
Angular grid pruning method      GridPruning ... 4 (adaptive)
Weight generation scheme         WeightScheme... Becke
Basis function cutoff            BFCut       ... 1.0000e-11
Integration weight cutoff        WCut        ... 1.0000e-14
Angular grids for H and He will be reduced by one unit
Partially contracted basis set               ... off
Rotationally invariant grid construction     ... off

Total number of grid points                  ...    56646
Total number of batches                      ...      891
Average number of points per batch           ...       63
Average number of grid points per atom       ...     5150
Time for grid setup =    0.439 sec

--------------------
COSX GRID GENERATION
--------------------

GRIDX 1
-------
General Integration Accuracy     IntAcc      ... 3.816
Radial Grid Type                 RadialGrid  ... OptM3 with GC (2021)
Angular Grid (max. ang.)         AngularGrid ... 1 (Lebedev-50)
Angular grid pruning method      GridPruning ... 4 (adaptive)
Weight generation scheme         WeightScheme... Becke
Basis function cutoff            BFCut       ... 1.0000e-11
Integration weight cutoff        WCut        ... 1.0000e-14
Angular grids for H and He will be reduced by one unit
Partially contracted basis set               ... on
Rotationally invariant grid construction     ... off

Total number of grid points                  ...     7028
Total number of batches                      ...      117
Average number of points per batch           ...       60
Average number of grid points per atom       ...      639
UseSFitting                                  ... on

GRIDX 2
-------
General Integration Accuracy     IntAcc      ... 4.020
Radial Grid Type                 RadialGrid  ... OptM3 with GC (2021)
Angular Grid (max. ang.)         AngularGrid ... 2 (Lebedev-110)
Angular grid pruning method      GridPruning ... 4 (adaptive)
Weight generation scheme         WeightScheme... Becke
Basis function cutoff            BFCut       ... 1.0000e-11
Integration weight cutoff        WCut        ... 1.0000e-14
Angular grids for H and He will be reduced by one unit
Partially contracted basis set               ... on
Rotationally invariant grid construction     ... off

Total number of grid points                  ...    17415
Total number of batches                      ...      277
Average number of points per batch           ...       62
Average number of grid points per atom       ...     1583
UseSFitting                                  ... on

GRIDX 3
-------
General Integration Accuracy     IntAcc      ... 4.338
Radial Grid Type                 RadialGrid  ... OptM3 with GC (2021)
Angular Grid (max. ang.)         AngularGrid ... 3 (Lebedev-194)
Angular grid pruning method      GridPruning ... 4 (adaptive)
Weight generation scheme         WeightScheme... Becke
Basis function cutoff            BFCut       ... 1.0000e-11
Integration weight cutoff        WCut        ... 1.0000e-14
Angular grids for H and He will be reduced by one unit
Partially contracted basis set               ... on
Rotationally invariant grid construction     ... off

Total number of grid points                  ...    39357
Total number of batches                      ...      620
Average number of points per batch           ...       63
Average number of grid points per atom       ...     3578
UseSFitting                                  ... on

Time for X-Grid setup             =    0.499 sec

--------------
SCF ITERATIONS
--------------
ITER       Energy         Delta-E        Max-DP      RMS-DP      [F,P]     Damp
               ***  Starting incremental Fock matrix formation  ***
  0   -727.4022139564   0.000000000000 0.12700996  0.00149685  0.3034305 0.7000
  1   -727.5561647196  -0.153950763221 0.07028236  0.00109526  0.1301742 0.7000
                               ***Turning on DIIS***
  2   -727.6152067653  -0.059042045683 0.16425528  0.00218562  0.0522174 0.0000
  3   -727.7174193253  -0.102212560034 0.05647724  0.00058517  0.0661792 0.0000
  4   -727.7345398089  -0.017120483628 0.01364272  0.00019872  0.0110398 0.0000
                      *** Initiating the SOSCF procedure ***
                           *** Shutting down DIIS ***
                      *** Re-Reading the Fockian *** 
                      *** Removing any level shift *** 
ITER      Energy       Delta-E        Grad      Rot      Max-DP    RMS-DP
  5   -727.73509045  -0.0005506391  0.000587  0.000587  0.005592  0.000059
               *** Restarting incremental Fock matrix formation ***
  6   -727.73513735  -0.0000468989  0.000212  0.000361  0.001785  0.000036
  7   -727.73514211  -0.0000047609  0.000151  0.000376  0.000816  0.000019
  8   -727.73514289  -0.0000007780  0.000082  0.000084  0.000442  0.000009
  9   -727.73514319  -0.0000003025  0.000021  0.000032  0.000149  0.000003
 10   -727.73514321  -0.0000000228  0.000021  0.000018  0.000108  0.000002
 11   -727.73514322  -0.0000000072  0.000006  0.000007  0.000079  0.000001
 12   -727.73514321   0.0000000034  0.000003  0.000002  0.000091  0.000001
                  ***Gradient check signals convergence***
              ***Rediagonalizing the Fockian in SOSCF/NRSCF***

               *****************************************************
               *                     SUCCESS                       *
               *           SCF CONVERGED AFTER  13 CYCLES          *
               *****************************************************

Old exchange energy                            =    -18.793989540 Eh
New exchange energy                            =    -18.793976229 Eh
Exchange energy change after final integration =      0.000013312 Eh
Total energy after final integration           =   -727.735129907 Eh
Final COS-X integration done in                =     9.917 sec

----------------
TOTAL SCF ENERGY
----------------

Total Energy       :         -727.73512991 Eh          -19802.67963 eV

Components:
Nuclear Repulsion  :          362.35353477 Eh            9860.14096 eV
Electronic Energy  :        -1090.08866468 Eh          -29662.82059 eV
One Electron Energy:        -1720.94243601 Eh          -46829.22444 eV
Two Electron Energy:          630.85377132 Eh           17166.40384 eV
Max COSX asymmetry :            0.00000842 Eh               0.00023 eV

Virial components:
Potential Energy   :        -1453.53686316 Eh          -39552.74887 eV
Kinetic Energy     :          725.80173325 Eh           19750.06924 eV
Virial Ratio       :            2.00266381


DFT components:
N(Alpha)           :       28.999973424625 electrons
N(Beta)            :       28.999973424625 electrons
N(Total)           :       57.999946849250 electrons
E(XC)              :      -47.396538935044 Eh       
DFET-embed. en.    :        0.000000000000 Eh       

---------------
SCF CONVERGENCE
---------------

  Last Energy change         ...   -4.1272e-09  Tolerance :   1.0000e-08
  Last MAX-Density change    ...    1.3323e-15  Tolerance :   1.0000e-07
  Last RMS-Density change    ...    1.8064e-17  Tolerance :   5.0000e-09
  Last Orbital Gradient      ...    2.6856e-07  Tolerance :   1.0000e-05
  Last Orbital Rotation      ...    4.0760e-07  Tolerance :   1.0000e-05

             **** THE GBW FILE WAS UPDATED (TZVPD_wB97XD3_C1_wt_dlpno_neg.gbw) ****
             **** DENSITY TZVPD_wB97XD3_C1_wt_dlpno_neg.scfp WAS UPDATED ****
             **** ENERGY FILE WAS UPDATED (TZVPD_wB97XD3_C1_wt_dlpno_neg.en.tmp) ****
             **** THE GBW FILE WAS UPDATED (TZVPD_wB97XD3_C1_wt_dlpno_neg.gbw) ****
             **** DENSITY TZVPD_wB97XD3_C1_wt_dlpno_neg.scfp WAS UPDATED ****
----------------
ORBITAL ENERGIES
----------------

  NO   OCC          E(Eh)            E(eV) 
   0   2.0000     -89.196691     -2427.1654 
   1   2.0000     -24.910523      -677.8498 
   2   2.0000     -19.246877      -523.7341 
   3   2.0000     -19.227319      -523.2020 
   4   2.0000     -10.338752      -281.3317 
   5   2.0000     -10.292884      -280.0836 
   6   2.0000      -8.260298      -224.7741 
   7   2.0000      -6.217569      -169.1886 
   8   2.0000      -6.211348      -169.0194 
   9   2.0000      -6.210915      -169.0076 
  10   2.0000      -1.504786       -40.9473 
  11   2.0000      -1.220369       -33.2079 
  12   2.0000      -1.114712       -30.3328 
  13   2.0000      -0.940158       -25.5830 
  14   2.0000      -0.850601       -23.1460 
  15   2.0000      -0.787370       -21.4254 
  16   2.0000      -0.695712       -18.9313 
  17   2.0000      -0.695146       -18.9159 
  18   2.0000      -0.661784       -18.0080 
  19   2.0000      -0.597602       -16.2616 
  20   2.0000      -0.584637       -15.9088 
  21   2.0000      -0.541178       -14.7262 
  22   2.0000      -0.529701       -14.4139 
  23   2.0000      -0.506611       -13.7856 
  24   2.0000      -0.486007       -13.2249 
  25   2.0000      -0.482115       -13.1190 
  26   2.0000      -0.431597       -11.7444 
  27   2.0000      -0.412680       -11.2296 
  28   2.0000      -0.398705       -10.8493 
  29   0.0000       0.048518         1.3203 
  30   0.0000       0.062891         1.7114 
  31   0.0000       0.068207         1.8560 
  32   0.0000       0.073431         1.9982 
  33   0.0000       0.097989         2.6664 
  34   0.0000       0.109222         2.9721 
  35   0.0000       0.120227         3.2715 
  36   0.0000       0.129738         3.5304 
  37   0.0000       0.137318         3.7366 
  38   0.0000       0.143998         3.9184 
  39   0.0000       0.153540         4.1780 
  40   0.0000       0.161940         4.4066 
  41   0.0000       0.167893         4.5686 
  42   0.0000       0.174238         4.7413 
  43   0.0000       0.184585         5.0228 
  44   0.0000       0.189229         5.1492 
  45   0.0000       0.195558         5.3214 
  46   0.0000       0.198656         5.4057 
  47   0.0000       0.200448         5.4545 
  48   0.0000       0.212451         5.7811 
  49   0.0000       0.216694         5.8965 
  50   0.0000       0.218777         5.9532 
  51   0.0000       0.222812         6.0630 
  52   0.0000       0.235554         6.4098 
  53   0.0000       0.246685         6.7127 
  54   0.0000       0.269801         7.3417 
  55   0.0000       0.279270         7.5993 
  56   0.0000       0.291662         7.9365 
  57   0.0000       0.306234         8.3330 
  58   0.0000       0.316410         8.6099 
  59   0.0000       0.321140         8.7387 
  60   0.0000       0.323839         8.8121 
  61   0.0000       0.331878         9.0309 
  62   0.0000       0.338051         9.1988 
  63   0.0000       0.344896         9.3851 
  64   0.0000       0.347859         9.4657 
  65   0.0000       0.361062         9.8250 
  66   0.0000       0.365887         9.9563 
  67   0.0000       0.372748        10.1430 
  68   0.0000       0.378820        10.3082 
  69   0.0000       0.388754        10.5785 
  70   0.0000       0.403112        10.9692 
  71   0.0000       0.404634        11.0106 
  72   0.0000       0.414690        11.2843 
  73   0.0000       0.423442        11.5225 
  74   0.0000       0.428190        11.6516 
  75   0.0000       0.445490        12.1224 
  76   0.0000       0.452624        12.3165 
  77   0.0000       0.459331        12.4990 
  78   0.0000       0.465078        12.6554 
  79   0.0000       0.473910        12.8957 
  80   0.0000       0.478862        13.0305 
  81   0.0000       0.484800        13.1921 
  82   0.0000       0.494352        13.4520 
  83   0.0000       0.502275        13.6676 
  84   0.0000       0.507269        13.8035 
  85   0.0000       0.517447        14.0804 
  86   0.0000       0.530233        14.4284 
  87   0.0000       0.545406        14.8413 
  88   0.0000       0.563854        15.3432 
  89   0.0000       0.585801        15.9405 
  90   0.0000       0.605775        16.4840 
  91   0.0000       0.618955        16.8426 
  92   0.0000       0.633638        17.2422 
  93   0.0000       0.636468        17.3192 
  94   0.0000       0.646162        17.5829 
  95   0.0000       0.657996        17.9050 
  96   0.0000       0.669731        18.2243 
  97   0.0000       0.679580        18.4923 
  98   0.0000       0.683621        18.6023 
  99   0.0000       0.697220        18.9723 
 100   0.0000       0.710542        19.3348 
 101   0.0000       0.722943        19.6723 
 102   0.0000       0.735457        20.0128 
 103   0.0000       0.741384        20.1741 
 104   0.0000       0.745683        20.2911 
 105   0.0000       0.755419        20.5560 
 106   0.0000       0.765932        20.8421 
 107   0.0000       0.770135        20.9564 
 108   0.0000       0.777676        21.1616 
 109   0.0000       0.784544        21.3485 
 110   0.0000       0.787293        21.4233 
 111   0.0000       0.799907        21.7666 
 112   0.0000       0.815602        22.1937 
 113   0.0000       0.831100        22.6154 
 114   0.0000       0.836940        22.7743 
 115   0.0000       0.847833        23.0707 
 116   0.0000       0.864772        23.5317 
 117   0.0000       0.895504        24.3679 
 118   0.0000       0.897639        24.4260 
 119   0.0000       0.915487        24.9117 
 120   0.0000       0.943002        25.6604 
 121   0.0000       0.951108        25.8810 
 122   0.0000       0.974510        26.5178 
 123   0.0000       0.990482        26.9524 
 124   0.0000       1.014723        27.6120 
 125   0.0000       1.028591        27.9894 
 126   0.0000       1.049095        28.5473 
 127   0.0000       1.060221        28.8501 
 128   0.0000       1.083141        29.4738 
 129   0.0000       1.089656        29.6511 
 130   0.0000       1.114619        30.3303 
 131   0.0000       1.121625        30.5210 
 132   0.0000       1.154869        31.4256 
 133   0.0000       1.159002        31.5381 
 134   0.0000       1.187177        32.3047 
 135   0.0000       1.200165        32.6581 
 136   0.0000       1.229651        33.4605 
 137   0.0000       1.256170        34.1821 
 138   0.0000       1.294532        35.2260 
 139   0.0000       1.322599        35.9897 
 140   0.0000       1.343312        36.5534 
 141   0.0000       1.363100        37.0918 
 142   0.0000       1.386009        37.7152 
 143   0.0000       1.420059        38.6418 
 144   0.0000       1.444733        39.3132 
 145   0.0000       1.513107        41.1737 
 146   0.0000       1.634532        44.4779 
 147   0.0000       1.674142        45.5557 
 148   0.0000       1.679518        45.7020 
 149   0.0000       1.693565        46.0843 
 150   0.0000       1.711139        46.5625 
 151   0.0000       1.731363        47.1128 
 152   0.0000       1.779959        48.4352 
 153   0.0000       1.820850        49.5478 
 154   0.0000       1.837838        50.0101 
 155   0.0000       1.868562        50.8461 
 156   0.0000       1.885227        51.2996 
 157   0.0000       1.894460        51.5509 
 158   0.0000       1.914209        52.0883 
 159   0.0000       1.917266        52.1715 
 160   0.0000       1.933364        52.6095 
 161   0.0000       1.950250        53.0690 
 162   0.0000       1.972488        53.6741 
 163   0.0000       1.978755        53.8447 
 164   0.0000       2.004463        54.5442 
 165   0.0000       2.019924        54.9649 
 166   0.0000       2.027467        55.1702 
 167   0.0000       2.058797        56.0227 
 168   0.0000       2.103549        57.2405 
 169   0.0000       2.139672        58.2234 
 170   0.0000       2.174450        59.1698 
 171   0.0000       2.201228        59.8985 
 172   0.0000       2.226769        60.5935 
 173   0.0000       2.260027        61.4985 
 174   0.0000       2.338893        63.6445 
 175   0.0000       2.357568        64.1527 
 176   0.0000       2.385733        64.9191 
 177   0.0000       2.451315        66.7037 
 178   0.0000       2.467519        67.1446 
 179   0.0000       2.502684        68.1015 
 180   0.0000       2.525529        68.7231 
 181   0.0000       2.544849        69.2489 
 182   0.0000       2.559018        69.6344 
 183   0.0000       2.579308        70.1865 
 184   0.0000       2.587462        70.4084 
 185   0.0000       2.609418        71.0059 
 186   0.0000       2.621014        71.3214 
 187   0.0000       2.632830        71.6430 
 188   0.0000       2.671692        72.7004 
 189   0.0000       2.709733        73.7356 
 190   0.0000       2.738449        74.5170 
 191   0.0000       2.755783        74.9887 
 192   0.0000       2.773810        75.4792 
 193   0.0000       2.791494        75.9604 
 194   0.0000       2.799235        76.1711 
 195   0.0000       2.851570        77.5952 
 196   0.0000       2.866683        78.0064 
 197   0.0000       2.881855        78.4193 
 198   0.0000       2.903737        79.0147 
 199   0.0000       2.933534        79.8255 
 200   0.0000       2.966856        80.7323 
 201   0.0000       3.011287        81.9413 
 202   0.0000       3.104997        84.4913 
 203   0.0000       3.121841        84.9496 
 204   0.0000       3.176249        86.4301 
 205   0.0000       3.231510        87.9338 
 206   0.0000       3.265492        88.8586 
 207   0.0000       3.277288        89.1795 
 208   0.0000       3.301881        89.8487 
 209   0.0000       3.326489        90.5184 
 210   0.0000       3.348953        91.1297 
 211   0.0000       3.381382        92.0121 
 212   0.0000       3.394509        92.3693 
 213   0.0000       3.440057        93.6087 
 214   0.0000       3.492162        95.0266 
 215   0.0000       3.509480        95.4978 
 216   0.0000       3.539237        96.3075 
 217   0.0000       3.575977        97.3073 
 218   0.0000       3.589719        97.6812 
 219   0.0000       3.605550        98.1120 
 220   0.0000       3.646304        99.2210 
 221   0.0000       3.677508       100.0701 
 222   0.0000       3.724997       101.3623 
 223   0.0000       3.755308       102.1871 
 224   0.0000       3.845920       104.6528 
 225   0.0000       3.901875       106.1754 
 226   0.0000       3.935223       107.0829 
 227   0.0000       4.023137       109.4751 
 228   0.0000       4.060615       110.4949 
 229   0.0000       4.127517       112.3154 
 230   0.0000       4.145211       112.7969 
 231   0.0000       4.238743       115.3421 
 232   0.0000       4.352955       118.4499 
 233   0.0000       4.454826       121.2220 
 234   0.0000       4.506923       122.6396 
 235   0.0000       4.627375       125.9173 
 236   0.0000       4.646308       126.4325 
 237   0.0000       4.792668       130.4151 
 238   0.0000       4.814837       131.0184 
 239   0.0000       5.002712       136.1307 
 240   0.0000       5.239883       142.5845 
 241   0.0000       5.253825       142.9638 
 242   0.0000       5.272477       143.4714 
 243   0.0000       5.277213       143.6003 
 244   0.0000       5.302826       144.2972 
 245   0.0000       5.322593       144.8351 
 246   0.0000       5.362176       145.9122 
 247   0.0000       5.472221       148.9067 
 248   0.0000       5.528806       150.4465 
 249   0.0000       5.614449       152.7769 
 250   0.0000       5.647306       153.6710 
 251   0.0000       5.666463       154.1923 
 252   0.0000       5.722040       155.7046 
 253   0.0000       5.801466       157.8659 
 254   0.0000       6.529247       177.6698 
 255   0.0000       6.565694       178.6616 
 256   0.0000       6.594137       179.4356 
 257   0.0000       6.640512       180.6975 
 258   0.0000       6.740216       183.4106 
 259   0.0000       6.783996       184.6019 
 260   0.0000       6.821934       185.6343 
 261   0.0000       6.853635       186.4969 
 262   0.0000       6.892612       187.5575 
 263   0.0000       6.955621       189.2721 
 264   0.0000       6.998151       190.4294 
 265   0.0000       7.004858       190.6119 
 266   0.0000       7.058716       192.0774 
 267   0.0000       7.115592       193.6251 
 268   0.0000       7.135543       194.1680 
 269   0.0000       7.184774       195.5076 
 270   0.0000       7.196892       195.8374 
 271   0.0000       8.511466       231.6088 
 272   0.0000       8.521595       231.8844 
 273   0.0000       8.745658       237.9814 
 274   0.0000       8.779739       238.9088 
 275   0.0000       9.032069       245.7751 
 276   0.0000       9.575026       260.5497 
 277   0.0000       9.777486       266.0589 
 278   0.0000      10.010807       272.4079 
 279   0.0000      22.419767       610.0729 
 280   0.0000      22.648374       616.2936 
 281   0.0000      22.826912       621.1519 
 282   0.0000      43.989733      1197.0215 
 283   0.0000      44.161158      1201.6862 
 284   0.0000      57.487381      1564.3112 

                    ********************************
                    * MULLIKEN POPULATION ANALYSIS *
                    ********************************

-----------------------
MULLIKEN ATOMIC CHARGES
-----------------------
   0 C :   -1.206558
   1 C :   -0.391783
   2 H :    0.345801
   3 H :    0.354971
   4 S :    1.190342
   5 F :   -0.115555
   6 O :   -0.580115
   7 O :   -0.615198
   8 H :    0.340963
   9 H :    0.335318
  10 H :    0.341814
Sum of atomic charges:   -0.0000000

--------------------------------
MULLIKEN REDUCED ORBITAL CHARGES
--------------------------------
  0 C s       :     3.466513  s :     3.466513
      pz      :     1.156173  p :     3.654741
      px      :     1.155066
      py      :     1.343501
      dz2     :    -0.004580  d :     0.082153
      dxz     :     0.014803
      dyz     :     0.030372
      dx2y2   :     0.032901
      dxy     :     0.008656
      f0      :     0.000273  f :     0.003150
      f+1     :     0.000650
      f-1     :     0.000165
      f+2     :     0.001238
      f-2     :     0.000517
      f+3     :     0.000091
      f-3     :     0.000216
  1 C s       :     3.132617  s :     3.132617
      pz      :     1.109012  p :     3.175392
      px      :     1.145155
      py      :     0.921225
      dz2     :     0.005795  d :     0.079207
      dxz     :     0.001390
      dyz     :     0.031907
      dx2y2   :     0.032492
      dxy     :     0.007623
      f0      :     0.000491  f :     0.004566
      f+1     :     0.000701
      f-1     :     0.000351
      f+2     :     0.001318
      f-2     :     0.000845
      f+3     :     0.000397
      f-3     :     0.000462
  2 H s       :     0.609517  s :     0.609517
      pz      :     0.014381  p :     0.044682
      px      :     0.032117
      py      :    -0.001816
  3 H s       :     0.609839  s :     0.609839
      pz      :     0.018316  p :     0.035190
      px      :     0.002745
      py      :     0.014129
  4 S s       :     5.400410  s :     5.400410
      pz      :     2.673390  p :     8.130374
      px      :     2.620354
      py      :     2.836631
      dz2     :     0.203668  d :     1.152957
      dxz     :     0.261713
      dyz     :     0.202858
      dx2y2   :     0.277561
      dxy     :     0.207157
      f0      :     0.021155  f :     0.125916
      f+1     :     0.019554
      f-1     :     0.014513
      f+2     :     0.022726
      f-2     :     0.015365
      f+3     :     0.016470
      f-3     :     0.016134
  5 F s       :     3.916163  s :     3.916163
      pz      :     1.591441  p :     5.177276
      px      :     1.733820
      py      :     1.852016
      dz2     :     0.006306  d :     0.021179
      dxz     :     0.007934
      dyz     :     0.002856
      dx2y2   :     0.001880
      dxy     :     0.002203
      f0      :     0.000178  f :     0.000937
      f+1     :     0.000278
      f-1     :     0.000112
      f+2     :     0.000161
      f-2     :     0.000150
      f+3     :     0.000029
      f-3     :     0.000030
  6 O s       :     3.970728  s :     3.970728
      pz      :     1.661787  p :     4.566710
      px      :     1.253288
      py      :     1.651635
      dz2     :     0.004010  d :     0.040601
      dxz     :     0.011736
      dyz     :     0.002782
      dx2y2   :     0.009993
      dxy     :     0.012080
      f0      :     0.000220  f :     0.002077
      f+1     :     0.000279
      f-1     :     0.000059
      f+2     :     0.000283
      f-2     :     0.000166
      f+3     :     0.000562
      f-3     :     0.000508
  7 O s       :     3.962634  s :     3.962634
      pz      :     1.451687  p :     4.612111
      px      :     1.633277
      py      :     1.527147
      dz2     :     0.009758  d :     0.038613
      dxz     :     0.006962
      dyz     :     0.009064
      dx2y2   :     0.004087
      dxy     :     0.008742
      f0      :     0.000199  f :     0.001840
      f+1     :     0.000226
      f-1     :     0.000338
      f+2     :     0.000326
      f-2     :     0.000388
      f+3     :     0.000176
      f-3     :     0.000187
  8 H s       :     0.603179  s :     0.603179
      pz      :     0.006713  p :     0.055858
      px      :     0.033257
      py      :     0.015888
  9 H s       :     0.605371  s :     0.605371
      pz      :     0.017482  p :     0.059312
      px      :     0.011462
      py      :     0.030368
 10 H s       :     0.600696  s :     0.600696
      pz      :     0.026731  p :     0.057491
      px      :     0.007651
      py      :     0.023108


                     *******************************
                     * LOEWDIN POPULATION ANALYSIS *
                     *******************************

----------------------
LOEWDIN ATOMIC CHARGES
----------------------
   0 C :   -0.102589
   1 C :   -0.287026
   2 H :    0.103518
   3 H :    0.096382
   4 S :    0.600779
   5 F :   -0.049202
   6 O :   -0.273351
   7 O :   -0.316247
   8 H :    0.072465
   9 H :    0.075659
  10 H :    0.079611

-------------------------------
LOEWDIN REDUCED ORBITAL CHARGES
-------------------------------
  0 C s       :     2.719601  s :     2.719601
      pz      :     0.960587  p :     2.904050
      px      :     0.962779
      py      :     0.980683
      dz2     :     0.087832  d :     0.451824
      dxz     :     0.097381
      dyz     :     0.113524
      dx2y2   :     0.112643
      dxy     :     0.040444
      f0      :     0.004774  f :     0.027115
      f+1     :     0.004905
      f-1     :     0.002295
      f+2     :     0.005060
      f-2     :     0.004160
      f+3     :     0.002278
      f-3     :     0.003643
  1 C s       :     2.722095  s :     2.722095
      pz      :     0.952631  p :     2.822300
      px      :     0.986348
      py      :     0.883321
      dz2     :     0.130840  d :     0.710175
      dxz     :     0.117370
      dyz     :     0.195666
      dx2y2   :     0.161872
      dxy     :     0.104427
      f0      :     0.005271  f :     0.032456
      f+1     :     0.004450
      f-1     :     0.003684
      f+2     :     0.005881
      f-2     :     0.005148
      f+3     :     0.003609
      f-3     :     0.004413
  2 H s       :     0.685055  s :     0.685055
      pz      :     0.058588  p :     0.211427
      px      :     0.095083
      py      :     0.057756
  3 H s       :     0.688484  s :     0.688484
      pz      :     0.080745  p :     0.215133
      px      :     0.056095
      py      :     0.078293
  4 S s       :     4.573067  s :     4.573067
      pz      :     2.717335  p :     8.288277
      px      :     2.766636
      py      :     2.804306
      dz2     :     0.386912  d :     2.149429
      dxz     :     0.492804
      dyz     :     0.386525
      dx2y2   :     0.487183
      dxy     :     0.396006
      f0      :     0.060214  f :     0.388448
      f+1     :     0.068572
      f-1     :     0.044484
      f+2     :     0.066815
      f-2     :     0.049792
      f+3     :     0.049595
      f-3     :     0.048976
  5 F s       :     3.610973  s :     3.610973
      pz      :     1.690397  p :     5.193008
      px      :     1.732000
      py      :     1.770611
      dz2     :     0.065845  d :     0.243288
      dxz     :     0.066274
      dyz     :     0.058304
      dx2y2   :     0.028393
      dxy     :     0.024472
      f0      :     0.000322  f :     0.001932
      f+1     :     0.000661
      f-1     :     0.000239
      f+2     :     0.000331
      f-2     :     0.000268
      f+3     :     0.000054
      f-3     :     0.000057
  6 O s       :     3.478889  s :     3.478889
      pz      :     1.535272  p :     4.535021
      px      :     1.448367
      py      :     1.551382
      dz2     :     0.029050  d :     0.254655
      dxz     :     0.062042
      dyz     :     0.020808
      dx2y2   :     0.070718
      dxy     :     0.072037
      f0      :     0.000401  f :     0.004786
      f+1     :     0.000888
      f-1     :     0.000142
      f+2     :     0.000512
      f-2     :     0.000316
      f+3     :     0.001197
      f-3     :     0.001329
  7 O s       :     3.511484  s :     3.511484
      pz      :     1.458088  p :     4.564360
      px      :     1.575872
      py      :     1.530400
      dz2     :     0.045856  d :     0.236231
      dxz     :     0.046943
      dyz     :     0.052988
      dx2y2   :     0.050257
      dxy     :     0.040188
      f0      :     0.000411  f :     0.004171
      f+1     :     0.000474
      f-1     :     0.000698
      f+2     :     0.000575
      f-2     :     0.001218
      f+3     :     0.000452
      f-3     :     0.000342
  8 H s       :     0.694961  s :     0.694961
      pz      :     0.070376  p :     0.232574
      px      :     0.095697
      py      :     0.066501
  9 H s       :     0.704293  s :     0.704293
      pz      :     0.062830  p :     0.220048
      px      :     0.055255
      py      :     0.101963
 10 H s       :     0.697916  s :     0.697916
      pz      :     0.081380  p :     0.222473
      px      :     0.056895
      py      :     0.084198


                      *****************************
                      * MAYER POPULATION ANALYSIS *
                      *****************************

  NA   - Mulliken gross atomic population
  ZA   - Total nuclear charge
  QA   - Mulliken gross atomic charge
  VA   - Mayer's total valence
  BVA  - Mayer's bonded valence
  FA   - Mayer's free valence

  ATOM       NA         ZA         QA         VA         BVA        FA
  0 C      7.2066     6.0000    -1.2066     3.7396     3.7396    -0.0000
  1 C      6.3918     6.0000    -0.3918     3.5795     3.5795    -0.0000
  2 H      0.6542     1.0000     0.3458     0.9455     0.9455    -0.0000
  3 H      0.6450     1.0000     0.3550     0.8923     0.8923    -0.0000
  4 S     14.8097    16.0000     1.1903     5.2711     5.2711    -0.0000
  5 F      9.1156     9.0000    -0.1156     1.1196     1.1196    -0.0000
  6 O      8.5801     8.0000    -0.5801     1.9055     1.9055    -0.0000
  7 O      8.6152     8.0000    -0.6152     1.8371     1.8371    -0.0000
  8 H      0.6590     1.0000     0.3410     0.9872     0.9872    -0.0000
  9 H      0.6647     1.0000     0.3353     0.9994     0.9994    -0.0000
 10 H      0.6582     1.0000     0.3418     0.9886     0.9886     0.0000

  Mayer bond orders larger than 0.100000
B(  0-C ,  1-C ) :   0.7880 B(  0-C ,  8-H ) :   0.9414 B(  0-C ,  9-H ) :   0.9186 
B(  0-C , 10-H ) :   0.9355 B(  1-C ,  2-H ) :   0.8957 B(  1-C ,  3-H ) :   0.8656 
B(  1-C ,  4-S ) :   0.8406 B(  1-C ,  7-O ) :   0.1035 B(  4-S ,  5-F ) :   1.0063 
B(  4-S ,  6-O ) :   1.6886 B(  4-S ,  7-O ) :   1.6272 

-------
TIMINGS
-------

Total SCF time: 0 days 0 hours 1 min 4 sec 

Total time                  ....      64.638 sec
Sum of individual times     ....      64.331 sec  ( 99.5%)

Fock matrix formation       ....      62.627 sec  ( 96.9%)
  Split-RI-J                ....       2.375 sec  (  3.8% of F)
  Chain of spheres X        ....      54.457 sec  ( 87.0% of F)
  XC integration            ....       5.707 sec  (  9.1% of F)
    Basis function eval.    ....       1.492 sec  ( 26.1% of XC)
    Density eval.           ....       1.452 sec  ( 25.4% of XC)
    XC-Functional eval.     ....       0.321 sec  (  5.6% of XC)
    XC-Potential eval.      ....       2.080 sec  ( 36.5% of XC)
Diagonalization             ....       0.137 sec  (  0.2%)
Density matrix formation    ....       0.012 sec  (  0.0%)
Population analysis         ....       0.017 sec  (  0.0%)
Initial guess               ....       0.274 sec  (  0.4%)
Orbital Transformation      ....       0.000 sec  (  0.0%)
Orbital Orthonormalization  ....       0.000 sec  (  0.0%)
DIIS solution               ....       0.065 sec  (  0.1%)
SOSCF solution              ....       0.120 sec  (  0.2%)
Grid generation             ....       1.080 sec  (  1.7%)

Maximum memory used throughout the entire SCF-calculation: 76.4 MB


-------------------------------------------------------------------------------
                          DFT DISPERSION CORRECTION                            
                                                                               
                              DFTD3 V3.1  Rev 1                                
                              USING zero damping                               
-------------------------------------------------------------------------------
The omegaB97X-D3 functional is recognized. Fit by Chai et al.
Active option DFTDOPT                   ...         3   

molecular C6(AA) [au] = 1445.606019 


            DFT-D V3
 parameters
 s6 scaling factor         :     1.0000 
 rs6 scaling factor        :     1.2810 
 s8 scaling factor         :     1.0000 
 rs8 scaling factor        :     1.0940 
 Damping factor alpha6     :    14.0000 
 Damping factor alpha8     :    16.0000 
 ad hoc parameters k1-k3   :    16.0000     1.3333    -4.0000 

 Edisp/kcal,au: -1.812387602952  -0.002888223182 
 E6   /kcal   :  -0.617114920 
 E8   /kcal   :  -1.195272683 
 % E8         :  65.950168783 

-------------------------   ----------------
Dispersion correction           -0.002888223
-------------------------   ----------------


-------------------------   --------------------
FINAL SINGLE POINT ENERGY      -727.738018130511
-------------------------   --------------------


                            ***************************************
                            *     ORCA property calculations      *
                            ***************************************

                                    ---------------------
                                    Active property flags
                                    ---------------------
   (+) Dipole Moment


------------------------------------------------------------------------------
                       ORCA ELECTRIC PROPERTIES CALCULATION
------------------------------------------------------------------------------

Dipole Moment Calculation                       ... on
Quadrupole Moment Calculation                   ... off
Polarizability Calculation                      ... off
GBWName                                         ... TZVPD_wB97XD3_C1_wt_dlpno_neg.gbw
Electron density file                           ... TZVPD_wB97XD3_C1_wt_dlpno_neg.scfp
The origin for moment calculation is the CENTER OF MASS  = ( 3.129387,  0.475649 -11.624476)

-------------
DIPOLE MOMENT
-------------
                                X             Y             Z
Electronic contribution:      3.86973      -5.62868      -7.54962
Nuclear contribution   :     -3.66946       7.33549       7.42434
                        -----------------------------------------
Total Dipole Moment    :      0.20027       1.70681      -0.12527
                        -----------------------------------------
Magnitude (a.u.)       :      1.72308
Magnitude (Debye)      :      4.37972



--------------------
Rotational spectrum 
--------------------
 
Rotational constants in cm-1:     0.158379     0.080294     0.077843 
Rotational constants in MHz :  4748.076444  2407.152850  2333.668303 

 Dipole components along the rotational axes: 
x,y,z [a.u.] :     0.817205    -1.485396    -0.307848 
x,y,z [Debye]:     2.077171    -3.775577    -0.782487 

 

Timings for individual modules:

Sum of individual times         ...       69.288 sec (=   1.155 min)
GTO integral calculation        ...        2.742 sec (=   0.046 min)   4.0 %
SCF iterations                  ...       66.546 sec (=   1.109 min)  96.0 %
                             ****ORCA TERMINATED NORMALLY****
TOTAL RUN TIME: 0 days 0 hours 1 minutes 9 seconds 826 msec
