
                                        *****************
                                        * O   R   C   A *
                                        *****************

                                            #,                                       
                                            ###                                      
                                            ####                                     
                                            #####                                    
                                            ######                                   
                                           ########,                                 
                                     ,,################,,,,,                         
                               ,,#################################,,                 
                          ,,##########################################,,             
                       ,#########################################, ''#####,          
                    ,#############################################,,   '####,        
                  ,##################################################,,,,####,       
                ,###########''''           ''''###############################       
              ,#####''   ,,,,##########,,,,          '''####'''          '####       
            ,##' ,,,,###########################,,,                        '##       
           ' ,,###''''                  '''############,,,                           
         ,,##''                                '''############,,,,        ,,,,,,###''
      ,#''                                            '''#######################'''  
     '                                                          ''''####''''         
             ,#######,   #######,   ,#######,      ##                                
            ,#'     '#,  ##    ##  ,#'     '#,    #''#        ######   ,####,        
            ##       ##  ##   ,#'  ##            #'  '#       #        #'  '#        
            ##       ##  #######   ##           ,######,      #####,   #    #        
            '#,     ,#'  ##    ##  '#,     ,#' ,#      #,         ##   #,  ,#        
             '#######'   ##     ##  '#######'  #'      '#     #####' # '####'        



                  #######################################################
                  #                        -***-                        #
                  #          Department of theory and spectroscopy      #
                  #    Directorship and core code : Frank Neese         #
                  #        Max Planck Institute fuer Kohlenforschung    #
                  #                Kaiser Wilhelm Platz 1               #
                  #                 D-45470 Muelheim/Ruhr               #
                  #                      Germany                        #
                  #                                                     #
                  #                  All rights reserved                #
                  #                        -***-                        #
                  #######################################################


                         Program Version 5.0.0 -  RELEASE  -
                                (SVN: $Rev: 19529$)
                ($Date: 2021-06-28 11:36:33 +0200 (Mo, 28 Jun 2021) $)


 With contributions from (in alphabetic order):
   Daniel Aravena         : Magnetic Suceptibility
   Michael Atanasov       : Ab Initio Ligand Field Theory (pilot matlab implementation)
   Alexander A. Auer      : GIAO ZORA, VPT2 properties, NMR spectrum
   Ute Becker             : Parallelization
   Giovanni Bistoni       : ED, misc. LED, open-shell LED, HFLD
   Martin Brehm           : Molecular dynamics
   Dmytro Bykov           : SCF Hessian
   Vijay G. Chilkuri      : MRCI spin determinant printing, contributions to CSF-ICE
   Dipayan Datta          : RHF DLPNO-CCSD density
   Achintya Kumar Dutta   : EOM-CC, STEOM-CC
   Dmitry Ganyushin       : Spin-Orbit,Spin-Spin,Magnetic field MRCI
   Miquel Garcia          : C-PCM Hessian, Gaussian charge scheme
   Yang Guo               : DLPNO-NEVPT2, F12-NEVPT2, CIM, IAO-localization
   Andreas Hansen         : Spin unrestricted coupled pair/coupled cluster methods
   Benjamin Helmich-Paris : MC-RPA, TRAH-SCF, COSX integrals
   Lee Huntington         : MR-EOM, pCC
   Robert Izsak           : Overlap fitted RIJCOSX, COSX-SCS-MP3, EOM
   Marcus Kettner         : VPT2
   Christian Kollmar      : KDIIS, OOCD, Brueckner-CCSD(T), CCSD density, CASPT2, CASPT2-K
   Simone Kossmann        : Meta GGA functionals, TD-DFT gradient, OOMP2, MP2 Hessian
   Martin Krupicka        : Initial AUTO-CI
   Lucas Lang             : DCDCAS
   Marvin Lechner         : AUTO-CI (C++ implementation), FIC-MRCC
   Dagmar Lenk            : GEPOL surface, SMD
   Dimitrios Liakos       : Extrapolation schemes; Compound Job, initial MDCI parallelization
   Dimitrios Manganas     : Further ROCIS development; embedding schemes
   Dimitrios Pantazis     : SARC Basis sets
   Anastasios Papadopoulos: AUTO-CI, single reference methods and gradients
   Taras Petrenko         : DFT Hessian,TD-DFT gradient, ASA, ECA, R-Raman, ABS, FL, XAS/XES, NRVS
   Peter Pinski           : DLPNO-MP2, DLPNO-MP2 Gradient
   Christoph Reimann      : Effective Core Potentials
   Marius Retegan         : Local ZFS, SOC
   Christoph Riplinger    : Optimizer, TS searches, QM/MM, DLPNO-CCSD(T), (RO)-DLPNO pert. Triples
   Tobias Risthaus        : Range-separated hybrids, TD-DFT gradient, RPA, STAB
   Michael Roemelt        : Original ROCIS implementation
   Masaaki Saitow         : Open-shell DLPNO-CCSD energy and density
   Barbara Sandhoefer     : DKH picture change effects
   Avijit Sen             : IP-ROCIS
   Kantharuban Sivalingam : CASSCF convergence, NEVPT2, FIC-MRCI
   Bernardo de Souza      : ESD, SOC TD-DFT
   Georgi Stoychev        : AutoAux, RI-MP2 NMR
   Willem Van den Heuvel  : Paramagnetic NMR
   Boris Wezisla          : Elementary symmetry handling
   Frank Wennmohs         : Technical directorship


 We gratefully acknowledge several colleagues who have allowed us to
 interface, adapt or use parts of their codes:
   Stefan Grimme, W. Hujo, H. Kruse, P. Pracht,  : VdW corrections, initial TS optimization,
                  C. Bannwarth, S. Ehlert          DFT functionals, gCP, sTDA/sTD-DF
   Ed Valeev, F. Pavosevic, A. Kumar             : LibInt (2-el integral package), F12 methods
   Garnet Chan, S. Sharma, J. Yang, R. Olivares  : DMRG
   Ulf Ekstrom                                   : XCFun DFT Library
   Mihaly Kallay                                 : mrcc  (arbitrary order and MRCC methods)
   Jiri Pittner, Ondrej Demel                    : Mk-CCSD
   Frank Weinhold                                : gennbo (NPA and NBO analysis)
   Christopher J. Cramer and Donald G. Truhlar   : smd solvation model
   Lars Goerigk                                  : TD-DFT with DH, B97 family of functionals
   V. Asgeirsson, H. Jonsson                     : NEB implementation
   FAccTs GmbH                                   : IRC, NEB, NEB-TS, DLPNO-Multilevel, CI-OPT
                                                   MM, QMMM, 2- and 3-layer-ONIOM, Crystal-QMMM,
                                                   LR-CPCM, SF, NACMEs, symmetry and pop. for TD-DFT,
                                                   nearIR, NL-DFT gradient (VV10), updates on ESD,
                                                   ML-optimized integration grids
   S Lehtola, MJT Oliveira, MAL Marques          : LibXC Library
   Liviu Ungur et al                             : ANISO software


 Your calculation uses the libint2 library for the computation of 2-el integrals
 For citations please refer to: http://libint.valeyev.net

 Your ORCA version has been built with support for libXC version: 5.1.0
 For citations please refer to: https://tddft.org/programs/libxc/

 This ORCA versions uses:
   CBLAS   interface :  Fast vector & matrix operations
   LAPACKE interface :  Fast linear algebra routines
   SCALAPACK package :  Parallel linear algebra routines
   Shared memory     :  Shared parallel matrices
   BLAS/LAPACK       :  OpenBLAS 0.3.15  USE64BITINT DYNAMIC_ARCH NO_AFFINITY Haswell SINGLE_THREADED
        Core in use  :  Haswell
   Copyright (c) 2011-2014, The OpenBLAS Project




***************************************
The coordinates will be read from file: D5.xyz
***************************************


Your calculation utilizes the atom-pairwise dispersion correction
with the Becke-Johnson damping scheme (D3BJ)
Cite in your paper:
S.Grimme, S.Ehrlich, L.Goerigk, J Comput Chem, (2011), 32, 1456–1465 
S.Grimme, J.Antony, S.Ehrlich and H.Krieg, J.Chem.Phys., 132, (2010), 154104 
   

================================================================================

----- Orbital basis set information -----
Your calculation utilizes the basis: def2-TZVPD
   F. Weigend and R. Ahlrichs, Phys. Chem. Chem. Phys. 7, 3297 (2005).
   D. Rappoport and F. Furche, J. Chem. Phys. 133 134105 (2010).

----- AuxJ basis set information -----
Your calculation utilizes the auxiliary basis: def2/J
   F. Weigend, Phys. Chem. Chem. Phys. 8, 1057 (2006).

================================================================================
                                        WARNINGS
                       Please study these warnings very carefully!
================================================================================



WARNING: Found flag for RIJCOSX approximation but no HF exchange needed!
  ===> : RIJCOSX  will be disabled and Split-RI-J is turned on

INFO   : the flag for use of the SHARK integral package has been found!

================================================================================
                                       INPUT FILE
================================================================================
NAME = 28Oct_TZVPD_PBE_D5_wb97.com
|  1> !PBE D3BJ RIJCOSX def2-TZVPD def2/J TightSCF xyzfile                                                                                         
|  2> 
|  3> *xyzfile 0 1 D5.xyz
|  4> 
|  5> %MaxCore 64000
|  6> 
|  7> %pal nprocs 4                                                                                                                                                  
|  8> end  
|  9> 
| 10> %scf
| 11>   MaxIter 150
| 12> end
| 13> 
| 14> 
| 15>                          ****END OF INPUT****
================================================================================

                       ****************************
                       * Single Point Calculation *
                       ****************************

---------------------------------
CARTESIAN COORDINATES (ANGSTROEM)
---------------------------------
  C      2.916324   -1.242589   -1.543125
  C      0.704661    1.443129   -4.503630
  C      1.728539    1.424320   -5.639443
  H      2.646718    1.953794   -5.381054
  H      1.299916    1.930613   -6.503614
  S      2.252625   -0.188115   -6.271840
  C      3.466585   -1.590971   -2.889082
  C      4.652275   -1.143164   -3.259692
  N      2.752264   -2.292043   -3.728029
  H      1.778364   -2.489604   -3.512738
  H      2.948612   -2.208544   -4.716813
  H      5.146723   -0.512508   -2.633852
  H      4.783030   -1.007203   -4.253498
  O      3.562607   -0.444464   -5.631552
  O      2.344944   -0.033742   -7.696501
  C      2.804084    0.290698   -1.359243
  C      1.052550    0.695659   -3.214915
  H     -0.232483    1.032925   -4.884449
  H      0.511700    2.495794   -4.267966
  C      2.388380    1.093669   -2.597108
  H      3.763425    0.674718   -0.999889
  H      2.094788    0.461222   -0.545756
  F      1.266058   -1.159177   -5.805365
  H      3.167316    1.013242   -3.359430
  H      2.357690    2.149375   -2.310997
  H      1.039284   -0.368429   -3.449329
  H      0.250787    0.865605   -2.488283
  H      1.940472   -1.716529   -1.441161
  H      3.558569   -1.663433   -0.766371

----------------------------
CARTESIAN COORDINATES (A.U.)
----------------------------
  NO LB      ZA    FRAG     MASS         X           Y           Z
   0 C     6.0000    0    12.011    5.511054   -2.348154   -2.916084
   1 C     6.0000    0    12.011    1.331617    2.727119   -8.510627
   2 C     6.0000    0    12.011    3.266466    2.691575  -10.657002
   3 H     1.0000    0     1.008    5.001573    3.692135  -10.168719
   4 H     1.0000    0     1.008    2.456486    3.648330  -12.290050
   5 S    16.0000    0    32.060    4.256845   -0.355485  -11.852059
   6 C     6.0000    0    12.011    6.550897   -3.006500   -5.459573
   7 C     6.0000    0    12.011    8.791525   -2.160266   -6.159925
   8 N     7.0000    0    14.007    5.201026   -4.331334   -7.044953
   9 H     1.0000    0     1.008    3.360621   -4.704669   -6.638113
  10 H     1.0000    0     1.008    5.572070   -4.173543   -8.913484
  11 H     1.0000    0     1.008    9.725897   -0.968501   -4.977259
  12 H     1.0000    0     1.008    9.038617   -1.903337   -8.037945
  13 O     8.0000    0    15.999    6.732352   -0.839915  -10.642091
  14 O     8.0000    0    15.999    4.431301   -0.063764  -14.544279
  15 C     6.0000    0    12.011    5.298951    0.549339   -2.568597
  16 C     6.0000    0    12.011    1.989032    1.314604   -6.075308
  17 H     1.0000    0     1.008   -0.439329    1.951946   -9.230272
  18 H     1.0000    0     1.008    0.966972    4.716368   -8.065286
  19 C     6.0000    0    12.011    4.513384    2.066735   -4.907822
  20 H     1.0000    0     1.008    7.111842    1.275032   -1.889516
  21 H     1.0000    0     1.008    3.958575    0.871583   -1.031329
  22 F     9.0000    0    18.998    2.392504   -2.190526  -10.970549
  23 H     1.0000    0     1.008    5.985361    1.914750   -6.348402
  24 H     1.0000    0     1.008    4.455389    4.061730   -4.367151
  25 H     1.0000    0     1.008    1.963961   -0.696229   -6.518287
  26 H     1.0000    0     1.008    0.473919    1.635756   -4.702174
  27 H     1.0000    0     1.008    3.666960   -3.243770   -2.723400
  28 H     1.0000    0     1.008    6.724720   -3.143433   -1.448231

--------------------------------
INTERNAL COORDINATES (ANGSTROEM)
--------------------------------
 C      0   0   0     0.000000000000     0.00000000     0.00000000
 C      1   0   0     4.568273793968     0.00000000     0.00000000
 C      2   1   0     1.529297825534    98.62404527     0.00000000
 H      3   2   1     1.090944370706   112.43319093   291.35935600
 H      3   2   1     1.089423309889   108.66365748   173.02891256
 S      3   2   1     1.809568454434   117.67249747    54.59879179
 C      1   2   3     1.495244269354    74.44217903   337.12806402
 C      7   1   2     1.320508752421   120.26891390   103.10495601
 N      7   1   2     1.305981940434   120.13503729   286.08645689
 H      9   7   1     1.016790325068   119.48364563     8.33019225
 H      9   7   1     1.011542432359   118.51921329   155.66854205
 H      8   7   1     1.016799188787   118.30856157   356.12171918
 H      8   7   1     1.011549184661   115.93680355   208.86906715
 O      6   3   2     1.480451351977   105.03550261   259.70514125
 O      6   3   2     1.435971529587   105.63739582   140.00826415
 C      1   2   3     1.548347683709    57.29458071   106.04454887
 C      2   1   3     1.529877614442    19.39834396   186.99389249
 H      2   1   3     1.091572130247   114.88526166   114.65620169
 H      2   1   3     1.095844940799   120.70540048   244.49829987
 C     17   2   1     1.524643581099   114.39523607    61.63043835
 H     16   1   2     1.094048234703   108.84673673   220.49718341
 H     16   1   2     1.092676175276   106.85886165   106.82959772
 F      6   3   2     1.460778685441   106.56716191    16.57397008
 H     20  17   2     1.092861154855   108.82111327   307.33588892
 H     20  17   2     1.094219453583   109.46571263    62.60087563
 H     17   2   1     1.089682404302   107.04520605   298.66165453
 H     17   2   1     1.095307766624   108.45540496   184.02122912
 H      1   2   3     1.089634927768    83.26793994   226.06030881
 H      1   2   3     1.092215339711   166.43145148    86.04509137

---------------------------
INTERNAL COORDINATES (A.U.)
---------------------------
 C      0   0   0     0.000000000000     0.00000000     0.00000000
 C      1   0   0     8.632786375368     0.00000000     0.00000000
 C      2   1   0     2.889954067461    98.62404527     0.00000000
 H      3   2   1     2.061586087978   112.43319093   291.35935600
 H      3   2   1     2.058711699600   108.66365748   173.02891256
 S      3   2   1     3.419588799463   117.67249747    54.59879179
 C      1   2   3     2.825602172394    74.44217903   337.12806402
 C      7   1   2     2.495399899522   120.26891390   103.10495601
 N      7   1   2     2.467948203268   120.13503729   286.08645689
 H      9   7   1     1.921455250000   119.48364563     8.33019225
 H      9   7   1     1.911538170000   118.51921329   155.66854205
 H      8   7   1     1.921472000000   118.30856157   356.12171918
 H      8   7   1     1.911550930000   115.93680355   208.86906715
 O      6   3   2     2.797647609830   105.03550261   259.70514125
 O      6   3   2     2.713592927028   105.63739582   140.00826415
 C      1   2   3     2.925953082301    57.29458071   106.04454887
 C      2   1   3     2.891049709713    19.39834396   186.99389249
 H      2   1   3     2.062772381588   114.88526166   114.65620169
 H      2   1   3     2.070846823354   120.70540048   244.49829987
 C     17   2   1     2.881158820119   114.39523607    61.63043835
 H     16   1   2     2.067451540889   108.84673673   220.49718341
 H     16   1   2     2.064858724332   106.85886165   106.82959772
 F      6   3   2     2.760471657752   106.56716191    16.57397008
 H     20  17   2     2.065208285076   108.82111327   307.33588892
 H     20  17   2     2.067775097680   109.46571263    62.60087563
 H     17   2   1     2.059201317083   107.04520605   298.66165453
 H     17   2   1     2.069831711276   108.45540496   184.02122912
 H      1   2   3     2.059111599436    83.26793994   226.06030881
 H      1   2   3     2.063987871322   166.43145148    86.04509137

---------------------
BASIS SET INFORMATION
---------------------
There are 6 groups of distinct atoms

 Group   1 Type C   : 12s6p3d1f contracted to 6s3p3d1f pattern {621111/411/111/1}
 Group   2 Type H   : 5s2p contracted to 3s2p pattern {311/11}
 Group   3 Type S   : 15s10p4d1f contracted to 6s6p3d1f pattern {732111/511111/211/1}
 Group   4 Type N   : 12s6p3d1f contracted to 6s3p3d1f pattern {621111/411/111/1}
 Group   5 Type O   : 12s7p3d1f contracted to 6s4p3d1f pattern {621111/4111/111/1}
 Group   6 Type F   : 12s7p3d1f contracted to 6s4p3d1f pattern {621111/4111/111/1}

Atom   0C    basis set group =>   1
Atom   1C    basis set group =>   1
Atom   2C    basis set group =>   1
Atom   3H    basis set group =>   2
Atom   4H    basis set group =>   2
Atom   5S    basis set group =>   3
Atom   6C    basis set group =>   1
Atom   7C    basis set group =>   1
Atom   8N    basis set group =>   4
Atom   9H    basis set group =>   2
Atom  10H    basis set group =>   2
Atom  11H    basis set group =>   2
Atom  12H    basis set group =>   2
Atom  13O    basis set group =>   5
Atom  14O    basis set group =>   5
Atom  15C    basis set group =>   1
Atom  16C    basis set group =>   1
Atom  17H    basis set group =>   2
Atom  18H    basis set group =>   2
Atom  19C    basis set group =>   1
Atom  20H    basis set group =>   2
Atom  21H    basis set group =>   2
Atom  22F    basis set group =>   6
Atom  23H    basis set group =>   2
Atom  24H    basis set group =>   2
Atom  25H    basis set group =>   2
Atom  26H    basis set group =>   2
Atom  27H    basis set group =>   2
Atom  28H    basis set group =>   2
---------------------------------
AUXILIARY/J BASIS SET INFORMATION
---------------------------------
There are 6 groups of distinct atoms

 Group   1 Type C   : 12s5p4d2f1g contracted to 6s4p3d1f1g pattern {711111/2111/211/2/1}
 Group   2 Type H   : 5s2p1d contracted to 3s1p1d pattern {311/2/1}
 Group   3 Type S   : 14s5p5d2f1g contracted to 8s4p3d1f1g pattern {71111111/2111/311/2/1}
 Group   4 Type N   : 12s5p4d2f1g contracted to 6s4p3d1f1g pattern {711111/2111/211/2/1}
 Group   5 Type O   : 12s5p4d2f1g contracted to 6s4p3d1f1g pattern {711111/2111/211/2/1}
 Group   6 Type F   : 12s5p4d2f1g contracted to 6s4p3d1f1g pattern {711111/2111/211/2/1}

Atom   0C    basis set group =>   1
Atom   1C    basis set group =>   1
Atom   2C    basis set group =>   1
Atom   3H    basis set group =>   2
Atom   4H    basis set group =>   2
Atom   5S    basis set group =>   3
Atom   6C    basis set group =>   1
Atom   7C    basis set group =>   1
Atom   8N    basis set group =>   4
Atom   9H    basis set group =>   2
Atom  10H    basis set group =>   2
Atom  11H    basis set group =>   2
Atom  12H    basis set group =>   2
Atom  13O    basis set group =>   5
Atom  14O    basis set group =>   5
Atom  15C    basis set group =>   1
Atom  16C    basis set group =>   1
Atom  17H    basis set group =>   2
Atom  18H    basis set group =>   2
Atom  19C    basis set group =>   1
Atom  20H    basis set group =>   2
Atom  21H    basis set group =>   2
Atom  22F    basis set group =>   6
Atom  23H    basis set group =>   2
Atom  24H    basis set group =>   2
Atom  25H    basis set group =>   2
Atom  26H    basis set group =>   2
Atom  27H    basis set group =>   2
Atom  28H    basis set group =>   2


           ************************************************************
           *        Program running with 4 parallel MPI-processes     *
           *              working on a common directory               *
           ************************************************************
------------------------------------------------------------------------------
                           ORCA GTO INTEGRAL CALCULATION
                           -- RI-GTO INTEGRALS CHOSEN --
------------------------------------------------------------------------------
------------------------------------------------------------------------------
                   ___                                                        
                  /   \      - P O W E R E D   B Y -                         
                 /     \                                                     
                 |  |  |   _    _      __       _____    __    __             
                 |  |  |  | |  | |    /  \     |  _  \  |  |  /  |          
                  \  \/   | |  | |   /    \    | | | |  |  | /  /          
                 / \  \   | |__| |  /  /\  \   | |_| |  |  |/  /          
                |  |  |   |  __  | /  /__\  \  |    /   |      \           
                |  |  |   | |  | | |   __   |  |    \   |  |\   \          
                \     /   | |  | | |  |  |  |  | |\  \  |  | \   \       
                 \___/    |_|  |_| |__|  |__|  |_| \__\ |__|  \__/        
                                                                              
                      - O R C A' S   B I G   F R I E N D -                    
                                      &                                       
                       - I N T E G R A L  F E E D E R -                       
                                                                              
 v1 FN, 2020, v2 2021                                                         
------------------------------------------------------------------------------


Reading SHARK input file 28Oct_TZVPD_PBE_D5_wb97.SHARKINP.tmp ... ok
----------------------
SHARK INTEGRAL PACKAGE
----------------------

Number of atoms                             ...     29
Number of basis functions                   ...    643
Number of shells                            ...    255
Maximum angular momentum                    ...      3
Integral batch strategy                     ... SHARK/LIBINT Hybrid
RI-J (if used) integral strategy            ... SPLIT-RIJ (Revised 2003 algorithm where possible)
Printlevel                                  ...      1
Contraction scheme used                     ... SEGMENTED contraction
Coulomb Range Separation                    ... NOT USED
Exchange Range Separation                   ... NOT USED
Finite Nucleus Model                        ... NOT USED
Auxiliary Coulomb fitting basis             ... AVAILABLE
   # of basis functions in Aux-J            ...    815
   # of shells in Aux-J                     ...    277
   Maximum angular momentum in Aux-J        ...      4
Auxiliary J/K fitting basis                 ... NOT available
Auxiliary Correlation fitting basis         ... NOT available
Auxiliary 'external' fitting basis          ... NOT available
Integral threshold                          ...     2.500000e-11
Primitive cut-off                           ...     2.500000e-12
Primitive pair pre-selection threshold      ...     2.500000e-12

Calculating pre-screening integrals         ... done (  0.2 sec) Dimension = 255
Organizing shell pair data                  ... done (  0.3 sec)
Shell pair information
Total number of shell pairs                 ...     32640
Shell pairs after pre-screening             ...     29451
Total number of primitive shell pairs       ...     84193
Primitive shell pairs kept                  ...     57466
          la=0 lb=0:   6907 shell pairs
          la=1 lb=0:   8817 shell pairs
          la=1 lb=1:   2833 shell pairs
          la=2 lb=0:   4474 shell pairs
          la=2 lb=1:   2841 shell pairs
          la=2 lb=2:    741 shell pairs
          la=3 lb=0:   1382 shell pairs
          la=3 lb=1:    906 shell pairs
          la=3 lb=2:    468 shell pairs
          la=3 lb=3:     82 shell pairs

Calculating one electron integrals          ... done (  0.1 sec)
Calculating RI/J V-Matrix + Cholesky decomp.... done (  0.1 sec)
Calculating Nuclear repulsion               ... done (  0.0 sec) ENN=   1087.715665744142 Eh

SHARK setup successfully completed in   0.7 seconds

Maximum memory used throughout the entire GTOINT-calculation: 43.0 MB


           ************************************************************
           *        Program running with 4 parallel MPI-processes     *
           *              working on a common directory               *
           ************************************************************
-------------------------------------------------------------------------------
                                 ORCA SCF
-------------------------------------------------------------------------------

------------
SCF SETTINGS
------------
Hamiltonian:
 Density Functional     Method          .... DFT(GTOs)
 Exchange Functional    Exchange        .... PBE
   PBE kappa parameter   XKappa         ....  0.804000
   PBE mue parameter    XMuePBE         ....  0.219520
 Correlation Functional Correlation     .... PBE
   PBE beta parameter  CBetaPBE         ....  0.066725
 LDA part of GGA corr.  LDAOpt          .... PW91-LDA
 Gradients option       PostSCFGGA      .... off
   Density functional embedding theory  .... OFF
   NL short-range parameter             ....  6.400000
 RI-approximation to the Coulomb term is turned on
   Number of AuxJ basis functions       .... 815


General Settings:
 Integral files         IntName         .... 28Oct_TZVPD_PBE_D5_wb97
 Hartree-Fock type      HFTyp           .... RHF
 Total Charge           Charge          ....    0
 Multiplicity           Mult            ....    1
 Number of Electrons    NEL             ....  112
 Basis Dimension        Dim             ....  643
 Nuclear Repulsion      ENuc            ....   1087.7156657441 Eh

Convergence Acceleration:
 DIIS                   CNVDIIS         .... on
   Start iteration      DIISMaxIt       ....    12
   Startup error        DIISStart       ....  0.200000
   # of expansion vecs  DIISMaxEq       ....     5
   Bias factor          DIISBfac        ....   1.050
   Max. coefficient     DIISMaxC        ....  10.000
 Trust-Rad. Augm. Hess. CNVTRAH         .... auto
   Auto Start mean grad. ratio tolernc. ....  1.125000
   Auto Start start iteration           ....    20
   Auto Start num. interpolation iter.  ....    10
   Max. Number of Micro iterations      ....    16
   Max. Number of Macro iterations      .... Maxiter - #DIIS iter
   Number of Davidson start vectors     ....     2
   Converg. threshold I  (grad. norm)   ....   1.000e-05
   Converg. threshold II (energy diff.) ....   1.000e-08
   Grad. Scal. Fac. for Micro threshold ....   0.100
   Minimum threshold for Micro iter.    ....   0.010
   NR start threshold (gradient norm)   ....   0.001
   Initial trust radius                 ....   0.400
   Minimum AH scaling param. (alpha)    ....   1.000
   Maximum AH scaling param. (alpha)    .... 1000.000
   Orbital update algorithm             .... Taylor
   White noise on init. David. guess    .... on
   Maximum white noise                  ....   0.010
   Quad. conv. algorithm                .... NR
 SOSCF                  CNVSOSCF        .... on
   Start iteration      SOSCFMaxIt      ....   150
   Startup grad/error   SOSCFStart      ....  0.003300
 Level Shifting         CNVShift        .... on
   Level shift para.    LevelShift      ....    0.2500
   Turn off err/grad.   ShiftErr        ....    0.0010
 Zerner damping         CNVZerner       .... off
 Static damping         CNVDamp         .... on
   Fraction old density DampFac         ....    0.7000
   Max. Damping (<1)    DampMax         ....    0.9800
   Min. Damping (>=0)   DampMin         ....    0.0000
   Turn off err/grad.   DampErr         ....    0.1000
 Fernandez-Rico         CNVRico         .... off

SCF Procedure:
 Maximum # iterations   MaxIter         ....   150
 SCF integral mode      SCFMode         .... Direct
   Integral package                     .... SHARK and LIBINT hybrid scheme
 Reset frequency        DirectResetFreq ....    20
 Integral Threshold     Thresh          ....  2.500e-11 Eh
 Primitive CutOff       TCut            ....  2.500e-12 Eh

Convergence Tolerance:
 Convergence Check Mode ConvCheckMode   .... Total+1el-Energy
 Convergence forced     ConvForced      .... 0
 Energy Change          TolE            ....  1.000e-08 Eh
 1-El. energy change                    ....  1.000e-05 Eh
 Orbital Gradient       TolG            ....  1.000e-05
 Orbital Rotation angle TolX            ....  1.000e-05
 DIIS Error             TolErr          ....  5.000e-07


Diagonalization of the overlap matrix:
Smallest eigenvalue                        ... 1.358e-06
Time for diagonalization                   ...    0.096 sec
Threshold for overlap eigenvalues          ... 1.000e-08
Number of eigenvalues below threshold      ... 0
Time for construction of square roots      ...    0.118 sec
Total time needed                          ...    0.218 sec

Time for model grid setup =    0.381 sec

------------------------------
INITIAL GUESS: MODEL POTENTIAL
------------------------------
Loading Hartree-Fock densities                     ... done
Calculating cut-offs                               ... done
Initializing the effective Hamiltonian             ... done
Setting up the integral package (SHARK)            ... done
Starting the Coulomb interaction                   ... done (   0.7 sec)
Reading the grid                                   ... done
Mapping shells                                     ... done
Starting the XC term evaluation                    ... done (   0.9 sec)
  promolecular density results
     # of electrons  =    111.991395762
     EX              =   -103.633215441
     EC              =     -3.882219376
     EX+EC           =   -107.515434817
Transforming the Hamiltonian                       ... done (   0.1 sec)
Diagonalizing the Hamiltonian                      ... done (   0.1 sec)
Back transforming the eigenvectors                 ... done (   0.0 sec)
Now organizing SCF variables                       ... done
                      ------------------
                      INITIAL GUESS DONE (   2.2 sec)
                      ------------------
-------------------
DFT GRID GENERATION
-------------------

General Integration Accuracy     IntAcc      ... 4.388
Radial Grid Type                 RadialGrid  ... OptM3 with GC (2021)
Angular Grid (max. ang.)         AngularGrid ... 4 (Lebedev-302)
Angular grid pruning method      GridPruning ... 4 (adaptive)
Weight generation scheme         WeightScheme... Becke
Basis function cutoff            BFCut       ... 1.0000e-11
Integration weight cutoff        WCut        ... 1.0000e-14
Angular grids for H and He will be reduced by one unit
Partially contracted basis set               ... off
Rotationally invariant grid construction     ... off

Total number of grid points                  ...   135122
Total number of batches                      ...     2125
Average number of points per batch           ...       63
Average number of grid points per atom       ...     4659
Time for grid setup =    1.424 sec

--------------
SCF ITERATIONS
--------------
ITER       Energy         Delta-E        Max-DP      RMS-DP      [F,P]     Damp
               ***  Starting incremental Fock matrix formation  ***
  0  -1016.3732047573   0.000000000000 0.92017664  0.00371846  0.2898445 0.7000
  1  -1016.6883536872  -0.315148929853 0.91422420  0.00325512  0.1001585 0.7000
                               ***Turning on DIIS***
  2  -1016.7725603186  -0.084206631425 1.18794077  0.00517835  0.0306178 0.0000
  3  -1016.9478621393  -0.175301820642 0.99219485  0.00297063  0.0703666 0.0000
  4  -1016.9775259063  -0.029663767039 0.34520184  0.00112667  0.0379542 0.0000
  5  -1016.9841847649  -0.006658858599 0.13185115  0.00051013  0.0047208 0.0000
  6  -1016.9843928975  -0.000208132617 0.09253622  0.00032217  0.0036498 0.0000
                      *** Initiating the SOSCF procedure ***
                           *** Shutting down DIIS ***
                      *** Re-Reading the Fockian *** 
                      *** Removing any level shift *** 
ITER      Energy       Delta-E        Grad      Rot      Max-DP    RMS-DP
  7  -1016.98443693  -0.0000440360  0.000185  0.000185  0.090875  0.000354
               *** Restarting incremental Fock matrix formation ***
  8  -1016.98444143  -0.0000044957  0.000051  0.000249  0.003575  0.000022
  9  -1016.98443963   0.0000018039  0.000132  0.000151  0.004831  0.000017
 10  -1016.98444214  -0.0000025102  0.000035  0.000086  0.002553  0.000014
 11  -1016.98444182   0.0000003162  0.000064  0.000058  0.002408  0.000014
 12  -1016.98444220  -0.0000003834  0.000005  0.000029  0.003082  0.000017
 13  -1016.98444218   0.0000000195  0.000015  0.000029  0.002804  0.000012
 14  -1016.98444221  -0.0000000249  0.000003  0.000011  0.004165  0.000017
 15  -1016.98444220   0.0000000081  0.000005  0.000005  0.001699  0.000010
                  ***Gradient check signals convergence***
              ***Rediagonalizing the Fockian in SOSCF/NRSCF***

               *****************************************************
               *                     SUCCESS                       *
               *           SCF CONVERGED AFTER  16 CYCLES          *
               *****************************************************


----------------
TOTAL SCF ENERGY
----------------

Total Energy       :        -1016.98444219 Eh          -27673.55357 eV

Components:
Nuclear Repulsion  :         1087.71566574 Eh           29598.24801 eV
Electronic Energy  :        -2104.70010794 Eh          -57271.80158 eV
One Electron Energy:        -3555.45829646 Eh          -96748.93887 eV
Two Electron Energy:         1450.75818852 Eh           39477.13729 eV

Virial components:
Potential Energy   :        -2031.67780702 Eh          -55284.76375 eV
Kinetic Energy     :         1014.69336483 Eh           27611.21018 eV
Virial Ratio       :            2.00225790


DFT components:
N(Alpha)           :       55.999996753066 electrons
N(Beta)            :       55.999996753066 electrons
N(Total)           :      111.999993506132 electrons
E(X)               :     -105.276161695274 Eh       
E(C)               :       -3.864670559694 Eh       
E(XC)              :     -109.140832254967 Eh       
DFET-embed. en.    :        0.000000000000 Eh       

---------------
SCF CONVERGENCE
---------------

  Last Energy change         ...    5.2552e-09  Tolerance :   1.0000e-08
  Last MAX-Density change    ...    7.1690e-03  Tolerance :   1.0000e-07
  Last RMS-Density change    ...    2.8205e-05  Tolerance :   5.0000e-09
  Last Orbital Gradient      ...    9.6985e-07  Tolerance :   1.0000e-05
  Last Orbital Rotation      ...    4.8416e-06  Tolerance :   1.0000e-05

             **** THE GBW FILE WAS UPDATED (28Oct_TZVPD_PBE_D5_wb97.gbw) ****
             **** DENSITY 28Oct_TZVPD_PBE_D5_wb97.scfp WAS UPDATED ****
             **** ENERGY FILE WAS UPDATED (28Oct_TZVPD_PBE_D5_wb97.en.tmp) ****
             **** THE GBW FILE WAS UPDATED (28Oct_TZVPD_PBE_D5_wb97.gbw) ****
             **** DENSITY 28Oct_TZVPD_PBE_D5_wb97.scfp WAS UPDATED ****
----------------
ORBITAL ENERGIES
----------------

  NO   OCC          E(Eh)            E(eV) 
   0   2.0000     -88.276725     -2402.1318 
   1   2.0000     -24.376560      -663.3199 
   2   2.0000     -18.773534      -510.8538 
   3   2.0000     -18.761075      -510.5148 
   4   2.0000     -13.976991      -380.3332 
   5   2.0000      -9.943194      -270.5681 
   6   2.0000      -9.916244      -269.8347 
   7   2.0000      -9.894528      -269.2438 
   8   2.0000      -9.885731      -269.0044 
   9   2.0000      -9.882831      -268.9255 
  10   2.0000      -9.881040      -268.8768 
  11   2.0000      -9.879868      -268.8449 
  12   2.0000      -9.793431      -266.4928 
  13   2.0000      -7.873013      -214.2356 
  14   2.0000      -5.897527      -160.4799 
  15   2.0000      -5.890739      -160.2952 
  16   2.0000      -5.890414      -160.2863 
  17   2.0000      -1.275101       -34.6973 
  18   2.0000      -1.028351       -27.9828 
  19   2.0000      -0.935502       -25.4563 
  20   2.0000      -0.848909       -23.1000 
  21   2.0000      -0.769860       -20.9490 
  22   2.0000      -0.729065       -19.8389 
  23   2.0000      -0.693832       -18.8801 
  24   2.0000      -0.660723       -17.9792 
  25   2.0000      -0.639508       -17.4019 
  26   2.0000      -0.614939       -16.7333 
  27   2.0000      -0.577784       -15.7223 
  28   2.0000      -0.541684       -14.7400 
  29   2.0000      -0.528956       -14.3936 
  30   2.0000      -0.518117       -14.0987 
  31   2.0000      -0.501455       -13.6453 
  32   2.0000      -0.491206       -13.3664 
  33   2.0000      -0.462627       -12.5887 
  34   2.0000      -0.448026       -12.1914 
  35   2.0000      -0.444146       -12.0858 
  36   2.0000      -0.426014       -11.5924 
  37   2.0000      -0.421800       -11.4778 
  38   2.0000      -0.407420       -11.0865 
  39   2.0000      -0.401782       -10.9330 
  40   2.0000      -0.386598       -10.5199 
  41   2.0000      -0.373528       -10.1642 
  42   2.0000      -0.356385        -9.6977 
  43   2.0000      -0.345882        -9.4119 
  44   2.0000      -0.343857        -9.3568 
  45   2.0000      -0.334055        -9.0901 
  46   2.0000      -0.326650        -8.8886 
  47   2.0000      -0.311528        -8.4771 
  48   2.0000      -0.307458        -8.3664 
  49   2.0000      -0.297453        -8.0941 
  50   2.0000      -0.291309        -7.9269 
  51   2.0000      -0.286679        -7.8009 
  52   2.0000      -0.281851        -7.6695 
  53   2.0000      -0.270744        -7.3673 
  54   2.0000      -0.263948        -7.1824 
  55   2.0000      -0.148229        -4.0335 
  56   0.0000      -0.043364        -1.1800 
  57   0.0000      -0.016393        -0.4461 
  58   0.0000      -0.014580        -0.3967 
  59   0.0000      -0.004155        -0.1131 
  60   0.0000       0.004495         0.1223 
  61   0.0000       0.007135         0.1941 
  62   0.0000       0.015309         0.4166 
  63   0.0000       0.016625         0.4524 
  64   0.0000       0.021167         0.5760 
  65   0.0000       0.027798         0.7564 
  66   0.0000       0.032040         0.8719 
  67   0.0000       0.038745         1.0543 
  68   0.0000       0.042562         1.1582 
  69   0.0000       0.051679         1.4063 
  70   0.0000       0.057359         1.5608 
  71   0.0000       0.058836         1.6010 
  72   0.0000       0.061599         1.6762 
  73   0.0000       0.067595         1.8394 
  74   0.0000       0.070845         1.9278 
  75   0.0000       0.075214         2.0467 
  76   0.0000       0.081245         2.2108 
  77   0.0000       0.091366         2.4862 
  78   0.0000       0.098630         2.6839 
  79   0.0000       0.103429         2.8145 
  80   0.0000       0.105994         2.8842 
  81   0.0000       0.108502         2.9525 
  82   0.0000       0.114423         3.1136 
  83   0.0000       0.117572         3.1993 
  84   0.0000       0.121412         3.3038 
  85   0.0000       0.129274         3.5177 
  86   0.0000       0.130711         3.5568 
  87   0.0000       0.131708         3.5839 
  88   0.0000       0.141969         3.8632 
  89   0.0000       0.143058         3.8928 
  90   0.0000       0.146641         3.9903 
  91   0.0000       0.149184         4.0595 
  92   0.0000       0.154142         4.1944 
  93   0.0000       0.157651         4.2899 
  94   0.0000       0.161406         4.3921 
  95   0.0000       0.166368         4.5271 
  96   0.0000       0.171685         4.6718 
  97   0.0000       0.175160         4.7664 
  98   0.0000       0.177255         4.8234 
  99   0.0000       0.182560         4.9677 
 100   0.0000       0.188848         5.1388 
 101   0.0000       0.192572         5.2401 
 102   0.0000       0.196235         5.3398 
 103   0.0000       0.199336         5.4242 
 104   0.0000       0.200716         5.4618 
 105   0.0000       0.205763         5.5991 
 106   0.0000       0.208446         5.6721 
 107   0.0000       0.213623         5.8130 
 108   0.0000       0.218610         5.9487 
 109   0.0000       0.220901         6.0110 
 110   0.0000       0.225320         6.1313 
 111   0.0000       0.229087         6.2338 
 112   0.0000       0.234836         6.3902 
 113   0.0000       0.239408         6.5146 
 114   0.0000       0.243479         6.6254 
 115   0.0000       0.246137         6.6977 
 116   0.0000       0.248999         6.7756 
 117   0.0000       0.253994         6.9115 
 118   0.0000       0.258915         7.0454 
 119   0.0000       0.261666         7.1203 
 120   0.0000       0.266705         7.2574 
 121   0.0000       0.268686         7.3113 
 122   0.0000       0.274892         7.4802 
 123   0.0000       0.277406         7.5486 
 124   0.0000       0.281044         7.6476 
 125   0.0000       0.281161         7.6508 
 126   0.0000       0.286476         7.7954 
 127   0.0000       0.289531         7.8785 
 128   0.0000       0.293778         7.9941 
 129   0.0000       0.294233         8.0065 
 130   0.0000       0.297312         8.0903 
 131   0.0000       0.303785         8.2664 
 132   0.0000       0.306148         8.3307 
 133   0.0000       0.312057         8.4915 
 134   0.0000       0.318321         8.6619 
 135   0.0000       0.322070         8.7640 
 136   0.0000       0.323790         8.8108 
 137   0.0000       0.324642         8.8340 
 138   0.0000       0.330802         9.0016 
 139   0.0000       0.333870         9.0851 
 140   0.0000       0.335779         9.1370 
 141   0.0000       0.338632         9.2147 
 142   0.0000       0.342467         9.3190 
 143   0.0000       0.348891         9.4938 
 144   0.0000       0.351984         9.5780 
 145   0.0000       0.354843         9.6558 
 146   0.0000       0.359620         9.7858 
 147   0.0000       0.363170         9.8824 
 148   0.0000       0.363755         9.8983 
 149   0.0000       0.367451         9.9988 
 150   0.0000       0.368368        10.0238 
 151   0.0000       0.371428        10.1071 
 152   0.0000       0.373412        10.1610 
 153   0.0000       0.382644        10.4123 
 154   0.0000       0.387756        10.5514 
 155   0.0000       0.391109        10.6426 
 156   0.0000       0.394676        10.7397 
 157   0.0000       0.396844        10.7987 
 158   0.0000       0.401183        10.9168 
 159   0.0000       0.404451        11.0057 
 160   0.0000       0.408191        11.1074 
 161   0.0000       0.414177        11.2703 
 162   0.0000       0.419786        11.4230 
 163   0.0000       0.424941        11.5632 
 164   0.0000       0.428636        11.6638 
 165   0.0000       0.431104        11.7309 
 166   0.0000       0.433582        11.7984 
 167   0.0000       0.436361        11.8740 
 168   0.0000       0.438403        11.9295 
 169   0.0000       0.444559        12.0971 
 170   0.0000       0.449102        12.2207 
 171   0.0000       0.455728        12.4010 
 172   0.0000       0.460735        12.5372 
 173   0.0000       0.461848        12.5675 
 174   0.0000       0.466621        12.6974 
 175   0.0000       0.469008        12.7623 
 176   0.0000       0.472192        12.8490 
 177   0.0000       0.477501        12.9935 
 178   0.0000       0.480317        13.0701 
 179   0.0000       0.486794        13.2463 
 180   0.0000       0.489656        13.3242 
 181   0.0000       0.495988        13.4965 
 182   0.0000       0.497491        13.5374 
 183   0.0000       0.499382        13.5889 
 184   0.0000       0.504338        13.7237 
 185   0.0000       0.511061        13.9067 
 186   0.0000       0.515974        14.0404 
 187   0.0000       0.521635        14.1944 
 188   0.0000       0.523840        14.2544 
 189   0.0000       0.526846        14.3362 
 190   0.0000       0.531822        14.4716 
 191   0.0000       0.540269        14.7015 
 192   0.0000       0.542902        14.7731 
 193   0.0000       0.550609        14.9828 
 194   0.0000       0.553480        15.0610 
 195   0.0000       0.558948        15.2098 
 196   0.0000       0.565600        15.3908 
 197   0.0000       0.569467        15.4960 
 198   0.0000       0.570907        15.5352 
 199   0.0000       0.575151        15.6507 
 200   0.0000       0.578392        15.7388 
 201   0.0000       0.587882        15.9971 
 202   0.0000       0.591782        16.1032 
 203   0.0000       0.594201        16.1690 
 204   0.0000       0.600960        16.3530 
 205   0.0000       0.605581        16.4787 
 206   0.0000       0.610520        16.6131 
 207   0.0000       0.611741        16.6463 
 208   0.0000       0.612428        16.6650 
 209   0.0000       0.619078        16.8460 
 210   0.0000       0.625436        17.0190 
 211   0.0000       0.627175        17.0663 
 212   0.0000       0.630661        17.1611 
 213   0.0000       0.633602        17.2412 
 214   0.0000       0.636058        17.3080 
 215   0.0000       0.639512        17.4020 
 216   0.0000       0.644584        17.5400 
 217   0.0000       0.649875        17.6840 
 218   0.0000       0.657172        17.8826 
 219   0.0000       0.659573        17.9479 
 220   0.0000       0.661162        17.9911 
 221   0.0000       0.665950        18.1214 
 222   0.0000       0.672771        18.3070 
 223   0.0000       0.673856        18.3366 
 224   0.0000       0.677374        18.4323 
 225   0.0000       0.681631        18.5481 
 226   0.0000       0.687601        18.7106 
 227   0.0000       0.695956        18.9379 
 228   0.0000       0.696946        18.9649 
 229   0.0000       0.703659        19.1475 
 230   0.0000       0.707293        19.2464 
 231   0.0000       0.710927        19.3453 
 232   0.0000       0.714567        19.4443 
 233   0.0000       0.722222        19.6527 
 234   0.0000       0.726884        19.7795 
 235   0.0000       0.733847        19.9690 
 236   0.0000       0.736748        20.0479 
 237   0.0000       0.740845        20.1594 
 238   0.0000       0.748907        20.3788 
 239   0.0000       0.749611        20.3979 
 240   0.0000       0.751649        20.4534 
 241   0.0000       0.755386        20.5551 
 242   0.0000       0.761781        20.7291 
 243   0.0000       0.768705        20.9175 
 244   0.0000       0.770834        20.9755 
 245   0.0000       0.775364        21.0987 
 246   0.0000       0.779694        21.2166 
 247   0.0000       0.787726        21.4351 
 248   0.0000       0.792604        21.5678 
 249   0.0000       0.799135        21.7456 
 250   0.0000       0.804782        21.8992 
 251   0.0000       0.815939        22.2028 
 252   0.0000       0.818285        22.2667 
 253   0.0000       0.819861        22.3096 
 254   0.0000       0.826559        22.4918 
 255   0.0000       0.829792        22.5798 
 256   0.0000       0.838089        22.8056 
 257   0.0000       0.843186        22.9442 
 258   0.0000       0.847730        23.0679 
 259   0.0000       0.850477        23.1426 
 260   0.0000       0.859907        23.3993 
 261   0.0000       0.860686        23.4205 
 262   0.0000       0.869129        23.6502 
 263   0.0000       0.877812        23.8865 
 264   0.0000       0.882467        24.0131 
 265   0.0000       0.892332        24.2816 
 266   0.0000       0.899828        24.4856 
 267   0.0000       0.907945        24.7064 
 268   0.0000       0.910311        24.7708 
 269   0.0000       0.912433        24.8286 
 270   0.0000       0.923317        25.1247 
 271   0.0000       0.927306        25.2333 
 272   0.0000       0.932120        25.3643 
 273   0.0000       0.941621        25.6228 
 274   0.0000       0.942270        25.6405 
 275   0.0000       0.950245        25.8575 
 276   0.0000       0.958902        26.0930 
 277   0.0000       0.964020        26.2323 
 278   0.0000       0.975520        26.5452 
 279   0.0000       0.982156        26.7258 
 280   0.0000       0.986004        26.8305 
 281   0.0000       0.988882        26.9089 
 282   0.0000       1.000757        27.2320 
 283   0.0000       1.013680        27.5836 
 284   0.0000       1.015831        27.6422 
 285   0.0000       1.022747        27.8304 
 286   0.0000       1.027388        27.9567 
 287   0.0000       1.040951        28.3257 
 288   0.0000       1.063467        28.9384 
 289   0.0000       1.070206        29.1218 
 290   0.0000       1.073837        29.2206 
 291   0.0000       1.087703        29.5979 
 292   0.0000       1.090261        29.6675 
 293   0.0000       1.104590        30.0574 
 294   0.0000       1.117482        30.4082 
 295   0.0000       1.134306        30.8660 
 296   0.0000       1.141826        31.0707 
 297   0.0000       1.159488        31.5513 
 298   0.0000       1.165579        31.7170 
 299   0.0000       1.169320        31.8188 
 300   0.0000       1.184996        32.2454 
 301   0.0000       1.192206        32.4416 
 302   0.0000       1.201630        32.6980 
 303   0.0000       1.214018        33.0351 
 304   0.0000       1.221287        33.2329 
 305   0.0000       1.231981        33.5239 
 306   0.0000       1.233049        33.5530 
 307   0.0000       1.241617        33.7861 
 308   0.0000       1.248032        33.9607 
 309   0.0000       1.268889        34.5282 
 310   0.0000       1.276794        34.7433 
 311   0.0000       1.282261        34.8921 
 312   0.0000       1.287608        35.0376 
 313   0.0000       1.301585        35.4179 
 314   0.0000       1.318696        35.8835 
 315   0.0000       1.331533        36.2329 
 316   0.0000       1.351523        36.7768 
 317   0.0000       1.354623        36.8612 
 318   0.0000       1.362292        37.0699 
 319   0.0000       1.368764        37.2460 
 320   0.0000       1.379786        37.5459 
 321   0.0000       1.382431        37.6179 
 322   0.0000       1.400198        38.1013 
 323   0.0000       1.411869        38.4189 
 324   0.0000       1.423928        38.7471 
 325   0.0000       1.436982        39.1023 
 326   0.0000       1.452943        39.5366 
 327   0.0000       1.464407        39.8485 
 328   0.0000       1.469254        39.9804 
 329   0.0000       1.483547        40.3694 
 330   0.0000       1.498292        40.7706 
 331   0.0000       1.506113        40.9834 
 332   0.0000       1.508374        41.0450 
 333   0.0000       1.522442        41.4278 
 334   0.0000       1.539639        41.8957 
 335   0.0000       1.547719        42.1156 
 336   0.0000       1.567372        42.6504 
 337   0.0000       1.578266        42.9468 
 338   0.0000       1.581215        43.0270 
 339   0.0000       1.607492        43.7421 
 340   0.0000       1.626984        44.2725 
 341   0.0000       1.661601        45.2145 
 342   0.0000       1.676732        45.6262 
 343   0.0000       1.681392        45.7530 
 344   0.0000       1.707410        46.4610 
 345   0.0000       1.714723        46.6600 
 346   0.0000       1.724993        46.9394 
 347   0.0000       1.731758        47.1235 
 348   0.0000       1.752521        47.6885 
 349   0.0000       1.759676        47.8832 
 350   0.0000       1.772621        48.2355 
 351   0.0000       1.784345        48.5545 
 352   0.0000       1.791127        48.7390 
 353   0.0000       1.800111        48.9835 
 354   0.0000       1.806284        49.1515 
 355   0.0000       1.810652        49.2704 
 356   0.0000       1.818153        49.4744 
 357   0.0000       1.828281        49.7501 
 358   0.0000       1.830669        49.8150 
 359   0.0000       1.846152        50.2364 
 360   0.0000       1.854224        50.4560 
 361   0.0000       1.858132        50.5623 
 362   0.0000       1.862161        50.6720 
 363   0.0000       1.872445        50.9518 
 364   0.0000       1.877263        51.0829 
 365   0.0000       1.886395        51.3314 
 366   0.0000       1.895712        51.5850 
 367   0.0000       1.900864        51.7251 
 368   0.0000       1.911421        52.0124 
 369   0.0000       1.916477        52.1500 
 370   0.0000       1.923111        52.3305 
 371   0.0000       1.929150        52.4948 
 372   0.0000       1.946538        52.9680 
 373   0.0000       1.960250        53.3411 
 374   0.0000       1.962588        53.4047 
 375   0.0000       1.974591        53.7313 
 376   0.0000       1.991603        54.1943 
 377   0.0000       2.000707        54.4420 
 378   0.0000       2.012885        54.7734 
 379   0.0000       2.031900        55.2908 
 380   0.0000       2.043532        55.6073 
 381   0.0000       2.051530        55.8250 
 382   0.0000       2.064878        56.1882 
 383   0.0000       2.071336        56.3639 
 384   0.0000       2.078097        56.5479 
 385   0.0000       2.090582        56.8876 
 386   0.0000       2.103595        57.2417 
 387   0.0000       2.116204        57.5848 
 388   0.0000       2.132481        58.0278 
 389   0.0000       2.146141        58.3995 
 390   0.0000       2.162060        58.8326 
 391   0.0000       2.169305        59.0298 
 392   0.0000       2.182551        59.3902 
 393   0.0000       2.198523        59.8249 
 394   0.0000       2.214581        60.2618 
 395   0.0000       2.223639        60.5083 
 396   0.0000       2.231912        60.7334 
 397   0.0000       2.251378        61.2631 
 398   0.0000       2.259284        61.4783 
 399   0.0000       2.265868        61.6574 
 400   0.0000       2.274404        61.8897 
 401   0.0000       2.293851        62.4189 
 402   0.0000       2.303399        62.6787 
 403   0.0000       2.332406        63.4680 
 404   0.0000       2.335072        63.5405 
 405   0.0000       2.350217        63.9526 
 406   0.0000       2.356462        64.1226 
 407   0.0000       2.377576        64.6971 
 408   0.0000       2.388692        64.9996 
 409   0.0000       2.408804        65.5469 
 410   0.0000       2.415617        65.7323 
 411   0.0000       2.421100        65.8815 
 412   0.0000       2.426995        66.0419 
 413   0.0000       2.453313        66.7580 
 414   0.0000       2.460980        66.9667 
 415   0.0000       2.466362        67.1131 
 416   0.0000       2.498178        67.9789 
 417   0.0000       2.511916        68.3527 
 418   0.0000       2.517027        68.4918 
 419   0.0000       2.520532        68.5872 
 420   0.0000       2.529536        68.8322 
 421   0.0000       2.544535        69.2403 
 422   0.0000       2.560336        69.6703 
 423   0.0000       2.564409        69.7811 
 424   0.0000       2.569337        69.9152 
 425   0.0000       2.582912        70.2846 
 426   0.0000       2.592242        70.5385 
 427   0.0000       2.604728        70.8783 
 428   0.0000       2.609847        71.0176 
 429   0.0000       2.616299        71.1931 
 430   0.0000       2.633863        71.6711 
 431   0.0000       2.639831        71.8335 
 432   0.0000       2.646956        72.0273 
 433   0.0000       2.657484        72.3138 
 434   0.0000       2.662260        72.4438 
 435   0.0000       2.672338        72.7180 
 436   0.0000       2.687030        73.1178 
 437   0.0000       2.693107        73.2832 
 438   0.0000       2.698708        73.4356 
 439   0.0000       2.712605        73.8137 
 440   0.0000       2.715303        73.8872 
 441   0.0000       2.728425        74.2442 
 442   0.0000       2.744548        74.6829 
 443   0.0000       2.753903        74.9375 
 444   0.0000       2.758781        75.0702 
 445   0.0000       2.780136        75.6514 
 446   0.0000       2.782970        75.7285 
 447   0.0000       2.789422        75.9040 
 448   0.0000       2.802387        76.2568 
 449   0.0000       2.814778        76.5940 
 450   0.0000       2.827936        76.9520 
 451   0.0000       2.831666        77.0535 
 452   0.0000       2.838488        77.2392 
 453   0.0000       2.847723        77.4905 
 454   0.0000       2.859467        77.8101 
 455   0.0000       2.874774        78.2266 
 456   0.0000       2.884490        78.4910 
 457   0.0000       2.903511        79.0086 
 458   0.0000       2.918682        79.4214 
 459   0.0000       2.937234        79.9262 
 460   0.0000       2.942673        80.0742 
 461   0.0000       2.949356        80.2561 
 462   0.0000       2.961291        80.5808 
 463   0.0000       2.979926        81.0879 
 464   0.0000       2.987742        81.3006 
 465   0.0000       2.996643        81.5428 
 466   0.0000       3.045198        82.8641 
 467   0.0000       3.049394        82.9782 
 468   0.0000       3.065309        83.4113 
 469   0.0000       3.084130        83.9234 
 470   0.0000       3.091292        84.1183 
 471   0.0000       3.097764        84.2944 
 472   0.0000       3.120979        84.9261 
 473   0.0000       3.132481        85.2391 
 474   0.0000       3.142546        85.5130 
 475   0.0000       3.144839        85.5754 
 476   0.0000       3.166407        86.1623 
 477   0.0000       3.182320        86.5953 
 478   0.0000       3.192353        86.8683 
 479   0.0000       3.202735        87.1508 
 480   0.0000       3.212608        87.4195 
 481   0.0000       3.229513        87.8795 
 482   0.0000       3.234455        88.0140 
 483   0.0000       3.254884        88.5699 
 484   0.0000       3.272151        89.0398 
 485   0.0000       3.272896        89.0600 
 486   0.0000       3.286171        89.4212 
 487   0.0000       3.294212        89.6401 
 488   0.0000       3.308789        90.0367 
 489   0.0000       3.311681        90.1154 
 490   0.0000       3.325204        90.4834 
 491   0.0000       3.335777        90.7711 
 492   0.0000       3.344228        91.0011 
 493   0.0000       3.356480        91.3345 
 494   0.0000       3.359357        91.4127 
 495   0.0000       3.368334        91.6570 
 496   0.0000       3.372530        91.7712 
 497   0.0000       3.384461        92.0959 
 498   0.0000       3.404896        92.6519 
 499   0.0000       3.413072        92.8744 
 500   0.0000       3.417936        93.0068 
 501   0.0000       3.428159        93.2850 
 502   0.0000       3.442850        93.6847 
 503   0.0000       3.451342        93.9158 
 504   0.0000       3.478010        94.6415 
 505   0.0000       3.486923        94.8840 
 506   0.0000       3.490742        94.9879 
 507   0.0000       3.505249        95.3827 
 508   0.0000       3.512545        95.5812 
 509   0.0000       3.526608        95.9639 
 510   0.0000       3.536006        96.2196 
 511   0.0000       3.544582        96.4530 
 512   0.0000       3.569571        97.1330 
 513   0.0000       3.577125        97.3385 
 514   0.0000       3.578743        97.3826 
 515   0.0000       3.602588        98.0314 
 516   0.0000       3.613130        98.3183 
 517   0.0000       3.623615        98.6036 
 518   0.0000       3.640407        99.0605 
 519   0.0000       3.647902        99.2645 
 520   0.0000       3.680962       100.1641 
 521   0.0000       3.682561       100.2076 
 522   0.0000       3.692436       100.4763 
 523   0.0000       3.715665       101.1084 
 524   0.0000       3.734734       101.6273 
 525   0.0000       3.738078       101.7183 
 526   0.0000       3.776057       102.7517 
 527   0.0000       3.790621       103.1480 
 528   0.0000       3.810805       103.6973 
 529   0.0000       3.824311       104.0648 
 530   0.0000       3.846930       104.6803 
 531   0.0000       3.858888       105.0057 
 532   0.0000       3.879410       105.5641 
 533   0.0000       3.900134       106.1280 
 534   0.0000       3.918046       106.6154 
 535   0.0000       3.921982       106.7226 
 536   0.0000       3.965327       107.9020 
 537   0.0000       3.970783       108.0505 
 538   0.0000       3.991398       108.6115 
 539   0.0000       4.002151       108.9041 
 540   0.0000       4.014093       109.2290 
 541   0.0000       4.035727       109.8177 
 542   0.0000       4.052136       110.2642 
 543   0.0000       4.068674       110.7142 
 544   0.0000       4.091913       111.3466 
 545   0.0000       4.104986       111.7023 
 546   0.0000       4.109707       111.8308 
 547   0.0000       4.149159       112.9044 
 548   0.0000       4.159554       113.1872 
 549   0.0000       4.225386       114.9786 
 550   0.0000       4.238172       115.3265 
 551   0.0000       4.268062       116.1399 
 552   0.0000       4.293273       116.8259 
 553   0.0000       4.315307       117.4255 
 554   0.0000       4.320563       117.5685 
 555   0.0000       4.347809       118.3099 
 556   0.0000       4.370899       118.9382 
 557   0.0000       4.402074       119.7865 
 558   0.0000       4.414974       120.1375 
 559   0.0000       4.456997       121.2811 
 560   0.0000       4.499406       122.4351 
 561   0.0000       4.504915       122.5850 
 562   0.0000       4.516035       122.8876 
 563   0.0000       4.572250       124.4173 
 564   0.0000       4.600930       125.1977 
 565   0.0000       4.619611       125.7060 
 566   0.0000       4.624463       125.8380 
 567   0.0000       4.647806       126.4732 
 568   0.0000       4.655816       126.6912 
 569   0.0000       4.680440       127.3612 
 570   0.0000       4.718767       128.4042 
 571   0.0000       4.765401       129.6731 
 572   0.0000       4.789969       130.3417 
 573   0.0000       4.802029       130.6698 
 574   0.0000       4.831154       131.4624 
 575   0.0000       4.865174       132.3881 
 576   0.0000       4.885862       132.9511 
 577   0.0000       4.947020       134.6153 
 578   0.0000       4.963749       135.0705 
 579   0.0000       5.004922       136.1909 
 580   0.0000       5.013040       136.4117 
 581   0.0000       5.032921       136.9527 
 582   0.0000       5.054740       137.5465 
 583   0.0000       5.067416       137.8914 
 584   0.0000       5.076930       138.1503 
 585   0.0000       5.096158       138.6735 
 586   0.0000       5.098842       138.7465 
 587   0.0000       5.118090       139.2703 
 588   0.0000       5.148354       140.0938 
 589   0.0000       5.155950       140.3005 
 590   0.0000       5.163050       140.4937 
 591   0.0000       5.253254       142.9483 
 592   0.0000       5.293170       144.0345 
 593   0.0000       5.338358       145.2641 
 594   0.0000       5.390635       146.6866 
 595   0.0000       5.420148       147.4897 
 596   0.0000       5.425861       147.6452 
 597   0.0000       5.461482       148.6145 
 598   0.0000       5.487067       149.3107 
 599   0.0000       5.495007       149.5267 
 600   0.0000       5.520772       150.2278 
 601   0.0000       5.544063       150.8616 
 602   0.0000       5.642170       153.5312 
 603   0.0000       5.747206       156.3894 
 604   0.0000       6.023219       163.9001 
 605   0.0000       6.329741       172.2410 
 606   0.0000       6.348912       172.7627 
 607   0.0000       6.417557       174.6306 
 608   0.0000       6.472367       176.1221 
 609   0.0000       6.558080       178.4544 
 610   0.0000       6.579822       179.0460 
 611   0.0000       6.612190       179.9268 
 612   0.0000       6.652623       181.0271 
 613   0.0000       6.691353       182.0810 
 614   0.0000       6.730729       183.1524 
 615   0.0000       6.778344       184.4481 
 616   0.0000       6.804067       185.1481 
 617   0.0000       6.857314       186.5970 
 618   0.0000       6.911790       188.0794 
 619   0.0000       6.965730       189.5472 
 620   0.0000       6.978242       189.8876 
 621   0.0000       7.020131       191.0275 
 622   0.0000       8.331159       226.7024 
 623   0.0000       8.372915       227.8386 
 624   0.0000       8.524818       231.9721 
 625   0.0000       8.586530       233.6513 
 626   0.0000       8.793641       239.2871 
 627   0.0000       9.370801       254.9925 
 628   0.0000       9.640521       262.3319 
 629   0.0000       9.739768       265.0326 
 630   0.0000      22.216411       604.5393 
 631   0.0000      22.455355       611.0413 
 632   0.0000      22.490715       612.0035 
 633   0.0000      22.557799       613.8289 
 634   0.0000      22.594011       614.8143 
 635   0.0000      22.654202       616.4522 
 636   0.0000      22.683265       617.2430 
 637   0.0000      22.721366       618.2798 
 638   0.0000      23.269526       633.1960 
 639   0.0000      32.366764       880.7444 
 640   0.0000      43.756238      1190.6678 
 641   0.0000      43.856911      1193.4072 
 642   0.0000      57.177918      1555.8903 

                    ********************************
                    * MULLIKEN POPULATION ANALYSIS *
                    ********************************

-----------------------
MULLIKEN ATOMIC CHARGES
-----------------------
   0 C :   -0.357692
   1 C :   -0.352039
   2 C :   -0.539511
   3 H :    0.337873
   4 H :    0.192044
   5 S :    1.000724
   6 C :    0.259551
   7 C :   -1.152991
   8 N :   -0.232733
   9 H :    0.239824
  10 H :    0.170691
  11 H :    0.299240
  12 H :    0.458980
  13 O :   -0.574049
  14 O :   -0.496094
  15 C :   -0.319354
  16 C :   -0.102625
  17 H :    0.189098
  18 H :    0.167658
  19 C :   -0.363608
  20 H :    0.244833
  21 H :    0.166420
  22 F :   -0.159444
  23 H :    0.306558
  24 H :    0.126789
  25 H :    0.080073
  26 H :    0.134766
  27 H :    0.199600
  28 H :    0.075418
Sum of atomic charges:   -0.0000000

--------------------------------
MULLIKEN REDUCED ORBITAL CHARGES
--------------------------------
  0 C s       :     3.224769  s :     3.224769
      pz      :     0.968987  p :     3.072004
      px      :     1.018599
      py      :     1.084418
      dz2     :    -0.037397  d :     0.055794
      dxz     :     0.004836
      dyz     :     0.018669
      dx2y2   :     0.072631
      dxy     :    -0.002946
      f0      :     0.000955  f :     0.005125
      f+1     :     0.000830
      f-1     :     0.000809
      f+2     :     0.000743
      f-2     :     0.000302
      f+3     :     0.000730
      f-3     :     0.000756
  1 C s       :     3.092063  s :     3.092063
      pz      :     1.009153  p :     3.179542
      px      :     1.000733
      py      :     1.169657
      dz2     :     0.010080  d :     0.075213
      dxz     :     0.036665
      dyz     :     0.026760
      dx2y2   :     0.012212
      dxy     :    -0.010504
      f0      :     0.001154  f :     0.005221
      f+1     :     0.001010
      f-1     :     0.000492
      f+2     :     0.001080
      f-2     :     0.000954
      f+3     :     0.000070
      f-3     :     0.000460
  2 C s       :     3.330652  s :     3.330652
      pz      :     1.120317  p :     3.063707
      px      :     1.091652
      py      :     0.851738
      dz2     :     0.020533  d :     0.140812
      dxz     :     0.041840
      dyz     :     0.046527
      dx2y2   :     0.009305
      dxy     :     0.022607
      f0      :     0.000583  f :     0.004340
      f+1     :     0.000865
      f-1     :     0.000423
      f+2     :     0.000652
      f-2     :     0.000901
      f+3     :     0.000390
      f-3     :     0.000525
  3 H s       :     0.635256  s :     0.635256
      pz      :     0.002303  p :     0.026872
      px      :     0.022448
      py      :     0.002122
  4 H s       :     0.784680  s :     0.784680
      pz      :     0.018503  p :     0.023275
      px      :     0.008529
      py      :    -0.003756
  5 S s       :     5.449740  s :     5.449740
      pz      :     2.678077  p :     8.222674
      px      :     2.721784
      py      :     2.822813
      dz2     :     0.222711  d :     1.208350
      dxz     :     0.286380
      dyz     :     0.250377
      dx2y2   :     0.194558
      dxy     :     0.254324
      f0      :     0.011499  f :     0.118513
      f+1     :     0.031583
      f-1     :     0.019246
      f+2     :     0.012093
      f-2     :     0.015916
      f+3     :     0.014570
      f-3     :     0.013605
  6 C s       :     3.317854  s :     3.317854
      pz      :     0.598516  p :     2.162902
      px      :     0.779919
      py      :     0.784467
      dz2     :     0.041123  d :     0.245294
      dxz     :     0.044022
      dyz     :     0.037824
      dx2y2   :     0.131269
      dxy     :    -0.008944
      f0      :     0.001938  f :     0.014399
      f+1     :     0.002634
      f-1     :     0.001829
      f+2     :     0.002943
      f-2     :     0.001965
      f+3     :     0.001823
      f-3     :     0.001269
  7 C s       :     3.543572  s :     3.543572
      pz      :     1.298465  p :     3.564350
      px      :     1.136425
      py      :     1.129460
      dz2     :     0.022830  d :     0.040774
      dxz     :    -0.009598
      dyz     :    -0.003776
      dx2y2   :     0.012155
      dxy     :     0.019162
      f0      :     0.000653  f :     0.004294
      f+1     :     0.000445
      f-1     :     0.000254
      f+2     :     0.000302
      f-2     :     0.000677
      f+3     :     0.001375
      f-3     :     0.000589
  8 N s       :     3.364106  s :     3.364106
      pz      :     1.081563  p :     3.813094
      px      :     1.134277
      py      :     1.597254
      dz2     :     0.013656  d :     0.052493
      dxz     :     0.003368
      dyz     :     0.011917
      dx2y2   :     0.003868
      dxy     :     0.019685
      f0      :     0.000570  f :     0.003040
      f+1     :     0.000364
      f-1     :     0.000409
      f+2     :     0.000471
      f-2     :     0.000215
      f+3     :     0.000595
      f-3     :     0.000416
  9 H s       :     0.756547  s :     0.756547
      pz      :    -0.002194  p :     0.003629
      px      :     0.008844
      py      :    -0.003021
 10 H s       :     0.837870  s :     0.837870
      pz      :     0.013211  p :    -0.008561
      px      :    -0.003454
      py      :    -0.018318
 11 H s       :     0.637657  s :     0.637657
      pz      :     0.030898  p :     0.063103
      px      :    -0.014350
      py      :     0.046555
 12 H s       :     0.548664  s :     0.548664
      pz      :     0.029308  p :    -0.007644
      px      :    -0.023195
      py      :    -0.013758
 13 O s       :     3.967401  s :     3.967401
      pz      :     1.630758  p :     4.546519
      px      :     1.261163
      py      :     1.654598
      dz2     :     0.007503  d :     0.058334
      dxz     :     0.017168
      dyz     :     0.005563
      dx2y2   :     0.009670
      dxy     :     0.018430
      f0      :     0.000164  f :     0.001794
      f+1     :     0.000421
      f-1     :     0.000030
      f+2     :     0.000340
      f-2     :     0.000232
      f+3     :     0.000304
      f-3     :     0.000304
 14 O s       :     3.926634  s :     3.926634
      pz      :     1.252242  p :     4.518031
      px      :     1.643035
      py      :     1.622755
      dz2     :     0.019305  d :     0.049443
      dxz     :     0.013286
      dyz     :     0.014942
      dx2y2   :     0.001335
      dxy     :     0.000574
      f0      :     0.000658  f :     0.001986
      f+1     :     0.000608
      f-1     :     0.000610
      f+2     :     0.000055
      f-2     :     0.000052
      f+3     :     0.000002
      f-3     :     0.000002
 15 C s       :     2.999866  s :     2.999866
      pz      :     1.095179  p :     3.198230
      px      :     1.102297
      py      :     1.000754
      dz2     :     0.033556  d :     0.116110
      dxz     :     0.033674
      dyz     :     0.004525
      dx2y2   :     0.078819
      dxy     :    -0.034464
      f0      :     0.000847  f :     0.005148
      f+1     :     0.000586
      f-1     :     0.000761
      f+2     :     0.001252
      f-2     :     0.000342
      f+3     :     0.000781
      f-3     :     0.000580
 16 C s       :     3.044618  s :     3.044618
      pz      :     1.017024  p :     2.977291
      px      :     0.911747
      py      :     1.048519
      dz2     :    -0.024850  d :     0.075532
      dxz     :     0.102414
      dyz     :     0.011468
      dx2y2   :     0.004001
      dxy     :    -0.017500
      f0      :     0.000735  f :     0.005184
      f+1     :     0.001059
      f-1     :     0.000492
      f+2     :     0.001190
      f-2     :     0.000607
      f+3     :     0.000461
      f-3     :     0.000640
 17 H s       :     0.771619  s :     0.771619
      pz      :     0.008498  p :     0.039283
      px      :     0.024399
      py      :     0.006386
 18 H s       :     0.797760  s :     0.797760
      pz      :     0.009276  p :     0.034582
      px      :    -0.008975
      py      :     0.034281
 19 C s       :     3.174184  s :     3.174184
      pz      :     1.138930  p :     3.048658
      px      :     0.939999
      py      :     0.969729
      dz2     :    -0.008280  d :     0.135584
      dxz     :     0.088143
      dyz     :     0.048017
      dx2y2   :     0.028884
      dxy     :    -0.021181
      f0      :     0.000650  f :     0.005183
      f+1     :     0.001051
      f-1     :     0.000445
      f+2     :     0.001283
      f-2     :     0.000660
      f+3     :     0.000492
      f-3     :     0.000602
 20 H s       :     0.740194  s :     0.740194
      pz      :    -0.007303  p :     0.014973
      px      :     0.020924
      py      :     0.001352
 21 H s       :     0.783004  s :     0.783004
      pz      :     0.008281  p :     0.050576
      px      :     0.012938
      py      :     0.029358
 22 F s       :     3.944046  s :     3.944046
      pz      :     1.827270  p :     5.179088
      px      :     1.674585
      py      :     1.677233
      dz2     :     0.006581  d :     0.035468
      dxz     :     0.005509
      dyz     :     0.006585
      dx2y2   :     0.007721
      dxy     :     0.009072
      f0      :     0.000083  f :     0.000842
      f+1     :     0.000088
      f-1     :     0.000086
      f+2     :     0.000057
      f-2     :     0.000174
      f+3     :     0.000173
      f-3     :     0.000181
 23 H s       :     0.639305  s :     0.639305
      pz      :     0.064784  p :     0.054137
      px      :     0.020753
      py      :    -0.031401
 24 H s       :     0.858353  s :     0.858353
      pz      :    -0.000265  p :     0.014858
      px      :    -0.011693
      py      :     0.026816
 25 H s       :     0.803441  s :     0.803441
      pz      :     0.016164  p :     0.116486
      px      :    -0.021045
      py      :     0.121367
 26 H s       :     0.854958  s :     0.854958
      pz      :     0.016387  p :     0.010276
      px      :     0.011777
      py      :    -0.017889
 27 H s       :     0.784010  s :     0.784010
      pz      :    -0.007465  p :     0.016390
      px      :     0.023734
      py      :     0.000120
 28 H s       :     0.881785  s :     0.881785
      pz      :     0.005288  p :     0.042797
      px      :     0.013472
      py      :     0.024037


                     *******************************
                     * LOEWDIN POPULATION ANALYSIS *
                     *******************************

----------------------
LOEWDIN ATOMIC CHARGES
----------------------
   0 C :   -0.138013
   1 C :   -0.222671
   2 C :   -0.213101
   3 H :    0.111074
   4 H :    0.101632
   5 S :    0.585738
   6 C :   -0.505050
   7 C :    0.014144
   8 N :    0.114372
   9 H :    0.101989
  10 H :    0.073428
  11 H :    0.035364
  12 H :    0.004954
  13 O :   -0.279919
  14 O :   -0.229432
  15 C :   -0.185598
  16 C :   -0.207361
  17 H :    0.111454
  18 H :    0.120825
  19 C :   -0.204866
  20 H :    0.109243
  21 H :    0.106346
  22 F :   -0.050421
  23 H :    0.096820
  24 H :    0.118535
  25 H :    0.084521
  26 H :    0.122241
  27 H :    0.105078
  28 H :    0.118676

-------------------------------
LOEWDIN REDUCED ORBITAL CHARGES
-------------------------------
  0 C s       :     2.665915  s :     2.665915
      pz      :     0.906746  p :     2.719771
      px      :     0.911153
      py      :     0.901872
      dz2     :     0.133801  d :     0.712979
      dxz     :     0.121912
      dyz     :     0.179883
      dx2y2   :     0.118776
      dxy     :     0.158607
      f0      :     0.006240  f :     0.039347
      f+1     :     0.005768
      f-1     :     0.006999
      f+2     :     0.005360
      f-2     :     0.004731
      f+3     :     0.004557
      f-3     :     0.005692
  1 C s       :     2.673740  s :     2.673740
      pz      :     0.915384  p :     2.759774
      px      :     0.913858
      py      :     0.930531
      dz2     :     0.203698  d :     0.750017
      dxz     :     0.184885
      dyz     :     0.136559
      dx2y2   :     0.144804
      dxy     :     0.080072
      f0      :     0.008982  f :     0.039140
      f+1     :     0.006203
      f-1     :     0.005117
      f+2     :     0.005871
      f-2     :     0.006523
      f+3     :     0.002039
      f-3     :     0.004405
  2 C s       :     2.718239  s :     2.718239
      pz      :     0.953850  p :     2.775630
      px      :     0.971610
      py      :     0.850170
      dz2     :     0.147180  d :     0.686871
      dxz     :     0.124292
      dyz     :     0.150200
      dx2y2   :     0.123158
      dxy     :     0.142041
      f0      :     0.004757  f :     0.032362
      f+1     :     0.005247
      f-1     :     0.004368
      f+2     :     0.004337
      f-2     :     0.005742
      f+3     :     0.003372
      f-3     :     0.004538
  3 H s       :     0.663342  s :     0.663342
      pz      :     0.066483  p :     0.225584
      px      :     0.091577
      py      :     0.067523
  4 H s       :     0.674728  s :     0.674728
      pz      :     0.090463  p :     0.223640
      px      :     0.065827
      py      :     0.067349
  5 S s       :     4.575546  s :     4.575546
      pz      :     2.793052  p :     8.310253
      px      :     2.756084
      py      :     2.761118
      dz2     :     0.494815  d :     2.151715
      dxz     :     0.465650
      dyz     :     0.421017
      dx2y2   :     0.350560
      dxy     :     0.419672
      f0      :     0.049129  f :     0.376748
      f+1     :     0.088939
      f-1     :     0.056586
      f+2     :     0.038051
      f-2     :     0.050359
      f+3     :     0.048381
      f-3     :     0.045304
  6 C s       :     2.603113  s :     2.603113
      pz      :     0.866718  p :     2.583073
      px      :     0.937238
      py      :     0.779117
      dz2     :     0.260426  d :     1.223269
      dxz     :     0.293081
      dyz     :     0.180864
      dx2y2   :     0.269800
      dxy     :     0.219097
      f0      :     0.013160  f :     0.095595
      f+1     :     0.018205
      f-1     :     0.012356
      f+2     :     0.020498
      f-2     :     0.012408
      f+3     :     0.007987
      f-3     :     0.010981
  7 C s       :     2.710403  s :     2.710403
      pz      :     0.937653  p :     2.801071
      px      :     0.966517
      py      :     0.896901
      dz2     :     0.091511  d :     0.441255
      dxz     :     0.130770
      dyz     :     0.054489
      dx2y2   :     0.068829
      dxy     :     0.095656
      f0      :     0.005625  f :     0.033126
      f+1     :     0.005326
      f-1     :     0.001640
      f+2     :     0.004421
      f-2     :     0.004538
      f+3     :     0.006072
      f-3     :     0.005503
  8 N s       :     2.892687  s :     2.892687
      pz      :     1.093793  p :     3.508663
      px      :     1.105107
      py      :     1.309763
      dz2     :     0.145783  d :     0.470776
      dxz     :     0.070837
      dyz     :     0.074527
      dx2y2   :     0.103887
      dxy     :     0.075741
      f0      :     0.001944  f :     0.013502
      f+1     :     0.001892
      f-1     :     0.001908
      f+2     :     0.002574
      f-2     :     0.002067
      f+3     :     0.001828
      f-3     :     0.001288
  9 H s       :     0.620080  s :     0.620080
      pz      :     0.070017  p :     0.277931
      px      :     0.117068
      py      :     0.090846
 10 H s       :     0.597711  s :     0.597711
      pz      :     0.140529  p :     0.328861
      px      :     0.081237
      py      :     0.107095
 11 H s       :     0.707035  s :     0.707035
      pz      :     0.085514  p :     0.257601
      px      :     0.075505
      py      :     0.096581
 12 H s       :     0.679505  s :     0.679505
      pz      :     0.145539  p :     0.315541
      px      :     0.087821
      py      :     0.082181
 13 O s       :     3.450134  s :     3.450134
      pz      :     1.536827  p :     4.478852
      px      :     1.408115
      py      :     1.533910
      dz2     :     0.063715  d :     0.346472
      dxz     :     0.100716
      dyz     :     0.039998
      dx2y2   :     0.070003
      dxy     :     0.072040
      f0      :     0.000535  f :     0.004461
      f+1     :     0.000793
      f-1     :     0.000068
      f+2     :     0.001074
      f-2     :     0.000475
      f+3     :     0.000832
      f-3     :     0.000684
 14 O s       :     3.485018  s :     3.485018
      pz      :     1.459144  p :     4.484048
      px      :     1.521140
      py      :     1.503765
      dz2     :     0.098146  d :     0.255414
      dxz     :     0.068441
      dyz     :     0.069368
      dx2y2   :     0.008193
      dxy     :     0.011266
      f0      :     0.002347  f :     0.004952
      f+1     :     0.001201
      f-1     :     0.001176
      f+2     :     0.000096
      f-2     :     0.000126
      f+3     :     0.000003
      f-3     :     0.000003
 15 C s       :     2.678222  s :     2.678222
      pz      :     0.911908  p :     2.735927
      px      :     0.923714
      py      :     0.900305
      dz2     :     0.132499  d :     0.733569
      dxz     :     0.144837
      dyz     :     0.166777
      dx2y2   :     0.151237
      dxy     :     0.138220
      f0      :     0.006058  f :     0.037880
      f+1     :     0.003971
      f-1     :     0.006185
      f+2     :     0.006671
      f-2     :     0.004176
      f+3     :     0.005813
      f-3     :     0.005007
 16 C s       :     2.665540  s :     2.665540
      pz      :     0.899791  p :     2.736642
      px      :     0.921169
      py      :     0.915681
      dz2     :     0.151802  d :     0.765513
      dxz     :     0.215940
      dyz     :     0.118464
      dx2y2   :     0.178971
      dxy     :     0.100336
      f0      :     0.006137  f :     0.039666
      f+1     :     0.007199
      f-1     :     0.004966
      f+2     :     0.006029
      f-2     :     0.005666
      f+3     :     0.003928
      f-3     :     0.005741
 17 H s       :     0.676325  s :     0.676325
      pz      :     0.059713  p :     0.212222
      px      :     0.087750
      py      :     0.064759
 18 H s       :     0.672352  s :     0.672352
      pz      :     0.055902  p :     0.206824
      px      :     0.053866
      py      :     0.097056
 19 C s       :     2.665152  s :     2.665152
      pz      :     0.910106  p :     2.732577
      px      :     0.916224
      py      :     0.906246
      dz2     :     0.161989  d :     0.767942
      dxz     :     0.211602
      dyz     :     0.111812
      dx2y2   :     0.182627
      dxy     :     0.099913
      f0      :     0.005882  f :     0.039195
      f+1     :     0.007186
      f-1     :     0.004573
      f+2     :     0.006282
      f-2     :     0.005257
      f+3     :     0.004168
      f-3     :     0.005847
 20 H s       :     0.677549  s :     0.677549
      pz      :     0.058118  p :     0.213207
      px      :     0.096239
      py      :     0.058851
 21 H s       :     0.683614  s :     0.683614
      pz      :     0.076147  p :     0.210040
      px      :     0.078821
      py      :     0.055073
 22 F s       :     3.604960  s :     3.604960
      pz      :     1.760462  p :     5.171195
      px      :     1.707706
      py      :     1.703027
      dz2     :     0.046798  d :     0.272383
      dxz     :     0.045800
      dyz     :     0.043275
      dx2y2   :     0.068474
      dxy     :     0.068037
      f0      :     0.000197  f :     0.001882
      f+1     :     0.000188
      f-1     :     0.000186
      f+2     :     0.000098
      f-2     :     0.000415
      f+3     :     0.000391
      f-3     :     0.000407
 23 H s       :     0.644687  s :     0.644687
      pz      :     0.097498  p :     0.258493
      px      :     0.086135
      py      :     0.074859
 24 H s       :     0.678461  s :     0.678461
      pz      :     0.055045  p :     0.203004
      px      :     0.051572
      py      :     0.096387
 25 H s       :     0.655446  s :     0.655446
      pz      :     0.074013  p :     0.260033
      px      :     0.064502
      py      :     0.121519
 26 H s       :     0.677177  s :     0.677177
      pz      :     0.073814  p :     0.200583
      px      :     0.074928
      py      :     0.051841
 27 H s       :     0.677905  s :     0.677905
      pz      :     0.060218  p :     0.217017
      px      :     0.094574
      py      :     0.062226
 28 H s       :     0.676175  s :     0.676175
      pz      :     0.074531  p :     0.205150
      px      :     0.072782
      py      :     0.057836


                      *****************************
                      * MAYER POPULATION ANALYSIS *
                      *****************************

  NA   - Mulliken gross atomic population
  ZA   - Total nuclear charge
  QA   - Mulliken gross atomic charge
  VA   - Mayer's total valence
  BVA  - Mayer's bonded valence
  FA   - Mayer's free valence

  ATOM       NA         ZA         QA         VA         BVA        FA
  0 C      6.3577     6.0000    -0.3577     3.9705     3.9705    -0.0000
  1 C      6.3520     6.0000    -0.3520     4.2064     4.2064     0.0000
  2 C      6.5395     6.0000    -0.5395     4.3007     4.3007    -0.0000
  3 H      0.6621     1.0000     0.3379     0.8142     0.8142    -0.0000
  4 H      0.8080     1.0000     0.1920     0.9819     0.9819    -0.0000
  5 S     14.9993    16.0000     1.0007     5.4070     5.4070    -0.0000
  6 C      5.7404     6.0000     0.2596     3.5343     3.5343    -0.0000
  7 C      7.1530     6.0000    -1.1530     3.6485     3.6485     0.0000
  8 N      7.2327     7.0000    -0.2327     3.0586     3.0586    -0.0000
  9 H      0.7602     1.0000     0.2398     0.8476     0.8476    -0.0000
 10 H      0.8293     1.0000     0.1707     0.9388     0.9388    -0.0000
 11 H      0.7008     1.0000     0.2992     0.9648     0.9648     0.0000
 12 H      0.5410     1.0000     0.4590     0.8280     0.8280     0.0000
 13 O      8.5740     8.0000    -0.5740     2.1253     2.1253    -0.0000
 14 O      8.4961     8.0000    -0.4961     1.9037     1.9037     0.0000
 15 C      6.3194     6.0000    -0.3194     4.4507     4.4507    -0.0000
 16 C      6.1026     6.0000    -0.1026     4.0625     4.0625     0.0000
 17 H      0.8109     1.0000     0.1891     0.9719     0.9719     0.0000
 18 H      0.8323     1.0000     0.1677     0.9949     0.9949    -0.0000
 19 C      6.3636     6.0000    -0.3636     4.1895     4.1895    -0.0000
 20 H      0.7552     1.0000     0.2448     0.8450     0.8450    -0.0000
 21 H      0.8336     1.0000     0.1664     0.9490     0.9490    -0.0000
 22 F      9.1594     9.0000    -0.1594     1.3143     1.3143     0.0000
 23 H      0.6934     1.0000     0.3066     0.9836     0.9836    -0.0000
 24 H      0.8732     1.0000     0.1268     0.9928     0.9928     0.0000
 25 H      0.9199     1.0000     0.0801     1.1064     1.1064    -0.0000
 26 H      0.8652     1.0000     0.1348     0.9004     0.9004     0.0000
 27 H      0.8004     1.0000     0.1996     0.8713     0.8713     0.0000
 28 H      0.9246     1.0000     0.0754     0.9914     0.9914    -0.0000

  Mayer bond orders larger than 0.100000
B(  0-C ,  6-C ) :   1.0216 B(  0-C ,  7-C ) :  -0.1285 B(  0-C , 15-C ) :   0.9685 
B(  0-C , 16-C ) :   0.1421 B(  0-C , 27-H ) :   0.9146 B(  0-C , 28-H ) :   0.9799 
B(  1-C ,  2-C ) :   0.9959 B(  1-C , 16-C ) :   0.9404 B(  1-C , 17-H ) :   0.9266 
B(  1-C , 18-H ) :   0.8982 B(  1-C , 19-C ) :   0.2178 B(  2-C ,  3-H ) :   0.8423 
B(  2-C ,  4-H ) :   1.0135 B(  2-C ,  5-S ) :   0.8320 B(  2-C , 13-O ) :   0.1619 
B(  2-C , 14-O ) :   0.1660 B(  2-C , 19-C ) :   0.1588 B(  5-S , 13-O ) :   1.7619 
B(  5-S , 14-O ) :   1.6199 B(  5-S , 22-F ) :   1.0600 B(  6-C ,  7-C ) :   1.5755 
B(  6-C ,  8-N ) :   0.9970 B(  6-C , 11-H ) :  -0.1026 B(  6-C , 19-C ) :   0.1685 
B(  7-C ,  8-N ) :   0.1365 B(  7-C , 11-H ) :   0.9972 B(  7-C , 12-H ) :   0.7787 
B(  7-C , 15-C ) :   0.1456 B(  8-N ,  9-H ) :   0.8121 B(  8-N , 10-H ) :   0.8221 
B( 15-C , 16-C ) :   0.2868 B( 15-C , 19-C ) :   1.1567 B( 15-C , 20-H ) :   0.8210 
B( 15-C , 21-H ) :   0.9024 B( 15-C , 23-H ) :   0.1083 B( 16-C , 19-C ) :   0.6953 
B( 16-C , 25-H ) :   1.0921 B( 16-C , 26-H ) :   0.8869 B( 19-C , 23-H ) :   0.9163 
B( 19-C , 24-H ) :   0.9308 

-------
TIMINGS
-------

Total SCF time: 0 days 0 hours 1 min 20 sec 

Total time                  ....      80.673 sec
Sum of individual times     ....      79.510 sec  ( 98.6%)

Fock matrix formation       ....      72.523 sec  ( 89.9%)
  Split-RI-J                ....      22.281 sec  ( 30.7% of F)
  XC integration            ....      49.867 sec  ( 68.8% of F)
    Basis function eval.    ....       9.634 sec  ( 19.3% of XC)
    Density eval.           ....      19.315 sec  ( 38.7% of XC)
    XC-Functional eval.     ....       0.638 sec  (  1.3% of XC)
    XC-Potential eval.      ....      18.095 sec  ( 36.3% of XC)
Diagonalization             ....       1.321 sec  (  1.6%)
Density matrix formation    ....       0.092 sec  (  0.1%)
Population analysis         ....       0.129 sec  (  0.2%)
Initial guess               ....       1.822 sec  (  2.3%)
Orbital Transformation      ....       0.000 sec  (  0.0%)
Orbital Orthonormalization  ....       0.000 sec  (  0.0%)
DIIS solution               ....       0.704 sec  (  0.9%)
SOSCF solution              ....       1.113 sec  (  1.4%)
Grid generation             ....       1.805 sec  (  2.2%)

Maximum memory used throughout the entire SCF-calculation: 101.0 MB


-------------------------------------------------------------------------------
                          DFT DISPERSION CORRECTION                            
                                                                               
                              DFTD3 V3.1  Rev 1                                
                          USING Becke-Johnson damping                          
-------------------------------------------------------------------------------
The PBE functional is recognized
Active option DFTDOPT                   ...         4   

molecular C6(AA) [au] = 7805.639803 


            DFT-D V3
 parameters
 s6 scaling factor         :     1.0000 
 a1 scaling factor         :     0.4289 
 s8 scaling factor         :     0.7875 
 a2 scaling factor         :     4.4407 
 ad hoc parameters k1-k3   :    16.0000     1.3333    -4.0000 

 Edisp/kcal,au: -22.980908587850  -0.036622405057 
 E6   /kcal   : -16.364444304 
 E8   /kcal   :  -6.616464283 
 % E8         :  28.791134424 

-------------------------   ----------------
Dispersion correction           -0.036622405
-------------------------   ----------------


-------------------------   --------------------
FINAL SINGLE POINT ENERGY     -1017.021064599651
-------------------------   --------------------


                            ***************************************
                            *     ORCA property calculations      *
                            ***************************************

                                    ---------------------
                                    Active property flags
                                    ---------------------
   (+) Dipole Moment


------------------------------------------------------------------------------
                       ORCA ELECTRIC PROPERTIES CALCULATION
------------------------------------------------------------------------------

Dipole Moment Calculation                       ... on
Quadrupole Moment Calculation                   ... off
Polarizability Calculation                      ... off
GBWName                                         ... 28Oct_TZVPD_PBE_D5_wb97.gbw
Electron density file                           ... 28Oct_TZVPD_PBE_D5_wb97.scfp
The origin for moment calculation is the CENTER OF MASS  = ( 4.546151, -0.483241 -8.389463)

-------------
DIPOLE MOMENT
-------------
                                X             Y             Z
Electronic contribution:     -1.64148      -6.12985     -19.06843
Nuclear contribution   :     -0.26930       7.11259      19.56706
                        -----------------------------------------
Total Dipole Moment    :     -1.91078       0.98274       0.49863
                        -----------------------------------------
Magnitude (a.u.)       :      2.20579
Magnitude (Debye)      :      5.60667



--------------------
Rotational spectrum 
--------------------
 
Rotational constants in cm-1:     0.036519     0.018683     0.015073 
Rotational constants in MHz :  1094.801738   560.111127   451.890222 

 Dipole components along the rotational axes: 
x,y,z [a.u.] :    -0.063444     1.995006     0.938848 
x,y,z [Debye]:    -0.161262     5.070903     2.386363 

 

Timings for individual modules:

Sum of individual times         ...       82.159 sec (=   1.369 min)
GTO integral calculation        ...        1.109 sec (=   0.018 min)   1.3 %
SCF iterations                  ...       81.050 sec (=   1.351 min)  98.7 %
                             ****ORCA TERMINATED NORMALLY****
TOTAL RUN TIME: 0 days 0 hours 1 minutes 22 seconds 944 msec
