
                                        *****************
                                        * O   R   C   A *
                                        *****************

                                            #,                                       
                                            ###                                      
                                            ####                                     
                                            #####                                    
                                            ######                                   
                                           ########,                                 
                                     ,,################,,,,,                         
                               ,,#################################,,                 
                          ,,##########################################,,             
                       ,#########################################, ''#####,          
                    ,#############################################,,   '####,        
                  ,##################################################,,,,####,       
                ,###########''''           ''''###############################       
              ,#####''   ,,,,##########,,,,          '''####'''          '####       
            ,##' ,,,,###########################,,,                        '##       
           ' ,,###''''                  '''############,,,                           
         ,,##''                                '''############,,,,        ,,,,,,###''
      ,#''                                            '''#######################'''  
     '                                                          ''''####''''         
             ,#######,   #######,   ,#######,      ##                                
            ,#'     '#,  ##    ##  ,#'     '#,    #''#        ######   ,####,        
            ##       ##  ##   ,#'  ##            #'  '#       #        #'  '#        
            ##       ##  #######   ##           ,######,      #####,   #    #        
            '#,     ,#'  ##    ##  '#,     ,#' ,#      #,         ##   #,  ,#        
             '#######'   ##     ##  '#######'  #'      '#     #####' # '####'        



                  #######################################################
                  #                        -***-                        #
                  #          Department of theory and spectroscopy      #
                  #    Directorship and core code : Frank Neese         #
                  #        Max Planck Institute fuer Kohlenforschung    #
                  #                Kaiser Wilhelm Platz 1               #
                  #                 D-45470 Muelheim/Ruhr               #
                  #                      Germany                        #
                  #                                                     #
                  #                  All rights reserved                #
                  #                        -***-                        #
                  #######################################################


                         Program Version 5.0.0 -  RELEASE  -
                                (SVN: $Rev: 19529$)
                ($Date: 2021-06-28 11:36:33 +0200 (Mo, 28 Jun 2021) $)


 With contributions from (in alphabetic order):
   Daniel Aravena         : Magnetic Suceptibility
   Michael Atanasov       : Ab Initio Ligand Field Theory (pilot matlab implementation)
   Alexander A. Auer      : GIAO ZORA, VPT2 properties, NMR spectrum
   Ute Becker             : Parallelization
   Giovanni Bistoni       : ED, misc. LED, open-shell LED, HFLD
   Martin Brehm           : Molecular dynamics
   Dmytro Bykov           : SCF Hessian
   Vijay G. Chilkuri      : MRCI spin determinant printing, contributions to CSF-ICE
   Dipayan Datta          : RHF DLPNO-CCSD density
   Achintya Kumar Dutta   : EOM-CC, STEOM-CC
   Dmitry Ganyushin       : Spin-Orbit,Spin-Spin,Magnetic field MRCI
   Miquel Garcia          : C-PCM Hessian, Gaussian charge scheme
   Yang Guo               : DLPNO-NEVPT2, F12-NEVPT2, CIM, IAO-localization
   Andreas Hansen         : Spin unrestricted coupled pair/coupled cluster methods
   Benjamin Helmich-Paris : MC-RPA, TRAH-SCF, COSX integrals
   Lee Huntington         : MR-EOM, pCC
   Robert Izsak           : Overlap fitted RIJCOSX, COSX-SCS-MP3, EOM
   Marcus Kettner         : VPT2
   Christian Kollmar      : KDIIS, OOCD, Brueckner-CCSD(T), CCSD density, CASPT2, CASPT2-K
   Simone Kossmann        : Meta GGA functionals, TD-DFT gradient, OOMP2, MP2 Hessian
   Martin Krupicka        : Initial AUTO-CI
   Lucas Lang             : DCDCAS
   Marvin Lechner         : AUTO-CI (C++ implementation), FIC-MRCC
   Dagmar Lenk            : GEPOL surface, SMD
   Dimitrios Liakos       : Extrapolation schemes; Compound Job, initial MDCI parallelization
   Dimitrios Manganas     : Further ROCIS development; embedding schemes
   Dimitrios Pantazis     : SARC Basis sets
   Anastasios Papadopoulos: AUTO-CI, single reference methods and gradients
   Taras Petrenko         : DFT Hessian,TD-DFT gradient, ASA, ECA, R-Raman, ABS, FL, XAS/XES, NRVS
   Peter Pinski           : DLPNO-MP2, DLPNO-MP2 Gradient
   Christoph Reimann      : Effective Core Potentials
   Marius Retegan         : Local ZFS, SOC
   Christoph Riplinger    : Optimizer, TS searches, QM/MM, DLPNO-CCSD(T), (RO)-DLPNO pert. Triples
   Tobias Risthaus        : Range-separated hybrids, TD-DFT gradient, RPA, STAB
   Michael Roemelt        : Original ROCIS implementation
   Masaaki Saitow         : Open-shell DLPNO-CCSD energy and density
   Barbara Sandhoefer     : DKH picture change effects
   Avijit Sen             : IP-ROCIS
   Kantharuban Sivalingam : CASSCF convergence, NEVPT2, FIC-MRCI
   Bernardo de Souza      : ESD, SOC TD-DFT
   Georgi Stoychev        : AutoAux, RI-MP2 NMR
   Willem Van den Heuvel  : Paramagnetic NMR
   Boris Wezisla          : Elementary symmetry handling
   Frank Wennmohs         : Technical directorship


 We gratefully acknowledge several colleagues who have allowed us to
 interface, adapt or use parts of their codes:
   Stefan Grimme, W. Hujo, H. Kruse, P. Pracht,  : VdW corrections, initial TS optimization,
                  C. Bannwarth, S. Ehlert          DFT functionals, gCP, sTDA/sTD-DF
   Ed Valeev, F. Pavosevic, A. Kumar             : LibInt (2-el integral package), F12 methods
   Garnet Chan, S. Sharma, J. Yang, R. Olivares  : DMRG
   Ulf Ekstrom                                   : XCFun DFT Library
   Mihaly Kallay                                 : mrcc  (arbitrary order and MRCC methods)
   Jiri Pittner, Ondrej Demel                    : Mk-CCSD
   Frank Weinhold                                : gennbo (NPA and NBO analysis)
   Christopher J. Cramer and Donald G. Truhlar   : smd solvation model
   Lars Goerigk                                  : TD-DFT with DH, B97 family of functionals
   V. Asgeirsson, H. Jonsson                     : NEB implementation
   FAccTs GmbH                                   : IRC, NEB, NEB-TS, DLPNO-Multilevel, CI-OPT
                                                   MM, QMMM, 2- and 3-layer-ONIOM, Crystal-QMMM,
                                                   LR-CPCM, SF, NACMEs, symmetry and pop. for TD-DFT,
                                                   nearIR, NL-DFT gradient (VV10), updates on ESD,
                                                   ML-optimized integration grids
   S Lehtola, MJT Oliveira, MAL Marques          : LibXC Library
   Liviu Ungur et al                             : ANISO software


 Your calculation uses the libint2 library for the computation of 2-el integrals
 For citations please refer to: http://libint.valeyev.net

 Your ORCA version has been built with support for libXC version: 5.1.0
 For citations please refer to: https://tddft.org/programs/libxc/

 This ORCA versions uses:
   CBLAS   interface :  Fast vector & matrix operations
   LAPACKE interface :  Fast linear algebra routines
   SCALAPACK package :  Parallel linear algebra routines
   Shared memory     :  Shared parallel matrices
   BLAS/LAPACK       :  OpenBLAS 0.3.15  USE64BITINT DYNAMIC_ARCH NO_AFFINITY Haswell SINGLE_THREADED
        Core in use  :  Haswell
   Copyright (c) 2011-2014, The OpenBLAS Project


Your calculation utilizes the atom-pairwise dispersion correction
with the zero-damping scheme (D30)
Cite in your paper:
S.Grimme, J.Antony, S.Ehrlich and H.Krieg, J.Chem.Phys., 132, (2010), 154104 
   

XCFun DFT library Copyright 2009-2010 Ulf Ekstrom and contributors.
See http://admol.org/xcfun for more information.
This is free software; see the source code for copying conditions.
There is ABSOLUTELY NO WARRANTY; not even for MERCHANTABILITY or FITNESS FOR A PARTICULAR PURPOSE.
For details see the documentation.
Scientific users of this library should cite U. Ekstrom, L. Visscher, R. Bast, A. J. Thorvaldsen and K. Ruud;
J.Chem.Theor.Comp. 2010, DOI: 10.1021/ct100117s
XCFun Version 0.99 

================================================================================

----- Orbital basis set information -----
Your calculation utilizes the basis: def2-SVPD
   F. Weigend and R. Ahlrichs, Phys. Chem. Chem. Phys. 7, 3297 (2005).
   D. Rappoport and F. Furche, J. Chem. Phys. 133 134105 (2010).

----- AuxJ basis set information -----
Your calculation utilizes the auxiliary basis: def2/J
   F. Weigend, Phys. Chem. Chem. Phys. 8, 1057 (2006).

================================================================================
                                        WARNINGS
                       Please study these warnings very carefully!
================================================================================


INFO   : the flag for use of the SHARK integral package has been found!

================================================================================
                                       INPUT FILE
================================================================================
NAME = C2_wt_dlpno_pos.com
|  1> !wB97X-D3 RIJCOSX def2-SVPD def2/J TightSCF CPCM(Water)
|  2> *xyz 0 1
|  3> C          1.64703       -2.34528       -5.02041
|  4> C          0.21763       -1.81402       -4.92439
|  5> C          2.20996       -2.81239       -3.66571
|  6> H          2.30838       -1.58870       -5.45713
|  7> H          1.67429       -3.20348       -5.69739
|  8> C          2.48901       -1.66851       -2.73754
|  9> N          3.59631       -0.94761       -2.95225
| 10> C          1.66394       -1.41369       -1.77781
| 11> H          0.81164       -1.96318       -1.70275
| 12> H          1.84550       -0.63508       -1.15875
| 13> H          4.20535       -1.17600       -3.73383
| 14> H          3.81723       -0.12585       -2.40604
| 15> H          3.14311       -3.36280       -3.81152
| 16> H          1.48768       -3.45893       -3.16521
| 17> H         -0.11459       -1.50684       -5.89401
| 18> H          0.19193       -0.97796       -4.25713
| 19> H         -0.42543       -2.58523       -4.55479
| 20> *
| 21> 
| 22> %MaxCore 64000
| 23> %pal nprocs 18
| 24> end  
| 25> 
| 26> %scf
| 27>   MaxIter 150
| 28> end
| 29> 
| 30> 
| 31>                          ****END OF INPUT****
================================================================================

                       ****************************
                       * Single Point Calculation *
                       ****************************

---------------------------------
CARTESIAN COORDINATES (ANGSTROEM)
---------------------------------
  C      1.647030   -2.345280   -5.020410
  C      0.217630   -1.814020   -4.924390
  C      2.209960   -2.812390   -3.665710
  H      2.308380   -1.588700   -5.457130
  H      1.674290   -3.203480   -5.697390
  C      2.489010   -1.668510   -2.737540
  N      3.596310   -0.947610   -2.952250
  C      1.663940   -1.413690   -1.777810
  H      0.811640   -1.963180   -1.702750
  H      1.845500   -0.635080   -1.158750
  H      4.205350   -1.176000   -3.733830
  H      3.817230   -0.125850   -2.406040
  H      3.143110   -3.362800   -3.811520
  H      1.487680   -3.458930   -3.165210
  H     -0.114590   -1.506840   -5.894010
  H      0.191930   -0.977960   -4.257130
  H     -0.425430   -2.585230   -4.554790

----------------------------
CARTESIAN COORDINATES (A.U.)
----------------------------
  NO LB      ZA    FRAG     MASS         X           Y           Z
   0 C     6.0000    0    12.011    3.112436   -4.431937   -9.487200
   1 C     6.0000    0    12.011    0.411261   -3.428001   -9.305748
   2 C     6.0000    0    12.011    4.176219   -5.314647   -6.927188
   3 H     1.0000    0     1.008    4.362206   -3.002208  -10.312481
   4 H     1.0000    0     1.008    3.163950   -6.053700  -10.766507
   5 C     6.0000    0    12.011    4.703547   -3.153027   -5.173201
   6 N     7.0000    0    14.007    6.796041   -1.790723   -5.578944
   7 C     6.0000    0    12.011    3.144391   -2.671487   -3.359574
   8 H     1.0000    0     1.008    1.533777   -3.709873   -3.217731
   9 H     1.0000    0     1.008    3.487490   -1.200127   -2.189720
  10 H     1.0000    0     1.008    7.946960   -2.222318   -7.055916
  11 H     1.0000    0     1.008    7.213519   -0.237822   -4.546757
  12 H     1.0000    0     1.008    5.939617   -6.354771   -7.202729
  13 H     1.0000    0     1.008    2.811308   -6.536430   -5.981380
  14 H     1.0000    0     1.008   -0.216544   -2.847515  -11.138065
  15 H     1.0000    0     1.008    0.362695   -1.848077   -8.044810
  16 H     1.0000    0     1.008   -0.803946   -4.885377   -8.607306

--------------------------------
INTERNAL COORDINATES (ANGSTROEM)
--------------------------------
 C      0   0   0     0.000000000000     0.00000000     0.00000000
 C      1   0   0     1.527953333057     0.00000000     0.00000000
 C      1   2   0     1.539575924403   113.09461973     0.00000000
 H      1   2   3     1.095683109891   110.46442509   236.42011604
 H      1   2   3     1.093413127779   109.58044295   119.66984717
 C      3   1   2     1.499276460764   112.41487602   289.19821313
 N      6   3   1     1.338622607048   117.74534069   282.67999189
 C      6   3   1     1.291028818501   119.46262227   102.41240062
 H      8   6   3     1.016852277226   118.93875800   356.56161909
 H      8   6   3     1.011154216378   119.49556415   180.77765573
 H      7   6   3     1.016837750135   119.85311119     0.99564669
 H      7   6   3     1.011158003529   122.12376033   175.86157171
 H      3   1   2     1.093151703425   110.33565258   168.66659392
 H      3   1   2     1.090964078235   109.96279536    48.22030027
 H      2   1   3     1.069996553826   109.47109185   179.99986978
 H      2   1   3     1.069996598686   109.47132587    59.99996316
 H      2   1   3     1.069997751259   109.47111115   299.99992829

---------------------------
INTERNAL COORDINATES (A.U.)
---------------------------
 C      0   0   0     0.000000000000     0.00000000     0.00000000
 C      1   0   0     2.887413344890     0.00000000     0.00000000
 C      1   2   0     2.909376859499   113.09461973     0.00000000
 H      1   2   3     2.070541007257   110.46442509   236.42011604
 H      1   2   3     2.066251362737   109.58044295   119.66984717
 C      3   1   2     2.833221909878   112.41487602   289.19821313
 N      6   3   1     2.529630123996   117.74534069   282.67999189
 C      6   3   1     2.439690897967   119.46262227   102.41240062
 H      8   6   3     1.921572322612   118.93875800   356.56161909
 H      8   6   3     1.910804548115   119.49556415   180.77765573
 H      7   6   3     1.921544870388   119.85311119     0.99564669
 H      7   6   3     1.910811704792   122.12376033   175.86157171
 H      3   1   2     2.065757342302   110.33565258   168.66659392
 H      3   1   2     2.061623329811   109.96279536    48.22030027
 H      2   1   3     2.022000450971   109.47109185   179.99986978
 H      2   1   3     2.022000535744   109.47132587    59.99996316
 H      2   1   3     2.022002713792   109.47111115   299.99992829

---------------------
BASIS SET INFORMATION
---------------------
There are 3 groups of distinct atoms

 Group   1 Type C   : 8s4p2d contracted to 4s2p2d pattern {5111/31/11}
 Group   2 Type H   : 4s2p contracted to 2s2p pattern {31/11}
 Group   3 Type N   : 8s4p2d contracted to 4s2p2d pattern {5111/31/11}

Atom   0C    basis set group =>   1
Atom   1C    basis set group =>   1
Atom   2C    basis set group =>   1
Atom   3H    basis set group =>   2
Atom   4H    basis set group =>   2
Atom   5C    basis set group =>   1
Atom   6N    basis set group =>   3
Atom   7C    basis set group =>   1
Atom   8H    basis set group =>   2
Atom   9H    basis set group =>   2
Atom  10H    basis set group =>   2
Atom  11H    basis set group =>   2
Atom  12H    basis set group =>   2
Atom  13H    basis set group =>   2
Atom  14H    basis set group =>   2
Atom  15H    basis set group =>   2
Atom  16H    basis set group =>   2
---------------------------------
AUXILIARY/J BASIS SET INFORMATION
---------------------------------
There are 3 groups of distinct atoms

 Group   1 Type C   : 12s5p4d2f1g contracted to 6s4p3d1f1g pattern {711111/2111/211/2/1}
 Group   2 Type H   : 5s2p1d contracted to 3s1p1d pattern {311/2/1}
 Group   3 Type N   : 12s5p4d2f1g contracted to 6s4p3d1f1g pattern {711111/2111/211/2/1}

Atom   0C    basis set group =>   1
Atom   1C    basis set group =>   1
Atom   2C    basis set group =>   1
Atom   3H    basis set group =>   2
Atom   4H    basis set group =>   2
Atom   5C    basis set group =>   1
Atom   6N    basis set group =>   3
Atom   7C    basis set group =>   1
Atom   8H    basis set group =>   2
Atom   9H    basis set group =>   2
Atom  10H    basis set group =>   2
Atom  11H    basis set group =>   2
Atom  12H    basis set group =>   2
Atom  13H    basis set group =>   2
Atom  14H    basis set group =>   2
Atom  15H    basis set group =>   2
Atom  16H    basis set group =>   2


           ************************************************************
           *        Program running with 18 parallel MPI-processes    *
           *              working on a common directory               *
           ************************************************************
------------------------------------------------------------------------------
                           ORCA GTO INTEGRAL CALCULATION
                           -- RI-GTO INTEGRALS CHOSEN --
------------------------------------------------------------------------------
------------------------------------------------------------------------------
                   ___                                                        
                  /   \      - P O W E R E D   B Y -                         
                 /     \                                                     
                 |  |  |   _    _      __       _____    __    __             
                 |  |  |  | |  | |    /  \     |  _  \  |  |  /  |          
                  \  \/   | |  | |   /    \    | | | |  |  | /  /          
                 / \  \   | |__| |  /  /\  \   | |_| |  |  |/  /          
                |  |  |   |  __  | /  /__\  \  |    /   |      \           
                |  |  |   | |  | | |   __   |  |    \   |  |\   \          
                \     /   | |  | | |  |  |  |  | |\  \  |  | \   \       
                 \___/    |_|  |_| |__|  |__|  |_| \__\ |__|  \__/        
                                                                              
                      - O R C A' S   B I G   F R I E N D -                    
                                      &                                       
                       - I N T E G R A L  F E E D E R -                       
                                                                              
 v1 FN, 2020, v2 2021                                                         
------------------------------------------------------------------------------


Reading SHARK input file C2_wt_dlpno_pos.SHARKINP.tmp ... ok
----------------------
SHARK INTEGRAL PACKAGE
----------------------

Number of atoms                             ...     17
Number of basis functions                   ...    208
Number of shells                            ...     92
Maximum angular momentum                    ...      2
Integral batch strategy                     ... SHARK/LIBINT Hybrid
RI-J (if used) integral strategy            ... SPLIT-RIJ (Revised 2003 algorithm where possible)
Printlevel                                  ...      1
Contraction scheme used                     ... SEGMENTED contraction
Coulomb Range Separation                    ... NOT USED
Exchange Range Separation                   ... Long Range
   Mu parameter                             ...  0.250000
   Scaling (regular/separated)              ...  0.195728  0.804272
Finite Nucleus Model                        ... NOT USED
Auxiliary Coulomb fitting basis             ... AVAILABLE
   # of basis functions in Aux-J            ...    415
   # of shells in Aux-J                     ...    145
   Maximum angular momentum in Aux-J        ...      4
Auxiliary J/K fitting basis                 ... NOT available
Auxiliary Correlation fitting basis         ... NOT available
Auxiliary 'external' fitting basis          ... NOT available
Integral threshold                          ...     2.500000e-11
Primitive cut-off                           ...     2.500000e-12
Primitive pair pre-selection threshold      ...     2.500000e-12

Calculating pre-screening integrals         ... done (  0.0 sec) Dimension = 92
Organizing shell pair data                  ... done (  0.0 sec)
Shell pair information
Total number of shell pairs                 ...      4278
Shell pairs after pre-screening             ...      4225
Total number of primitive shell pairs       ...     11436
Primitive shell pairs kept                  ...      9450
          la=0 lb=0:   1064 shell pairs
          la=1 lb=0:   1541 shell pairs
          la=1 lb=1:    586 shell pairs
          la=2 lb=0:    550 shell pairs
          la=2 lb=1:    406 shell pairs
          la=2 lb=2:     78 shell pairs

Calculating one electron integrals          ... done (  0.0 sec)
Calculating RI/J V-Matrix + Cholesky decomp.... done (  0.0 sec)
Calculating Nuclear repulsion               ... done (  0.0 sec) ENN=    246.357530013059 Eh

SHARK setup successfully completed in   0.2 seconds

Maximum memory used throughout the entire GTOINT-calculation: 9.0 MB


           ************************************************************
           *        Program running with 18 parallel MPI-processes    *
           *              working on a common directory               *
           ************************************************************
-------------------------------------------------------------------------------
                                 ORCA SCF
-------------------------------------------------------------------------------

------------
SCF SETTINGS
------------
Hamiltonian:
 Density Functional     Method          .... DFT(GTOs)
 Exchange Functional    Exchange        .... WB97X-D3
 Correlation Functional Correlation     .... WB97X-D3
 Gradients option       PostSCFGGA      .... off
 Hybrid DFT is turned on
   Fraction HF Exchange ScalHFX         ....  0.195728
   Scaling of DF-GGA-X  ScalDFX         ....  0.000000
   Scaling of DF-GGA-C  ScalDFC         ....  1.000000
   Scaling of DF-LDA-C  ScalLDAC        ....  1.000000
   Perturbative correction              ....  0.000000
   Density functional embedding theory  .... OFF
 Long-range corrected/Screened/Range-Separated Hybrid DFT is turned on
   Amount of maximum screened exact exchange              ....  0.804272
   Range separation parameter mu (erf(mu*r12)/r12)        ....  0.250000
 RI-approximation to the Coulomb term is turned on
   Number of AuxJ basis functions       .... 415
   RIJ-COSX (HFX calculated with COS-X)).... on


General Settings:
 Integral files         IntName         .... C2_wt_dlpno_pos
 Hartree-Fock type      HFTyp           .... RHF
 Total Charge           Charge          ....    0
 Multiplicity           Mult            ....    1
 Number of Electrons    NEL             ....   48
 Basis Dimension        Dim             ....  208
 Nuclear Repulsion      ENuc            ....    246.3575300131 Eh

Convergence Acceleration:
 DIIS                   CNVDIIS         .... on
   Start iteration      DIISMaxIt       ....    12
   Startup error        DIISStart       ....  0.200000
   # of expansion vecs  DIISMaxEq       ....     5
   Bias factor          DIISBfac        ....   1.050
   Max. coefficient     DIISMaxC        ....  10.000
 Trust-Rad. Augm. Hess. CNVTRAH         .... auto
   Auto Start mean grad. ratio tolernc. ....  1.125000
   Auto Start start iteration           ....    20
   Auto Start num. interpolation iter.  ....    10
   Max. Number of Micro iterations      ....    16
   Max. Number of Macro iterations      .... Maxiter - #DIIS iter
   Number of Davidson start vectors     ....     2
   Converg. threshold I  (grad. norm)   ....   1.000e-05
   Converg. threshold II (energy diff.) ....   1.000e-08
   Grad. Scal. Fac. for Micro threshold ....   0.100
   Minimum threshold for Micro iter.    ....   0.010
   NR start threshold (gradient norm)   ....   0.001
   Initial trust radius                 ....   0.400
   Minimum AH scaling param. (alpha)    ....   1.000
   Maximum AH scaling param. (alpha)    .... 1000.000
   Orbital update algorithm             .... Taylor
   White noise on init. David. guess    .... on
   Maximum white noise                  ....   0.010
   Quad. conv. algorithm                .... NR
 SOSCF                  CNVSOSCF        .... on
   Start iteration      SOSCFMaxIt      ....   150
   Startup grad/error   SOSCFStart      ....  0.003300
 Level Shifting         CNVShift        .... on
   Level shift para.    LevelShift      ....    0.2500
   Turn off err/grad.   ShiftErr        ....    0.0010
 Zerner damping         CNVZerner       .... off
 Static damping         CNVDamp         .... on
   Fraction old density DampFac         ....    0.7000
   Max. Damping (<1)    DampMax         ....    0.9800
   Min. Damping (>=0)   DampMin         ....    0.0000
   Turn off err/grad.   DampErr         ....    0.1000
 Fernandez-Rico         CNVRico         .... off

SCF Procedure:
 Maximum # iterations   MaxIter         ....   150
 SCF integral mode      SCFMode         .... Direct
   Integral package                     .... SHARK and LIBINT hybrid scheme
 Reset frequency        DirectResetFreq ....    20
 Integral Threshold     Thresh          ....  2.500e-11 Eh
 Primitive CutOff       TCut            ....  2.500e-12 Eh

Convergence Tolerance:
 Convergence Check Mode ConvCheckMode   .... Total+1el-Energy
 Convergence forced     ConvForced      .... 0
 Energy Change          TolE            ....  1.000e-08 Eh
 1-El. energy change                    ....  1.000e-05 Eh
 Orbital Gradient       TolG            ....  1.000e-05
 Orbital Rotation angle TolX            ....  1.000e-05
 DIIS Error             TolErr          ....  5.000e-07


Diagonalization of the overlap matrix:
Smallest eigenvalue                        ... 5.519e-05
Time for diagonalization                   ...    0.010 sec
Threshold for overlap eigenvalues          ... 1.000e-08
Number of eigenvalues below threshold      ... 0
Time for construction of square roots      ...    0.022 sec
Total time needed                          ...    0.033 sec

Time for model grid setup =    0.060 sec

------------------------------
INITIAL GUESS: MODEL POTENTIAL
------------------------------
Loading Hartree-Fock densities                     ... done
Calculating cut-offs                               ... done
Initializing the effective Hamiltonian             ... done
Setting up the integral package (SHARK)            ... done
Starting the Coulomb interaction                   ... done (   0.0 sec)
Reading the grid                                   ... done
Mapping shells                                     ... done
Starting the XC term evaluation                    ... done (   0.0 sec)
  promolecular density results
     # of electrons  =     48.001892263
     EX              =    -35.421122695
     EC              =     -1.562919854
     EX+EC           =    -36.984042549
Transforming the Hamiltonian                       ... done (   0.0 sec)
Diagonalizing the Hamiltonian                      ... done (   0.0 sec)
Back transforming the eigenvectors                 ... done (   0.0 sec)
Now organizing SCF variables                       ... done
                      ------------------
                      INITIAL GUESS DONE (   0.1 sec)
                      ------------------
-------------------
DFT GRID GENERATION
-------------------

General Integration Accuracy     IntAcc      ... 4.388
Radial Grid Type                 RadialGrid  ... OptM3 with GC (2021)
Angular Grid (max. ang.)         AngularGrid ... 4 (Lebedev-302)
Angular grid pruning method      GridPruning ... 4 (adaptive)
Weight generation scheme         WeightScheme... Becke
Basis function cutoff            BFCut       ... 1.0000e-11
Integration weight cutoff        WCut        ... 1.0000e-14
Angular grids for H and He will be reduced by one unit
Partially contracted basis set               ... off
Rotationally invariant grid construction     ... off

Total number of grid points                  ...    73485
Total number of batches                      ...     1156
Average number of points per batch           ...       63
Average number of grid points per atom       ...     4323
Time for grid setup =    0.371 sec

--------------------
COSX GRID GENERATION
--------------------

GRIDX 1
-------
General Integration Accuracy     IntAcc      ... 3.816
Radial Grid Type                 RadialGrid  ... OptM3 with GC (2021)
Angular Grid (max. ang.)         AngularGrid ... 1 (Lebedev-50)
Angular grid pruning method      GridPruning ... 4 (adaptive)
Weight generation scheme         WeightScheme... Becke
Basis function cutoff            BFCut       ... 1.0000e-11
Integration weight cutoff        WCut        ... 1.0000e-14
Angular grids for H and He will be reduced by one unit
Partially contracted basis set               ... on
Rotationally invariant grid construction     ... off

Total number of grid points                  ...     9181
Total number of batches                      ...      154
Average number of points per batch           ...       59
Average number of grid points per atom       ...      540
UseSFitting                                  ... on

GRIDX 2
-------
General Integration Accuracy     IntAcc      ... 4.020
Radial Grid Type                 RadialGrid  ... OptM3 with GC (2021)
Angular Grid (max. ang.)         AngularGrid ... 2 (Lebedev-110)
Angular grid pruning method      GridPruning ... 4 (adaptive)
Weight generation scheme         WeightScheme... Becke
Basis function cutoff            BFCut       ... 1.0000e-11
Integration weight cutoff        WCut        ... 1.0000e-14
Angular grids for H and He will be reduced by one unit
Partially contracted basis set               ... on
Rotationally invariant grid construction     ... off

Total number of grid points                  ...    20009
Total number of batches                      ...      320
Average number of points per batch           ...       62
Average number of grid points per atom       ...     1177
UseSFitting                                  ... on

GRIDX 3
-------
General Integration Accuracy     IntAcc      ... 4.338
Radial Grid Type                 RadialGrid  ... OptM3 with GC (2021)
Angular Grid (max. ang.)         AngularGrid ... 3 (Lebedev-194)
Angular grid pruning method      GridPruning ... 4 (adaptive)
Weight generation scheme         WeightScheme... Becke
Basis function cutoff            BFCut       ... 1.0000e-11
Integration weight cutoff        WCut        ... 1.0000e-14
Angular grids for H and He will be reduced by one unit
Partially contracted basis set               ... on
Rotationally invariant grid construction     ... off

Total number of grid points                  ...    45758
Total number of batches                      ...      724
Average number of points per batch           ...       63
Average number of grid points per atom       ...     2692
UseSFitting                                  ... on

Time for X-Grid setup             =    0.254 sec


--------------------
CPCM SOLVATION MODEL
--------------------
CPCM parameters:
  Epsilon                                         ...      80.4000
  Refrac                                          ...       1.3300
  Rsolv                                           ...       1.3000
  Surface type                                    ... GAUSSIAN VDW
  Epsilon function type                           ...         CPCM
Radii:
 Radius for C  used is    3.8550 Bohr (=   2.0400 Ang.)
 Radius for H  used is    2.4944 Bohr (=   1.3200 Ang.)
 Radius for N  used is    3.5149 Bohr (=   1.8600 Ang.)
Calculating surface                               ...        done! (  0.0s)
GEPOL surface points                              ...          991
GEPOL Volume                                      ...     867.0366
GEPOL Surface-area                                ...     520.9925
Calculating surface distance matrix               ...        done! (  0.0s)
Performing Cholesky decomposition & store         ...        done! (  0.0s)
Overall time for CPCM initialization              ...                 0.1s
--------------
SCF ITERATIONS
--------------
ITER       Energy         Delta-E        Max-DP      RMS-DP      [F,P]     Damp
               ***  Starting incremental Fock matrix formation  ***
  0   -251.4041793713   0.000000000000 0.10918016  0.00324227  0.2014623 0.7000
  1   -251.5016207922  -0.097441420932 0.06300714  0.00224627  0.1247027 0.7000
                               ***Turning on DIIS***
  2   -251.5530009231  -0.051380130841 0.17081579  0.00468143  0.0668538 0.0000
  3   -251.6347024290  -0.081701505959 0.05780256  0.00145416  0.0449976 0.0000
  4   -251.6470577108  -0.012355281803 0.00862151  0.00028173  0.0075496 0.0000
                      *** Initiating the SOSCF procedure ***
                           *** Shutting down DIIS ***
                      *** Re-Reading the Fockian *** 
                      *** Removing any level shift *** 
ITER      Energy       Delta-E        Grad      Rot      Max-DP    RMS-DP
  5   -251.64733318  -0.0002754686  0.000712  0.000712  0.003424  0.000108
               *** Restarting incremental Fock matrix formation ***
  6   -251.64737881  -0.0000456276  0.000277  0.000692  0.004042  0.000083
  7   -251.64738531  -0.0000064984  0.000263  0.000887  0.004498  0.000068
  8   -251.64738739  -0.0000020860  0.000033  0.000040  0.000408  0.000015
  9   -251.64738752  -0.0000001265  0.000025  0.000056  0.000172  0.000007
 10   -251.64738755  -0.0000000335  0.000010  0.000035  0.000090  0.000002
 11   -251.64738755   0.0000000019  0.000003  0.000013  0.000085  0.000002
                 **** Energy Check signals convergence ****
              ***Rediagonalizing the Fockian in SOSCF/NRSCF***

               *****************************************************
               *                     SUCCESS                       *
               *           SCF CONVERGED AFTER  12 CYCLES          *
               *****************************************************

Old exchange energy                            =    -12.272155750 Eh
New exchange energy                            =    -12.272091824 Eh
Exchange energy change after final integration =      0.000063926 Eh
Total energy after final integration           =   -251.647323619 Eh
Final COS-X integration done in                =     1.747 sec

----------------
TOTAL SCF ENERGY
----------------

Total Energy       :         -251.64732362 Eh           -6847.67180 eV

Components:
Nuclear Repulsion  :          246.35753001 Eh            6703.72920 eV
Electronic Energy  :         -498.00485363 Eh          -13551.40101 eV
One Electron Energy:         -825.78373741 Eh          -22470.71788 eV
Two Electron Energy:          327.77888378 Eh            8919.31688 eV
Max COSX asymmetry :            0.00001060 Eh               0.00029 eV
CPCM Dielectric    :           -0.00872848 Eh              -0.23751 eV

Virial components:
Potential Energy   :         -500.72510844 Eh          -13625.42290 eV
Kinetic Energy     :          249.07778482 Eh            6777.75110 eV
Virial Ratio       :            2.01031621


DFT components:
N(Alpha)           :       23.999987614904 electrons
N(Beta)            :       23.999987614904 electrons
N(Total)           :       47.999975229809 electrons
E(XC)              :      -25.912484852779 Eh       
DFET-embed. en.    :        0.000000000000 Eh       
CPCM Solvation Model Properties:
Surface-charge          :           -0.02622186
Charge-correction       :            0.00009198 Eh               0.00250 eV
Free-energy (cav+disp)  :  This term is not implemented in the current solvation scheme

---------------
SCF CONVERGENCE
---------------

  Last Energy change         ...    5.2995e-09  Tolerance :   1.0000e-08
  Last MAX-Density change    ...    4.8850e-15  Tolerance :   1.0000e-07
  Last RMS-Density change    ...    4.8831e-17  Tolerance :   5.0000e-09
  Last Orbital Gradient      ...    1.1129e-06  Tolerance :   1.0000e-05
  Last Orbital Rotation      ...    1.9943e-06  Tolerance :   1.0000e-05

             **** THE GBW FILE WAS UPDATED (C2_wt_dlpno_pos.gbw) ****
             **** DENSITY C2_wt_dlpno_pos.scfp WAS UPDATED ****
             **** ENERGY FILE WAS UPDATED (C2_wt_dlpno_pos.en.tmp) ****
             **** THE GBW FILE WAS UPDATED (C2_wt_dlpno_pos.gbw) ****
             **** DENSITY C2_wt_dlpno_pos.scfp WAS UPDATED ****
----------------
ORBITAL ENERGIES
----------------

  NO   OCC          E(Eh)            E(eV) 
   0   2.0000     -14.429768      -392.6540 
   1   2.0000     -10.310102      -280.5521 
   2   2.0000     -10.282147      -279.7914 
   3   2.0000     -10.281916      -279.7852 
   4   2.0000     -10.264573      -279.3132 
   5   2.0000     -10.223453      -278.1943 
   6   2.0000      -1.027057       -27.9477 
   7   2.0000      -0.900314       -24.4988 
   8   2.0000      -0.845951       -23.0195 
   9   2.0000      -0.790611       -21.5136 
  10   2.0000      -0.699491       -19.0341 
  11   2.0000      -0.663887       -18.0653 
  12   2.0000      -0.617015       -16.7898 
  13   2.0000      -0.577931       -15.7263 
  14   2.0000      -0.546776       -14.8785 
  15   2.0000      -0.540586       -14.7101 
  16   2.0000      -0.497422       -13.5356 
  17   2.0000      -0.485725       -13.2172 
  18   2.0000      -0.469062       -12.7638 
  19   2.0000      -0.458928       -12.4881 
  20   2.0000      -0.426238       -11.5985 
  21   2.0000      -0.413552       -11.2533 
  22   2.0000      -0.410363       -11.1665 
  23   2.0000      -0.287140        -7.8135 
  24   0.0000       0.095512         2.5990 
  25   0.0000       0.113488         3.0882 
  26   0.0000       0.122587         3.3358 
  27   0.0000       0.125670         3.4197 
  28   0.0000       0.144952         3.9443 
  29   0.0000       0.154861         4.2140 
  30   0.0000       0.165597         4.5061 
  31   0.0000       0.171795         4.6748 
  32   0.0000       0.186118         5.0645 
  33   0.0000       0.195930         5.3315 
  34   0.0000       0.208841         5.6828 
  35   0.0000       0.215456         5.8629 
  36   0.0000       0.225722         6.1422 
  37   0.0000       0.230610         6.2752 
  38   0.0000       0.248846         6.7714 
  39   0.0000       0.256759         6.9868 
  40   0.0000       0.262380         7.1397 
  41   0.0000       0.266982         7.2649 
  42   0.0000       0.275678         7.5016 
  43   0.0000       0.282826         7.6961 
  44   0.0000       0.307326         8.3628 
  45   0.0000       0.311574         8.4784 
  46   0.0000       0.319514         8.6944 
  47   0.0000       0.330452         8.9921 
  48   0.0000       0.341172         9.2838 
  49   0.0000       0.350305         9.5323 
  50   0.0000       0.353329         9.6146 
  51   0.0000       0.359966         9.7952 
  52   0.0000       0.380612        10.3570 
  53   0.0000       0.386511        10.5175 
  54   0.0000       0.391127        10.6431 
  55   0.0000       0.397796        10.8246 
  56   0.0000       0.410315        11.1652 
  57   0.0000       0.413126        11.2417 
  58   0.0000       0.416771        11.3409 
  59   0.0000       0.421943        11.4817 
  60   0.0000       0.437370        11.9014 
  61   0.0000       0.448213        12.1965 
  62   0.0000       0.449536        12.2325 
  63   0.0000       0.452586        12.3155 
  64   0.0000       0.457904        12.4602 
  65   0.0000       0.459237        12.4965 
  66   0.0000       0.467942        12.7334 
  67   0.0000       0.476733        12.9726 
  68   0.0000       0.484879        13.1942 
  69   0.0000       0.487822        13.2743 
  70   0.0000       0.493531        13.4297 
  71   0.0000       0.504130        13.7181 
  72   0.0000       0.508533        13.8379 
  73   0.0000       0.510112        13.8809 
  74   0.0000       0.535884        14.5822 
  75   0.0000       0.540272        14.7016 
  76   0.0000       0.544033        14.8039 
  77   0.0000       0.555083        15.1046 
  78   0.0000       0.556522        15.1437 
  79   0.0000       0.562140        15.2966 
  80   0.0000       0.576584        15.6896 
  81   0.0000       0.580344        15.7920 
  82   0.0000       0.593399        16.1472 
  83   0.0000       0.598270        16.2798 
  84   0.0000       0.602939        16.4068 
  85   0.0000       0.604105        16.4385 
  86   0.0000       0.607307        16.5257 
  87   0.0000       0.613907        16.7053 
  88   0.0000       0.628294        17.0967 
  89   0.0000       0.637483        17.3468 
  90   0.0000       0.648630        17.6501 
  91   0.0000       0.659624        17.9493 
  92   0.0000       0.667679        18.1685 
  93   0.0000       0.675288        18.3755 
  94   0.0000       0.684679        18.6311 
  95   0.0000       0.690696        18.7948 
  96   0.0000       0.694712        18.9041 
  97   0.0000       0.695767        18.9328 
  98   0.0000       0.719281        19.5726 
  99   0.0000       0.733419        19.9573 
 100   0.0000       0.743279        20.2256 
 101   0.0000       0.747454        20.3393 
 102   0.0000       0.771271        20.9873 
 103   0.0000       0.792434        21.5632 
 104   0.0000       0.794970        21.6322 
 105   0.0000       0.819352        22.2957 
 106   0.0000       0.831879        22.6366 
 107   0.0000       0.841579        22.9005 
 108   0.0000       0.870731        23.6938 
 109   0.0000       0.901777        24.5386 
 110   0.0000       0.981406        26.7054 
 111   0.0000       0.995724        27.0950 
 112   0.0000       1.017158        27.6783 
 113   0.0000       1.061647        28.8889 
 114   0.0000       1.066351        29.0169 
 115   0.0000       1.071163        29.1478 
 116   0.0000       1.094043        29.7704 
 117   0.0000       1.100855        29.9558 
 118   0.0000       1.120294        30.4848 
 119   0.0000       1.134421        30.8692 
 120   0.0000       1.137292        30.9473 
 121   0.0000       1.155352        31.4387 
 122   0.0000       1.165889        31.7255 
 123   0.0000       1.173205        31.9245 
 124   0.0000       1.186998        32.2999 
 125   0.0000       1.189186        32.3594 
 126   0.0000       1.215998        33.0890 
 127   0.0000       1.243280        33.8314 
 128   0.0000       1.269396        34.5420 
 129   0.0000       1.279746        34.8237 
 130   0.0000       1.301743        35.4222 
 131   0.0000       1.312445        35.7134 
 132   0.0000       1.333678        36.2912 
 133   0.0000       1.344281        36.5797 
 134   0.0000       1.352772        36.8108 
 135   0.0000       1.395065        37.9616 
 136   0.0000       1.414164        38.4814 
 137   0.0000       1.463173        39.8150 
 138   0.0000       1.525780        41.5186 
 139   0.0000       1.537488        41.8372 
 140   0.0000       1.558152        42.3995 
 141   0.0000       1.603076        43.6219 
 142   0.0000       1.666938        45.3597 
 143   0.0000       1.694904        46.1207 
 144   0.0000       1.711240        46.5652 
 145   0.0000       1.720276        46.8111 
 146   0.0000       1.756810        47.8052 
 147   0.0000       1.783743        48.5381 
 148   0.0000       1.801623        49.0246 
 149   0.0000       1.831095        49.8266 
 150   0.0000       1.846412        50.2434 
 151   0.0000       1.881869        51.2083 
 152   0.0000       1.913435        52.0672 
 153   0.0000       1.952871        53.1403 
 154   0.0000       1.965073        53.4723 
 155   0.0000       1.976494        53.7831 
 156   0.0000       1.987389        54.0796 
 157   0.0000       2.004878        54.5555 
 158   0.0000       2.030461        55.2517 
 159   0.0000       2.043731        55.6128 
 160   0.0000       2.062356        56.1196 
 161   0.0000       2.082739        56.6742 
 162   0.0000       2.095700        57.0269 
 163   0.0000       2.106320        57.3159 
 164   0.0000       2.136407        58.1346 
 165   0.0000       2.151492        58.5451 
 166   0.0000       2.169017        59.0220 
 167   0.0000       2.181002        59.3481 
 168   0.0000       2.213776        60.2399 
 169   0.0000       2.238925        60.9243 
 170   0.0000       2.252240        61.2866 
 171   0.0000       2.280071        62.0439 
 172   0.0000       2.299801        62.5808 
 173   0.0000       2.329574        63.3909 
 174   0.0000       2.361387        64.2566 
 175   0.0000       2.397219        65.2317 
 176   0.0000       2.416423        65.7542 
 177   0.0000       2.434687        66.2512 
 178   0.0000       2.492817        67.8330 
 179   0.0000       2.529285        68.8254 
 180   0.0000       2.545990        69.2799 
 181   0.0000       2.569941        69.9317 
 182   0.0000       2.585127        70.3449 
 183   0.0000       2.595517        70.6276 
 184   0.0000       2.646231        72.0076 
 185   0.0000       2.682708        73.0002 
 186   0.0000       2.709663        73.7337 
 187   0.0000       2.723608        74.1131 
 188   0.0000       2.741818        74.6087 
 189   0.0000       2.808506        76.4233 
 190   0.0000       2.814003        76.5729 
 191   0.0000       2.837666        77.2168 
 192   0.0000       2.873225        78.1844 
 193   0.0000       2.915278        79.3287 
 194   0.0000       2.920761        79.4780 
 195   0.0000       3.071333        83.5752 
 196   0.0000       3.127913        85.1149 
 197   0.0000       3.155325        85.8608 
 198   0.0000       3.198557        87.0372 
 199   0.0000       3.231722        87.9396 
 200   0.0000       3.273665        89.0809 
 201   0.0000       3.306075        89.9629 
 202   0.0000       3.341166        90.9177 
 203   0.0000       3.384991        92.1103 
 204   0.0000       3.419257        93.0427 
 205   0.0000       3.445389        93.7538 
 206   0.0000       3.651240        99.3553 
 207   0.0000       3.824782       104.0776 

                    ********************************
                    * MULLIKEN POPULATION ANALYSIS *
                    ********************************

-----------------------
MULLIKEN ATOMIC CHARGES
-----------------------
   0 C :   -0.331976
   1 C :    0.656770
   2 C :    0.139699
   3 H :   -0.040510
   4 H :   -0.041176
   5 C :   -0.140955
   6 N :    0.034939
   7 C :    0.378072
   8 H :   -0.057338
   9 H :   -0.376934
  10 H :   -0.044804
  11 H :   -0.109589
  12 H :   -0.060632
  13 H :    0.110169
  14 H :   -0.047770
  15 H :   -0.093986
  16 H :    0.026020
Sum of atomic charges:    0.0000000

--------------------------------
MULLIKEN REDUCED ORBITAL CHARGES
--------------------------------
  0 C s       :     2.865813  s :     2.865813
      pz      :     0.971911  p :     2.953936
      px      :     1.030012
      py      :     0.952013
      dz2     :     0.019824  d :     0.512227
      dxz     :     0.150351
      dyz     :     0.127148
      dx2y2   :     0.069676
      dxy     :     0.145227
  1 C s       :     2.450094  s :     2.450094
      pz      :     0.851049  p :     2.783187
      px      :     0.994097
      py      :     0.938040
      dz2     :    -0.014674  d :     0.109949
      dxz     :     0.056291
      dyz     :    -0.007748
      dx2y2   :     0.031155
      dxy     :     0.044926
  2 C s       :     2.797035  s :     2.797035
      pz      :     0.983860  p :     2.820412
      px      :     0.823897
      py      :     1.012654
      dz2     :     0.076755  d :     0.242855
      dxz     :     0.022567
      dyz     :     0.104806
      dx2y2   :     0.044485
      dxy     :    -0.005759
  3 H s       :     0.994995  s :     0.994995
      pz      :     0.012730  p :     0.045515
      px      :     0.024793
      py      :     0.007992
  4 H s       :     1.030464  s :     1.030464
      pz      :     0.012970  p :     0.010712
      px      :    -0.034267
      py      :     0.032009
  5 C s       :     2.756057  s :     2.756057
      pz      :     0.788894  p :     2.563232
      px      :     0.849979
      py      :     0.924359
      dz2     :     0.197549  d :     0.821665
      dxz     :     0.073919
      dyz     :     0.239940
      dx2y2   :     0.116180
      dxy     :     0.194077
  6 N s       :     3.267577  s :     3.267577
      pz      :     1.269420  p :     3.700513
      px      :     1.200664
      py      :     1.230429
      dz2     :     0.001556  d :    -0.003029
      dxz     :    -0.000145
      dyz     :    -0.007005
      dx2y2   :     0.000301
      dxy     :     0.002264
  7 C s       :     3.052937  s :     3.052937
      pz      :     0.989759  p :     2.506077
      px      :     0.799840
      py      :     0.716478
      dz2     :     0.019426  d :     0.062913
      dxz     :     0.020514
      dyz     :     0.018714
      dx2y2   :     0.021774
      dxy     :    -0.017515
  8 H s       :     1.070184  s :     1.070184
      pz      :    -0.024817  p :    -0.012846
      px      :     0.019088
      py      :    -0.007117
  9 H s       :     1.344120  s :     1.344120
      pz      :     0.020549  p :     0.032814
      px      :    -0.014382
      py      :     0.026647
 10 H s       :     0.997660  s :     0.997660
      pz      :     0.014666  p :     0.047144
      px      :     0.029696
      py      :     0.002782
 11 H s       :     1.066386  s :     1.066386
      pz      :     0.008379  p :     0.043202
      px      :     0.006434
      py      :     0.028389
 12 H s       :     1.018796  s :     1.018796
      pz      :    -0.020221  p :     0.041837
      px      :     0.034715
      py      :     0.027342
 13 H s       :     0.849580  s :     0.849580
      pz      :     0.043791  p :     0.040251
      px      :    -0.018599
      py      :     0.015058
 14 H s       :     1.039503  s :     1.039503
      pz      :     0.046715  p :     0.008267
      px      :    -0.009910
      py      :    -0.028538
 15 H s       :     1.022180  s :     1.022180
      pz      :     0.013852  p :     0.071807
      px      :     0.007246
      py      :     0.050709
 16 H s       :     0.944047  s :     0.944047
      pz      :    -0.036121  p :     0.029933
      px      :     0.019070
      py      :     0.046983


                     *******************************
                     * LOEWDIN POPULATION ANALYSIS *
                     *******************************

----------------------
LOEWDIN ATOMIC CHARGES
----------------------
   0 C :   -0.064895
   1 C :    0.116558
   2 C :    0.002375
   3 H :    0.018240
   4 H :    0.018977
   5 C :   -0.274183
   6 N :    0.175376
   7 C :    0.146171
   8 H :   -0.074464
   9 H :   -0.079117
  10 H :    0.012948
  11 H :    0.014014
  12 H :    0.026296
  13 H :    0.023240
  14 H :   -0.018702
  15 H :   -0.029098
  16 H :   -0.013737

-------------------------------
LOEWDIN REDUCED ORBITAL CHARGES
-------------------------------
  0 C s       :     2.691006  s :     2.691006
      pz      :     0.890859  p :     2.706010
      px      :     0.898422
      py      :     0.916729
      dz2     :     0.102920  d :     0.667879
      dxz     :     0.158796
      dyz     :     0.149562
      dx2y2   :     0.112537
      dxy     :     0.144064
  1 C s       :     2.702409  s :     2.702409
      pz      :     0.930419  p :     2.773116
      px      :     0.906694
      py      :     0.936003
      dz2     :     0.050641  d :     0.407917
      dxz     :     0.092017
      dyz     :     0.069760
      dx2y2   :     0.085594
      dxy     :     0.109905
  2 C s       :     2.682681  s :     2.682681
      pz      :     0.890979  p :     2.684505
      px      :     0.900044
      py      :     0.893482
      dz2     :     0.166659  d :     0.630438
      dxz     :     0.111698
      dyz     :     0.162581
      dx2y2   :     0.066531
      dxy     :     0.122968
  3 H s       :     0.730759  s :     0.730759
      pz      :     0.072189  p :     0.251000
      px      :     0.082876
      py      :     0.095935
  4 H s       :     0.732686  s :     0.732686
      pz      :     0.083953  p :     0.248337
      px      :     0.061576
      py      :     0.102808
  5 C s       :     2.660929  s :     2.660929
      pz      :     0.876571  p :     2.563677
      px      :     0.856895
      py      :     0.830211
      dz2     :     0.218822  d :     1.049576
      dxz     :     0.197891
      dyz     :     0.194500
      dx2y2   :     0.224423
      dxy     :     0.213940
  6 N s       :     2.925228  s :     2.925228
      pz      :     1.192383  p :     3.552258
      px      :     1.172609
      py      :     1.187266
      dz2     :     0.037720  d :     0.347138
      dxz     :     0.089713
      dyz     :     0.046451
      dx2y2   :     0.093879
      dxy     :     0.079375
  7 C s       :     2.728887  s :     2.728887
      pz      :     0.935844  p :     2.783287
      px      :     0.927931
      py      :     0.919512
      dz2     :     0.066293  d :     0.341654
      dxz     :     0.070664
      dyz     :     0.084303
      dx2y2   :     0.062960
      dxy     :     0.057434
  8 H s       :     0.757173  s :     0.757173
      pz      :     0.089390  p :     0.317291
      px      :     0.116573
      py      :     0.111329
  9 H s       :     0.771467  s :     0.771467
      pz      :     0.100628  p :     0.307650
      px      :     0.084427
      py      :     0.122594
 10 H s       :     0.648335  s :     0.648335
      pz      :     0.136555  p :     0.338717
      px      :     0.108651
      py      :     0.093511
 11 H s       :     0.652250  s :     0.652250
      pz      :     0.113184  p :     0.333736
      px      :     0.085028
      py      :     0.135524
 12 H s       :     0.727122  s :     0.727122
      pz      :     0.061957  p :     0.246582
      px      :     0.108450
      py      :     0.076176
 13 H s       :     0.714541  s :     0.714541
      pz      :     0.078875  p :     0.262219
      px      :     0.100298
      py      :     0.083045
 14 H s       :     0.745977  s :     0.745977
      pz      :     0.122718  p :     0.272725
      px      :     0.071909
      py      :     0.078098
 15 H s       :     0.737117  s :     0.737117
      pz      :     0.111910  p :     0.291981
      px      :     0.072490
      py      :     0.107581
 16 H s       :     0.740634  s :     0.740634
      pz      :     0.082595  p :     0.273103
      px      :     0.084501
      py      :     0.106006


                      *****************************
                      * MAYER POPULATION ANALYSIS *
                      *****************************

  NA   - Mulliken gross atomic population
  ZA   - Total nuclear charge
  QA   - Mulliken gross atomic charge
  VA   - Mayer's total valence
  BVA  - Mayer's bonded valence
  FA   - Mayer's free valence

  ATOM       NA         ZA         QA         VA         BVA        FA
  0 C      6.3320     6.0000    -0.3320     5.1459     5.1459     0.0000
  1 C      5.3432     6.0000     0.6568     3.8886     3.8886    -0.0000
  2 C      5.8603     6.0000     0.1397     4.4441     4.4441     0.0000
  3 H      1.0405     1.0000    -0.0405     1.1371     1.1371     0.0000
  4 H      1.0412     1.0000    -0.0412     1.0978     1.0978     0.0000
  5 C      6.1410     6.0000    -0.1410     4.8751     4.8751     0.0000
  6 N      6.9651     7.0000     0.0349     3.9354     3.9354     0.0000
  7 C      5.6219     6.0000     0.3781     3.7699     3.7699     0.0000
  8 H      1.0573     1.0000    -0.0573     0.9715     0.9715    -0.0000
  9 H      1.3769     1.0000    -0.3769     0.9780     0.9780     0.0000
 10 H      1.0448     1.0000    -0.0448     0.9656     0.9656     0.0000
 11 H      1.1096     1.0000    -0.1096     0.9683     0.9683     0.0000
 12 H      1.0606     1.0000    -0.0606     1.1364     1.1364     0.0000
 13 H      0.8898     1.0000     0.1102     1.0146     1.0146     0.0000
 14 H      1.0478     1.0000    -0.0478     0.9869     0.9869    -0.0000
 15 H      1.0940     1.0000    -0.0940     1.1400     1.1400     0.0000
 16 H      0.9740     1.0000     0.0260     1.0275     1.0275    -0.0000

  Mayer bond orders larger than 0.100000
B(  0-C ,  1-C ) :   1.2834 B(  0-C ,  2-C ) :   1.1439 B(  0-C ,  3-H ) :   0.9277 
B(  0-C ,  4-H ) :   0.9464 B(  0-C , 13-H ) :   0.1165 B(  0-C , 14-H ) :   0.2029 
B(  0-C , 15-H ) :   0.2164 B(  0-C , 16-H ) :   0.1931 B(  1-C , 14-H ) :   0.7997 
B(  1-C , 15-H ) :   0.8428 B(  1-C , 16-H ) :   0.7871 B(  2-C ,  3-H ) :   0.1446 
B(  2-C ,  4-H ) :   0.1094 B(  2-C ,  5-C ) :   1.1317 B(  2-C ,  6-N ) :   0.1146 
B(  2-C ,  7-C ) :   0.1554 B(  2-C , 12-H ) :   0.9144 B(  2-C , 13-H ) :   0.8028 
B(  5-C ,  6-N ) :   1.1953 B(  5-C ,  7-C ) :   1.8530 B(  5-C ,  8-H ) :   0.1437 
B(  5-C ,  9-H ) :   0.2685 B(  5-C , 12-H ) :   0.1476 B(  5-C , 13-H ) :   0.1275 
B(  6-N ,  7-C ) :   0.2179 B(  6-N , 10-H ) :   1.1306 B(  6-N , 11-H ) :   1.2290 
B(  7-C ,  8-H ) :   0.9054 B(  7-C ,  9-H ) :   0.6704 B( 10-H , 11-H ) :  -0.1464 


-------
TIMINGS
-------

Total SCF time: 0 days 0 hours 0 min 13 sec 

Total time                  ....      13.909 sec
Sum of individual times     ....      13.591 sec  ( 97.7%)

Fock matrix formation       ....      12.640 sec  ( 90.9%)
  Split-RI-J                ....       0.711 sec  (  5.6% of F)
  Chain of spheres X        ....       9.034 sec  ( 71.5% of F)
  XC integration            ....       1.285 sec  ( 10.2% of F)
    Basis function eval.    ....       0.347 sec  ( 27.0% of XC)
    Density eval.           ....       0.276 sec  ( 21.4% of XC)
    XC-Functional eval.     ....       0.087 sec  (  6.8% of XC)
    XC-Potential eval.      ....       0.352 sec  ( 27.4% of XC)
Diagonalization             ....       0.070 sec  (  0.5%)
Density matrix formation    ....       0.009 sec  (  0.1%)
Population analysis         ....       0.011 sec  (  0.1%)
Initial guess               ....       0.069 sec  (  0.5%)
Orbital Transformation      ....       0.000 sec  (  0.0%)
Orbital Orthonormalization  ....       0.000 sec  (  0.0%)
DIIS solution               ....       0.046 sec  (  0.3%)
SOSCF solution              ....       0.061 sec  (  0.4%)
Grid generation             ....       0.685 sec  (  4.9%)

Maximum memory used throughout the entire SCF-calculation: 55.3 MB


-------------------------------------------------------------------------------
                          DFT DISPERSION CORRECTION                            
                                                                               
                              DFTD3 V3.1  Rev 1                                
                              USING zero damping                               
-------------------------------------------------------------------------------
The omegaB97X-D3 functional is recognized. Fit by Chai et al.
Active option DFTDOPT                   ...         3   

molecular C6(AA) [au] = 2124.962890 


            DFT-D V3
 parameters
 s6 scaling factor         :     1.0000 
 rs6 scaling factor        :     1.2810 
 s8 scaling factor         :     1.0000 
 rs8 scaling factor        :     1.0940 
 Damping factor alpha6     :    14.0000 
 Damping factor alpha8     :    16.0000 
 ad hoc parameters k1-k3   :    16.0000     1.3333    -4.0000 

 Edisp/kcal,au: -2.898213340079  -0.004618596453 
 E6   /kcal   :  -1.189743640 
 E8   /kcal   :  -1.708469701 
 % E8         :  58.949066203 

-------------------------   ----------------
Dispersion correction           -0.004618596
-------------------------   ----------------


-------------------------   --------------------
FINAL SINGLE POINT ENERGY      -251.651942215153
-------------------------   --------------------


                            ***************************************
                            *     ORCA property calculations      *
                            ***************************************

                                    ---------------------
                                    Active property flags
                                    ---------------------
   (+) Dipole Moment


------------------------------------------------------------------------------
                       ORCA ELECTRIC PROPERTIES CALCULATION
------------------------------------------------------------------------------

Dipole Moment Calculation                       ... on
Quadrupole Moment Calculation                   ... off
Polarizability Calculation                      ... off
GBWName                                         ... C2_wt_dlpno_pos.gbw
Electron density file                           ... C2_wt_dlpno_pos.scfp
The origin for moment calculation is the CENTER OF MASS  = ( 3.734878, -3.435000 -6.685284)

-------------
DIPOLE MOMENT
-------------
                                X             Y             Z
Electronic contribution:      3.31902       0.71559       2.08179
Nuclear contribution   :     -2.61370      -0.54788      -2.73987
                        -----------------------------------------
Total Dipole Moment    :      0.70532       0.16771      -0.65808
                        -----------------------------------------
Magnitude (a.u.)       :      0.97912
Magnitude (Debye)      :      2.48871



--------------------
Rotational spectrum 
--------------------
 
Rotational constants in cm-1:     0.186678     0.079942     0.069329 
Rotational constants in MHz :  5596.476267  2396.611465  2078.426257 

 Dipole components along the rotational axes: 
x,y,z [a.u.] :    -0.018501     0.927693     0.312586 
x,y,z [Debye]:    -0.047027     2.358009     0.794530 

 

Timings for individual modules:

Sum of individual times         ...       15.064 sec (=   0.251 min)
GTO integral calculation        ...        0.716 sec (=   0.012 min)   4.8 %
SCF iterations                  ...       14.348 sec (=   0.239 min)  95.2 %
                             ****ORCA TERMINATED NORMALLY****
TOTAL RUN TIME: 0 days 0 hours 0 minutes 15 seconds 661 msec
