
                                        *****************
                                        * O   R   C   A *
                                        *****************

                                            #,                                       
                                            ###                                      
                                            ####                                     
                                            #####                                    
                                            ######                                   
                                           ########,                                 
                                     ,,################,,,,,                         
                               ,,#################################,,                 
                          ,,##########################################,,             
                       ,#########################################, ''#####,          
                    ,#############################################,,   '####,        
                  ,##################################################,,,,####,       
                ,###########''''           ''''###############################       
              ,#####''   ,,,,##########,,,,          '''####'''          '####       
            ,##' ,,,,###########################,,,                        '##       
           ' ,,###''''                  '''############,,,                           
         ,,##''                                '''############,,,,        ,,,,,,###''
      ,#''                                            '''#######################'''  
     '                                                          ''''####''''         
             ,#######,   #######,   ,#######,      ##                                
            ,#'     '#,  ##    ##  ,#'     '#,    #''#        ######   ,####,        
            ##       ##  ##   ,#'  ##            #'  '#       #        #'  '#        
            ##       ##  #######   ##           ,######,      #####,   #    #        
            '#,     ,#'  ##    ##  '#,     ,#' ,#      #,         ##   #,  ,#        
             '#######'   ##     ##  '#######'  #'      '#     #####' # '####'        



                  #######################################################
                  #                        -***-                        #
                  #          Department of theory and spectroscopy      #
                  #    Directorship and core code : Frank Neese         #
                  #        Max Planck Institute fuer Kohlenforschung    #
                  #                Kaiser Wilhelm Platz 1               #
                  #                 D-45470 Muelheim/Ruhr               #
                  #                      Germany                        #
                  #                                                     #
                  #                  All rights reserved                #
                  #                        -***-                        #
                  #######################################################


                         Program Version 5.0.0 -  RELEASE  -
                                (SVN: $Rev: 19529$)
                ($Date: 2021-06-28 11:36:33 +0200 (Mo, 28 Jun 2021) $)


 With contributions from (in alphabetic order):
   Daniel Aravena         : Magnetic Suceptibility
   Michael Atanasov       : Ab Initio Ligand Field Theory (pilot matlab implementation)
   Alexander A. Auer      : GIAO ZORA, VPT2 properties, NMR spectrum
   Ute Becker             : Parallelization
   Giovanni Bistoni       : ED, misc. LED, open-shell LED, HFLD
   Martin Brehm           : Molecular dynamics
   Dmytro Bykov           : SCF Hessian
   Vijay G. Chilkuri      : MRCI spin determinant printing, contributions to CSF-ICE
   Dipayan Datta          : RHF DLPNO-CCSD density
   Achintya Kumar Dutta   : EOM-CC, STEOM-CC
   Dmitry Ganyushin       : Spin-Orbit,Spin-Spin,Magnetic field MRCI
   Miquel Garcia          : C-PCM Hessian, Gaussian charge scheme
   Yang Guo               : DLPNO-NEVPT2, F12-NEVPT2, CIM, IAO-localization
   Andreas Hansen         : Spin unrestricted coupled pair/coupled cluster methods
   Benjamin Helmich-Paris : MC-RPA, TRAH-SCF, COSX integrals
   Lee Huntington         : MR-EOM, pCC
   Robert Izsak           : Overlap fitted RIJCOSX, COSX-SCS-MP3, EOM
   Marcus Kettner         : VPT2
   Christian Kollmar      : KDIIS, OOCD, Brueckner-CCSD(T), CCSD density, CASPT2, CASPT2-K
   Simone Kossmann        : Meta GGA functionals, TD-DFT gradient, OOMP2, MP2 Hessian
   Martin Krupicka        : Initial AUTO-CI
   Lucas Lang             : DCDCAS
   Marvin Lechner         : AUTO-CI (C++ implementation), FIC-MRCC
   Dagmar Lenk            : GEPOL surface, SMD
   Dimitrios Liakos       : Extrapolation schemes; Compound Job, initial MDCI parallelization
   Dimitrios Manganas     : Further ROCIS development; embedding schemes
   Dimitrios Pantazis     : SARC Basis sets
   Anastasios Papadopoulos: AUTO-CI, single reference methods and gradients
   Taras Petrenko         : DFT Hessian,TD-DFT gradient, ASA, ECA, R-Raman, ABS, FL, XAS/XES, NRVS
   Peter Pinski           : DLPNO-MP2, DLPNO-MP2 Gradient
   Christoph Reimann      : Effective Core Potentials
   Marius Retegan         : Local ZFS, SOC
   Christoph Riplinger    : Optimizer, TS searches, QM/MM, DLPNO-CCSD(T), (RO)-DLPNO pert. Triples
   Tobias Risthaus        : Range-separated hybrids, TD-DFT gradient, RPA, STAB
   Michael Roemelt        : Original ROCIS implementation
   Masaaki Saitow         : Open-shell DLPNO-CCSD energy and density
   Barbara Sandhoefer     : DKH picture change effects
   Avijit Sen             : IP-ROCIS
   Kantharuban Sivalingam : CASSCF convergence, NEVPT2, FIC-MRCI
   Bernardo de Souza      : ESD, SOC TD-DFT
   Georgi Stoychev        : AutoAux, RI-MP2 NMR
   Willem Van den Heuvel  : Paramagnetic NMR
   Boris Wezisla          : Elementary symmetry handling
   Frank Wennmohs         : Technical directorship


 We gratefully acknowledge several colleagues who have allowed us to
 interface, adapt or use parts of their codes:
   Stefan Grimme, W. Hujo, H. Kruse, P. Pracht,  : VdW corrections, initial TS optimization,
                  C. Bannwarth, S. Ehlert          DFT functionals, gCP, sTDA/sTD-DF
   Ed Valeev, F. Pavosevic, A. Kumar             : LibInt (2-el integral package), F12 methods
   Garnet Chan, S. Sharma, J. Yang, R. Olivares  : DMRG
   Ulf Ekstrom                                   : XCFun DFT Library
   Mihaly Kallay                                 : mrcc  (arbitrary order and MRCC methods)
   Jiri Pittner, Ondrej Demel                    : Mk-CCSD
   Frank Weinhold                                : gennbo (NPA and NBO analysis)
   Christopher J. Cramer and Donald G. Truhlar   : smd solvation model
   Lars Goerigk                                  : TD-DFT with DH, B97 family of functionals
   V. Asgeirsson, H. Jonsson                     : NEB implementation
   FAccTs GmbH                                   : IRC, NEB, NEB-TS, DLPNO-Multilevel, CI-OPT
                                                   MM, QMMM, 2- and 3-layer-ONIOM, Crystal-QMMM,
                                                   LR-CPCM, SF, NACMEs, symmetry and pop. for TD-DFT,
                                                   nearIR, NL-DFT gradient (VV10), updates on ESD,
                                                   ML-optimized integration grids
   S Lehtola, MJT Oliveira, MAL Marques          : LibXC Library
   Liviu Ungur et al                             : ANISO software


 Your calculation uses the libint2 library for the computation of 2-el integrals
 For citations please refer to: http://libint.valeyev.net

 Your ORCA version has been built with support for libXC version: 5.1.0
 For citations please refer to: https://tddft.org/programs/libxc/

 This ORCA versions uses:
   CBLAS   interface :  Fast vector & matrix operations
   LAPACKE interface :  Fast linear algebra routines
   SCALAPACK package :  Parallel linear algebra routines
   Shared memory     :  Shared parallel matrices
   BLAS/LAPACK       :  OpenBLAS 0.3.15  USE64BITINT DYNAMIC_ARCH NO_AFFINITY Haswell SINGLE_THREADED
        Core in use  :  Haswell
   Copyright (c) 2011-2014, The OpenBLAS Project


Your calculation utilizes the atom-pairwise dispersion correction
with the Becke-Johnson damping scheme (D3BJ)
Cite in your paper:
S.Grimme, S.Ehrlich, L.Goerigk, J Comput Chem, (2011), 32, 1456–1465 
S.Grimme, J.Antony, S.Ehrlich and H.Krieg, J.Chem.Phys., 132, (2010), 154104 
   

================================================================================

----- Orbital basis set information -----
Your calculation utilizes the basis: def2-SVPD
   F. Weigend and R. Ahlrichs, Phys. Chem. Chem. Phys. 7, 3297 (2005).
   D. Rappoport and F. Furche, J. Chem. Phys. 133 134105 (2010).

----- AuxJ basis set information -----
Your calculation utilizes the auxiliary basis: def2/J
   F. Weigend, Phys. Chem. Chem. Phys. 8, 1057 (2006).

================================================================================
                                        WARNINGS
                       Please study these warnings very carefully!
================================================================================



WARNING: Found flag for RIJCOSX approximation but no HF exchange needed!
  ===> : RIJCOSX  will be disabled and Split-RI-J is turned on

INFO   : the flag for use of the SHARK integral package has been found!

================================================================================
                                       INPUT FILE
================================================================================
NAME = 14Feb_SVPD_TPSS_A_wt_wb97_typ1_neg.com
|  1> !TPSS D3BJ RIJCOSX def2-SVPD def2/J TightSCF 
|  2> *xyz -1 1 
|  3> C         -5.57236       -5.80780       -0.81644
|  4> S         -6.90318       -4.61903       -0.52846
|  5> O         -8.11485       -5.25093       -0.95701
|  6> O         -6.53271       -3.42684       -1.31485
|  7> O         -6.86563       -4.29496        0.91412
|  8> C         -3.82708       -4.66110        0.78617
|  9> C         -4.45780       -5.94187        0.22919
| 10> H         -5.17735       -5.54257       -1.79771
| 11> H         -6.07420       -6.76889       -0.92127
| 12> H         -3.68106       -6.56224       -0.22988
| 13> H         -4.84394       -6.51273        1.07581
| 14> H         -3.43706       -4.07576       -0.02016
| 15> H         -3.03403       -4.91680        1.45744
| 16> H         -4.56975       -4.09647        1.31013
| 17> *
| 18> %MaxCore 64000
| 19> 
| 20> %pal nprocs 4
| 21> end  
| 22> 
| 23> %scf
| 24>   MaxIter 150
| 25> end
| 26> 
| 27>                          ****END OF INPUT****
================================================================================

                       ****************************
                       * Single Point Calculation *
                       ****************************

---------------------------------
CARTESIAN COORDINATES (ANGSTROEM)
---------------------------------
  C     -5.572360   -5.807800   -0.816440
  S     -6.903180   -4.619030   -0.528460
  O     -8.114850   -5.250930   -0.957010
  O     -6.532710   -3.426840   -1.314850
  O     -6.865630   -4.294960    0.914120
  C     -3.827080   -4.661100    0.786170
  C     -4.457800   -5.941870    0.229190
  H     -5.177350   -5.542570   -1.797710
  H     -6.074200   -6.768890   -0.921270
  H     -3.681060   -6.562240   -0.229880
  H     -4.843940   -6.512730    1.075810
  H     -3.437060   -4.075760   -0.020160
  H     -3.034030   -4.916800    1.457440
  H     -4.569750   -4.096470    1.310130

----------------------------
CARTESIAN COORDINATES (A.U.)
----------------------------
  NO LB      ZA    FRAG     MASS         X           Y           Z
   0 C     6.0000    0    12.011  -10.530234  -10.975151   -1.542848
   1 S    16.0000    0    32.060  -13.045120   -8.728702   -0.998645
   2 O     8.0000    0    15.999  -15.334844   -9.922820   -1.808487
   3 O     8.0000    0    15.999  -12.345033   -6.475789   -2.484706
   4 O     8.0000    0    15.999  -12.974160   -8.116298    1.727436
   5 C     6.0000    0    12.011   -7.232133   -8.808202    1.485646
   6 C     6.0000    0    12.011   -8.424021  -11.228507    0.433106
   7 H     1.0000    0     1.008   -9.783774  -10.473939   -3.397180
   8 H     1.0000    0     1.008  -11.478574  -12.791348   -1.740948
   9 H     1.0000    0     1.008   -6.956195  -12.400836   -0.434410
  10 H     1.0000    0     1.008   -9.153720  -12.307276    2.032986
  11 H     1.0000    0     1.008   -6.495102   -7.702070   -0.038097
  12 H     1.0000    0     1.008   -5.733486   -9.291405    2.754162
  13 H     1.0000    0     1.008   -8.635576   -7.741206    2.475787

--------------------------------
INTERNAL COORDINATES (ANGSTROEM)
--------------------------------
 C      0   0   0     0.000000000000     0.00000000     0.00000000
 S      1   0   0     1.807536573821     0.00000000     0.00000000
 O      2   1   0     1.432165109685   106.56208582     0.00000000
 O      2   1   3     1.475457301686   105.16666730   238.45210070
 O      2   1   3     1.479009271032   106.30854122   122.18883319
 C      1   2   3     2.632352936158    96.00747268   198.21487669
 C      6   1   2     1.532451053607    30.88143637   140.58651855
 H      1   2   3     1.090536870491   104.48290251    94.52506513
 H      1   2   3     1.089278064867   104.85705990   341.96808105
 H      7   6   1     1.094956268259   109.50803404   121.78951800
 H      7   6   1     1.091673331908   107.50268017   236.81120509
 H      6   1   2     1.070003077052    91.21391708   268.47640176
 H      6   1   2     1.070006638017   140.28565014   145.29438000
 H      6   1   2     1.069999928692    93.88826818    18.08681420

---------------------------
INTERNAL COORDINATES (A.U.)
---------------------------
 C      0   0   0     0.000000000000     0.00000000     0.00000000
 S      1   0   0     3.415749101568     0.00000000     0.00000000
 O      2   1   0     2.706399835863   106.56208582     0.00000000
 O      2   1   3     2.788210222482   105.16666730   238.45210070
 O      2   1   3     2.794922471782   106.30854122   122.18883319
 C      1   2   3     4.974426137162    96.00747268   198.21487669
 C      6   1   2     2.895912804956    30.88143637   140.58651855
 H      1   2   3     2.060816024171   104.48290251    94.52506513
 H      1   2   3     2.058437226286   104.85705990   341.96808105
 H      7   6   1     2.069167475630   109.50803404   121.78951800
 H      7   6   1     2.062963625012   107.50268017   236.81120509
 H      6   1   2     2.022012778081    91.21391708   268.47640176
 H      6   1   2     2.022019507330   140.28565014   145.29438000
 H      6   1   2     2.022006828542    93.88826818    18.08681420

---------------------
BASIS SET INFORMATION
---------------------
There are 4 groups of distinct atoms

 Group   1 Type C   : 8s4p2d contracted to 4s2p2d pattern {5111/31/11}
 Group   2 Type S   : 11s8p2d contracted to 5s4p2d pattern {53111/5111/11}
 Group   3 Type O   : 8s5p2d contracted to 4s3p2d pattern {5111/311/11}
 Group   4 Type H   : 4s2p contracted to 2s2p pattern {31/11}

Atom   0C    basis set group =>   1
Atom   1S    basis set group =>   2
Atom   2O    basis set group =>   3
Atom   3O    basis set group =>   3
Atom   4O    basis set group =>   3
Atom   5C    basis set group =>   1
Atom   6C    basis set group =>   1
Atom   7H    basis set group =>   4
Atom   8H    basis set group =>   4
Atom   9H    basis set group =>   4
Atom  10H    basis set group =>   4
Atom  11H    basis set group =>   4
Atom  12H    basis set group =>   4
Atom  13H    basis set group =>   4
---------------------------------
AUXILIARY/J BASIS SET INFORMATION
---------------------------------
There are 4 groups of distinct atoms

 Group   1 Type C   : 12s5p4d2f1g contracted to 6s4p3d1f1g pattern {711111/2111/211/2/1}
 Group   2 Type S   : 14s5p5d2f1g contracted to 8s4p3d1f1g pattern {71111111/2111/311/2/1}
 Group   3 Type O   : 12s5p4d2f1g contracted to 6s4p3d1f1g pattern {711111/2111/211/2/1}
 Group   4 Type H   : 5s2p1d contracted to 3s1p1d pattern {311/2/1}

Atom   0C    basis set group =>   1
Atom   1S    basis set group =>   2
Atom   2O    basis set group =>   3
Atom   3O    basis set group =>   3
Atom   4O    basis set group =>   3
Atom   5C    basis set group =>   1
Atom   6C    basis set group =>   1
Atom   7H    basis set group =>   4
Atom   8H    basis set group =>   4
Atom   9H    basis set group =>   4
Atom  10H    basis set group =>   4
Atom  11H    basis set group =>   4
Atom  12H    basis set group =>   4
Atom  13H    basis set group =>   4


           ************************************************************
           *        Program running with 4 parallel MPI-processes     *
           *              working on a common directory               *
           ************************************************************
------------------------------------------------------------------------------
                           ORCA GTO INTEGRAL CALCULATION
                           -- RI-GTO INTEGRALS CHOSEN --
------------------------------------------------------------------------------
------------------------------------------------------------------------------
                   ___                                                        
                  /   \      - P O W E R E D   B Y -                         
                 /     \                                                     
                 |  |  |   _    _      __       _____    __    __             
                 |  |  |  | |  | |    /  \     |  _  \  |  |  /  |          
                  \  \/   | |  | |   /    \    | | | |  |  | /  /          
                 / \  \   | |__| |  /  /\  \   | |_| |  |  |/  /          
                |  |  |   |  __  | /  /__\  \  |    /   |      \           
                |  |  |   | |  | | |   __   |  |    \   |  |\   \          
                \     /   | |  | | |  |  |  |  | |\  \  |  | \   \       
                 \___/    |_|  |_| |__|  |__|  |_| \__\ |__|  \__/        
                                                                              
                      - O R C A' S   B I G   F R I E N D -                    
                                      &                                       
                       - I N T E G R A L  F E E D E R -                       
                                                                              
 v1 FN, 2020, v2 2021                                                         
------------------------------------------------------------------------------


Reading SHARK input file 14Feb_SVPD_TPSS_A_wt_wb97_typ1_neg.SHARKINP.tmp ... ok
----------------------
SHARK INTEGRAL PACKAGE
----------------------

Number of atoms                             ...     14
Number of basis functions                   ...    212
Number of shells                            ...     90
Maximum angular momentum                    ...      2
Integral batch strategy                     ... SHARK/LIBINT Hybrid
RI-J (if used) integral strategy            ... SPLIT-RIJ (Revised 2003 algorithm where possible)
Printlevel                                  ...      1
Contraction scheme used                     ... SEGMENTED contraction
Coulomb Range Separation                    ... NOT USED
Exchange Range Separation                   ... NOT USED
Finite Nucleus Model                        ... NOT USED
Auxiliary Coulomb fitting basis             ... AVAILABLE
   # of basis functions in Aux-J            ...    422
   # of shells in Aux-J                     ...    142
   Maximum angular momentum in Aux-J        ...      4
Auxiliary J/K fitting basis                 ... NOT available
Auxiliary Correlation fitting basis         ... NOT available
Auxiliary 'external' fitting basis          ... NOT available
Integral threshold                          ...     2.500000e-11
Primitive cut-off                           ...     2.500000e-12
Primitive pair pre-selection threshold      ...     2.500000e-12

Calculating pre-screening integrals         ... done (  0.0 sec) Dimension = 90
Organizing shell pair data                  ... done (  0.0 sec)
Shell pair information
Total number of shell pairs                 ...      4095
Shell pairs after pre-screening             ...      3996
Total number of primitive shell pairs       ...     11447
Primitive shell pairs kept                  ...      9104
          la=0 lb=0:    911 shell pairs
          la=1 lb=0:   1383 shell pairs
          la=1 lb=1:    553 shell pairs
          la=2 lb=0:    590 shell pairs
          la=2 lb=1:    455 shell pairs
          la=2 lb=2:    104 shell pairs

Calculating one electron integrals          ... done (  0.0 sec)
Calculating RI/J V-Matrix + Cholesky decomp.... done (  0.0 sec)
Calculating Nuclear repulsion               ... done (  0.0 sec) ENN=    433.089131180934 Eh

SHARK setup successfully completed in   0.2 seconds

Maximum memory used throughout the entire GTOINT-calculation: 8.9 MB


           ************************************************************
           *        Program running with 4 parallel MPI-processes     *
           *              working on a common directory               *
           ************************************************************
-------------------------------------------------------------------------------
                                 ORCA SCF
-------------------------------------------------------------------------------

------------
SCF SETTINGS
------------
Hamiltonian:
 Density Functional     Method          .... DFT(GTOs)
 Exchange Functional    Exchange        .... TPSS
 Correlation Functional Correlation     .... TPSS
 LDA part of GGA corr.  LDAOpt          .... PW91-LDA
 Gradients option       PostSCFGGA      .... off
   Density functional embedding theory  .... OFF
   NL short-range parameter             ....  5.000000
 RI-approximation to the Coulomb term is turned on
   Number of AuxJ basis functions       .... 422


General Settings:
 Integral files         IntName         .... 14Feb_SVPD_TPSS_A_wt_wb97_typ1_neg
 Hartree-Fock type      HFTyp           .... RHF
 Total Charge           Charge          ....   -1
 Multiplicity           Mult            ....    1
 Number of Electrons    NEL             ....   66
 Basis Dimension        Dim             ....  212
 Nuclear Repulsion      ENuc            ....    433.0891311809 Eh

Convergence Acceleration:
 DIIS                   CNVDIIS         .... on
   Start iteration      DIISMaxIt       ....    12
   Startup error        DIISStart       ....  0.200000
   # of expansion vecs  DIISMaxEq       ....     5
   Bias factor          DIISBfac        ....   1.050
   Max. coefficient     DIISMaxC        ....  10.000
 Trust-Rad. Augm. Hess. CNVTRAH         .... auto
   Auto Start mean grad. ratio tolernc. ....  1.125000
   Auto Start start iteration           ....    20
   Auto Start num. interpolation iter.  ....    10
   Max. Number of Micro iterations      ....    16
   Max. Number of Macro iterations      .... Maxiter - #DIIS iter
   Number of Davidson start vectors     ....     2
   Converg. threshold I  (grad. norm)   ....   1.000e-05
   Converg. threshold II (energy diff.) ....   1.000e-08
   Grad. Scal. Fac. for Micro threshold ....   0.100
   Minimum threshold for Micro iter.    ....   0.010
   NR start threshold (gradient norm)   ....   0.001
   Initial trust radius                 ....   0.400
   Minimum AH scaling param. (alpha)    ....   1.000
   Maximum AH scaling param. (alpha)    .... 1000.000
   Orbital update algorithm             .... Taylor
   White noise on init. David. guess    .... on
   Maximum white noise                  ....   0.010
   Quad. conv. algorithm                .... NR
 SOSCF                  CNVSOSCF        .... on
   Start iteration      SOSCFMaxIt      ....   150
   Startup grad/error   SOSCFStart      ....  0.003300
 Level Shifting         CNVShift        .... on
   Level shift para.    LevelShift      ....    0.2500
   Turn off err/grad.   ShiftErr        ....    0.0010
 Zerner damping         CNVZerner       .... off
 Static damping         CNVDamp         .... on
   Fraction old density DampFac         ....    0.7000
   Max. Damping (<1)    DampMax         ....    0.9800
   Min. Damping (>=0)   DampMin         ....    0.0000
   Turn off err/grad.   DampErr         ....    0.1000
 Fernandez-Rico         CNVRico         .... off

SCF Procedure:
 Maximum # iterations   MaxIter         ....   150
 SCF integral mode      SCFMode         .... Direct
   Integral package                     .... SHARK and LIBINT hybrid scheme
 Reset frequency        DirectResetFreq ....    20
 Integral Threshold     Thresh          ....  2.500e-11 Eh
 Primitive CutOff       TCut            ....  2.500e-12 Eh

Convergence Tolerance:
 Convergence Check Mode ConvCheckMode   .... Total+1el-Energy
 Convergence forced     ConvForced      .... 0
 Energy Change          TolE            ....  1.000e-08 Eh
 1-El. energy change                    ....  1.000e-05 Eh
 Orbital Gradient       TolG            ....  1.000e-05
 Orbital Rotation angle TolX            ....  1.000e-05
 DIIS Error             TolErr          ....  5.000e-07


Diagonalization of the overlap matrix:
Smallest eigenvalue                        ... 1.796e-04
Time for diagonalization                   ...    0.011 sec
Threshold for overlap eigenvalues          ... 1.000e-08
Number of eigenvalues below threshold      ... 0
Time for construction of square roots      ...    0.008 sec
Total time needed                          ...    0.021 sec

Time for model grid setup =    0.104 sec

------------------------------
INITIAL GUESS: MODEL POTENTIAL
------------------------------
Loading Hartree-Fock densities                     ... done
Calculating cut-offs                               ... done
Initializing the effective Hamiltonian             ... done
Setting up the integral package (SHARK)            ... done
Starting the Coulomb interaction                   ... done (   0.0 sec)
Reading the grid                                   ... done
Mapping shells                                     ... done
Starting the XC term evaluation                    ... done (   0.1 sec)
  promolecular density results
     # of electrons  =     64.999023040
     EX              =    -66.867370348
     EC              =     -2.279420560
     EX+EC           =    -69.146790909
Transforming the Hamiltonian                       ... done (   0.0 sec)
Diagonalizing the Hamiltonian                      ... done (   0.0 sec)
Back transforming the eigenvectors                 ... done (   0.0 sec)
Now organizing SCF variables                       ... done
                      ------------------
                      INITIAL GUESS DONE (   0.3 sec)
                      ------------------
-------------------
DFT GRID GENERATION
-------------------

General Integration Accuracy     IntAcc      ... 4.388
Radial Grid Type                 RadialGrid  ... OptM3 with GC (2021)
Angular Grid (max. ang.)         AngularGrid ... 4 (Lebedev-302)
Angular grid pruning method      GridPruning ... 4 (adaptive)
Weight generation scheme         WeightScheme... Becke
Basis function cutoff            BFCut       ... 1.0000e-11
Integration weight cutoff        WCut        ... 1.0000e-14
Angular grids for H and He will be reduced by one unit
Partially contracted basis set               ... off
Rotationally invariant grid construction     ... off

Total number of grid points                  ...    68655
Total number of batches                      ...     1080
Average number of points per batch           ...       63
Average number of grid points per atom       ...     4904
Time for grid setup =    0.459 sec

--------------
SCF ITERATIONS
--------------
ITER       Energy         Delta-E        Max-DP      RMS-DP      [F,P]     Damp
               ***  Starting incremental Fock matrix formation  ***
  0   -741.7311271413   0.000000000000 0.17372913  0.00321855  0.2802224 0.7000
  1   -741.9342310457  -0.203103904430 0.06661388  0.00181017  0.0957068 0.7000
                               ***Turning on DIIS***
  2   -741.9933276236  -0.059096577835 0.10887459  0.00266657  0.0318305 0.0000
  3   -742.1054518040  -0.112124180393 0.04233937  0.00120565  0.0572931 0.0000
  4   -742.1261155521  -0.020663748149 0.02384549  0.00044520  0.0174293 0.0000
                      *** Initiating the SOSCF procedure ***
                           *** Shutting down DIIS ***
                      *** Re-Reading the Fockian *** 
                      *** Removing any level shift *** 
ITER      Energy       Delta-E        Grad      Rot      Max-DP    RMS-DP
  5   -742.12853199  -0.0024164352  0.000774  0.000774  0.006301  0.000211
               *** Restarting incremental Fock matrix formation ***
  6   -742.12863035  -0.0000983654  0.000369  0.001168  0.006586  0.000192
  7   -742.12862679   0.0000035591  0.000517  0.000508  0.001387  0.000056
  8   -742.12864208  -0.0000152895  0.000171  0.000492  0.002136  0.000064
  9   -742.12864090   0.0000011863  0.000206  0.000209  0.000648  0.000018
 10   -742.12864450  -0.0000036027  0.000030  0.000128  0.000561  0.000017
 11   -742.12864443   0.0000000683  0.000054  0.000038  0.000147  0.000005
 12   -742.12864461  -0.0000001794  0.000014  0.000041  0.000200  0.000006
 13   -742.12864462  -0.0000000075  0.000008  0.000016  0.000073  0.000002
 14   -742.12864462  -0.0000000065  0.000003  0.000007  0.000041  0.000001
                  ***Gradient check signals convergence***
              ***Rediagonalizing the Fockian in SOSCF/NRSCF***

               *****************************************************
               *                     SUCCESS                       *
               *           SCF CONVERGED AFTER  15 CYCLES          *
               *****************************************************


----------------
TOTAL SCF ENERGY
----------------

Total Energy       :         -742.12864462 Eh          -20194.34708 eV

Components:
Nuclear Repulsion  :          433.08913118 Eh           11784.95439 eV
Electronic Energy  :        -1175.21777581 Eh          -31979.30148 eV
One Electron Energy:        -1891.19660248 Eh          -51462.07583 eV
Two Electron Energy:          715.97882668 Eh           19482.77436 eV

Virial components:
Potential Energy   :        -1480.19787474 Eh          -40278.23188 eV
Kinetic Energy     :          738.06923012 Eh           20083.88480 eV
Virial Ratio       :            2.00550005


DFT components:
N(Alpha)           :       33.000268050970 electrons
N(Beta)            :       33.000268050970 electrons
N(Total)           :       66.000536101941 electrons
E(X)               :      -68.491849690500 Eh       
E(C)               :       -2.325936824709 Eh       
E(XC)              :      -70.817786515209 Eh       
DFET-embed. en.    :        0.000000000000 Eh       

---------------
SCF CONVERGENCE
---------------

  Last Energy change         ...    3.3731e-10  Tolerance :   1.0000e-08
  Last MAX-Density change    ...    1.9691e-05  Tolerance :   1.0000e-07
  Last RMS-Density change    ...    6.3335e-07  Tolerance :   5.0000e-09
  Last Orbital Gradient      ...    2.3660e-06  Tolerance :   1.0000e-05
  Last Orbital Rotation      ...    4.3037e-06  Tolerance :   1.0000e-05

             **** THE GBW FILE WAS UPDATED (14Feb_SVPD_TPSS_A_wt_wb97_typ1_neg.gbw) ****
             **** DENSITY 14Feb_SVPD_TPSS_A_wt_wb97_typ1_neg.scfp WAS UPDATED ****
             **** ENERGY FILE WAS UPDATED (14Feb_SVPD_TPSS_A_wt_wb97_typ1_neg.en.tmp) ****
             **** THE GBW FILE WAS UPDATED (14Feb_SVPD_TPSS_A_wt_wb97_typ1_neg.gbw) ****
             **** DENSITY 14Feb_SVPD_TPSS_A_wt_wb97_typ1_neg.scfp WAS UPDATED ****
----------------
ORBITAL ENERGIES
----------------

  NO   OCC          E(Eh)            E(eV) 
   0   2.0000     -88.368144     -2404.6194 
   1   2.0000     -18.685477      -508.4577 
   2   2.0000     -18.673178      -508.1230 
   3   2.0000     -18.671822      -508.0861 
   4   2.0000      -9.874301      -268.6934 
   5   2.0000      -9.863863      -268.4093 
   6   2.0000      -9.852434      -268.0984 
   7   2.0000      -7.727882      -210.2864 
   8   2.0000      -5.713908      -155.4833 
   9   2.0000      -5.713756      -155.4792 
  10   2.0000      -5.712984      -155.4582 
  11   2.0000      -0.853479       -23.2243 
  12   2.0000      -0.720778       -19.6134 
  13   2.0000      -0.698179       -18.9984 
  14   2.0000      -0.591103       -16.0847 
  15   2.0000      -0.508881       -13.8474 
  16   2.0000      -0.420087       -11.4311 
  17   2.0000      -0.329930        -8.9778 
  18   2.0000      -0.288656        -7.8547 
  19   2.0000      -0.274552        -7.4709 
  20   2.0000      -0.250165        -6.8073 
  21   2.0000      -0.236721        -6.4415 
  22   2.0000      -0.216946        -5.9034 
  23   2.0000      -0.207205        -5.6383 
  24   2.0000      -0.185462        -5.0467 
  25   2.0000      -0.179996        -4.8979 
  26   2.0000      -0.168563        -4.5868 
  27   2.0000      -0.106871        -2.9081 
  28   2.0000      -0.104203        -2.8355 
  29   2.0000      -0.075997        -2.0680 
  30   2.0000      -0.064833        -1.7642 
  31   2.0000      -0.059091        -1.6079 
  32   2.0000      -0.022695        -0.6176 
  33   0.0000       0.125566         3.4168 
  34   0.0000       0.152337         4.1453 
  35   0.0000       0.158203         4.3049 
  36   0.0000       0.165245         4.4965 
  37   0.0000       0.185681         5.0526 
  38   0.0000       0.189890         5.1672 
  39   0.0000       0.201720         5.4891 
  40   0.0000       0.212949         5.7946 
  41   0.0000       0.224034         6.0963 
  42   0.0000       0.237221         6.4551 
  43   0.0000       0.247345         6.7306 
  44   0.0000       0.254627         6.9288 
  45   0.0000       0.258546         7.0354 
  46   0.0000       0.265295         7.2190 
  47   0.0000       0.272278         7.4091 
  48   0.0000       0.274968         7.4823 
  49   0.0000       0.283028         7.7016 
  50   0.0000       0.295838         8.0502 
  51   0.0000       0.304815         8.2944 
  52   0.0000       0.315104         8.5744 
  53   0.0000       0.318656         8.6711 
  54   0.0000       0.322511         8.7760 
  55   0.0000       0.334317         9.0972 
  56   0.0000       0.339805         9.2466 
  57   0.0000       0.353461         9.6182 
  58   0.0000       0.361494         9.8368 
  59   0.0000       0.369468        10.0537 
  60   0.0000       0.377289        10.2666 
  61   0.0000       0.385008        10.4766 
  62   0.0000       0.392288        10.6747 
  63   0.0000       0.396559        10.7909 
  64   0.0000       0.414454        11.2779 
  65   0.0000       0.416625        11.3370 
  66   0.0000       0.420164        11.4332 
  67   0.0000       0.430266        11.7081 
  68   0.0000       0.436148        11.8682 
  69   0.0000       0.446743        12.1565 
  70   0.0000       0.451746        12.2926 
  71   0.0000       0.460919        12.5422 
  72   0.0000       0.469289        12.7700 
  73   0.0000       0.479596        13.0505 
  74   0.0000       0.491206        13.3664 
  75   0.0000       0.495763        13.4904 
  76   0.0000       0.503378        13.6976 
  77   0.0000       0.513844        13.9824 
  78   0.0000       0.518284        14.1032 
  79   0.0000       0.521043        14.1783 
  80   0.0000       0.531963        14.4755 
  81   0.0000       0.541694        14.7402 
  82   0.0000       0.553487        15.0611 
  83   0.0000       0.558395        15.1947 
  84   0.0000       0.569905        15.5079 
  85   0.0000       0.571738        15.5578 
  86   0.0000       0.583619        15.8811 
  87   0.0000       0.595115        16.1939 
  88   0.0000       0.608333        16.5536 
  89   0.0000       0.615746        16.7553 
  90   0.0000       0.618128        16.8201 
  91   0.0000       0.638845        17.3839 
  92   0.0000       0.639498        17.4016 
  93   0.0000       0.644345        17.5335 
  94   0.0000       0.652668        17.7600 
  95   0.0000       0.656410        17.8618 
  96   0.0000       0.659290        17.9402 
  97   0.0000       0.669393        18.2151 
  98   0.0000       0.677704        18.4413 
  99   0.0000       0.687167        18.6988 
 100   0.0000       0.689589        18.7647 
 101   0.0000       0.701075        19.0772 
 102   0.0000       0.718522        19.5520 
 103   0.0000       0.735061        20.0020 
 104   0.0000       0.749026        20.3820 
 105   0.0000       0.764862        20.8130 
 106   0.0000       0.775669        21.1070 
 107   0.0000       0.789591        21.4859 
 108   0.0000       0.799600        21.7582 
 109   0.0000       0.817911        22.2565 
 110   0.0000       0.824850        22.4453 
 111   0.0000       0.842712        22.9314 
 112   0.0000       0.861872        23.4527 
 113   0.0000       0.866102        23.5678 
 114   0.0000       0.882193        24.0057 
 115   0.0000       0.883751        24.0481 
 116   0.0000       0.896683        24.4000 
 117   0.0000       0.915749        24.9188 
 118   0.0000       0.927925        25.2501 
 119   0.0000       0.961997        26.1773 
 120   0.0000       1.004326        27.3291 
 121   0.0000       1.018160        27.7055 
 122   0.0000       1.052630        28.6435 
 123   0.0000       1.083487        29.4832 
 124   0.0000       1.095980        29.8231 
 125   0.0000       1.104418        30.0527 
 126   0.0000       1.120116        30.4799 
 127   0.0000       1.126353        30.6496 
 128   0.0000       1.133199        30.8359 
 129   0.0000       1.154777        31.4231 
 130   0.0000       1.160558        31.5804 
 131   0.0000       1.165476        31.7142 
 132   0.0000       1.178105        32.0579 
 133   0.0000       1.190972        32.4080 
 134   0.0000       1.205813        32.8118 
 135   0.0000       1.249581        34.0028 
 136   0.0000       1.271016        34.5861 
 137   0.0000       1.284565        34.9548 
 138   0.0000       1.306118        35.5413 
 139   0.0000       1.319823        35.9142 
 140   0.0000       1.326428        36.0939 
 141   0.0000       1.388356        37.7791 
 142   0.0000       1.410040        38.3691 
 143   0.0000       1.444101        39.2960 
 144   0.0000       1.456482        39.6329 
 145   0.0000       1.470049        40.0021 
 146   0.0000       1.496378        40.7185 
 147   0.0000       1.576443        42.8972 
 148   0.0000       1.588115        43.2148 
 149   0.0000       1.603614        43.6366 
 150   0.0000       1.653559        44.9956 
 151   0.0000       1.663685        45.2712 
 152   0.0000       1.691396        46.0252 
 153   0.0000       1.724303        46.9207 
 154   0.0000       1.746041        47.5122 
 155   0.0000       1.765503        48.0418 
 156   0.0000       1.786258        48.6066 
 157   0.0000       1.803661        49.0801 
 158   0.0000       1.824120        49.6368 
 159   0.0000       1.836280        49.9677 
 160   0.0000       1.841101        50.0989 
 161   0.0000       1.857550        50.5465 
 162   0.0000       1.871662        50.9305 
 163   0.0000       1.889946        51.4281 
 164   0.0000       1.927594        52.4525 
 165   0.0000       1.997591        54.3572 
 166   0.0000       2.017769        54.9063 
 167   0.0000       2.043969        55.6192 
 168   0.0000       2.085003        56.7358 
 169   0.0000       2.099319        57.1254 
 170   0.0000       2.130734        57.9802 
 171   0.0000       2.143143        58.3179 
 172   0.0000       2.187214        59.5171 
 173   0.0000       2.207574        60.0712 
 174   0.0000       2.228436        60.6388 
 175   0.0000       2.243500        61.0487 
 176   0.0000       2.263276        61.5869 
 177   0.0000       2.304650        62.7127 
 178   0.0000       2.366582        64.3980 
 179   0.0000       2.408140        65.5288 
 180   0.0000       2.438352        66.3509 
 181   0.0000       2.458185        66.8906 
 182   0.0000       2.559883        69.6580 
 183   0.0000       2.599356        70.7321 
 184   0.0000       2.635865        71.7255 
 185   0.0000       2.709987        73.7425 
 186   0.0000       2.719293        73.9957 
 187   0.0000       2.777027        75.5667 
 188   0.0000       2.827705        76.9458 
 189   0.0000       2.859279        77.8049 
 190   0.0000       2.949456        80.2588 
 191   0.0000       3.010331        81.9153 
 192   0.0000       3.021448        82.2178 
 193   0.0000       3.025001        82.3145 
 194   0.0000       3.042979        82.8037 
 195   0.0000       3.053938        83.1019 
 196   0.0000       3.056907        83.1827 
 197   0.0000       3.078255        83.7636 
 198   0.0000       3.102762        84.4305 
 199   0.0000       3.109653        84.6180 
 200   0.0000       3.136782        85.3562 
 201   0.0000       3.153709        85.8168 
 202   0.0000       3.214835        87.4801 
 203   0.0000       3.241763        88.2128 
 204   0.0000       3.265203        88.8507 
 205   0.0000       3.281656        89.2984 
 206   0.0000       3.314934        90.2040 
 207   0.0000       3.332458        90.6808 
 208   0.0000       3.364994        91.5661 
 209   0.0000       3.479834        94.6911 
 210   0.0000       3.700106       100.6850 
 211   0.0000       3.754015       102.1519 

                    ********************************
                    * MULLIKEN POPULATION ANALYSIS *
                    ********************************

-----------------------
MULLIKEN ATOMIC CHARGES
-----------------------
   0 C :    0.009249
   1 S :    1.233550
   2 O :   -0.784996
   3 O :   -0.787754
   4 O :   -0.820181
   5 C :    0.697788
   6 C :   -0.333047
   7 H :    0.054301
   8 H :    0.007153
   9 H :   -0.089233
  10 H :   -0.008718
  11 H :   -0.034565
  12 H :   -0.036079
  13 H :   -0.107469
Sum of atomic charges:   -1.0000000

--------------------------------
MULLIKEN REDUCED ORBITAL CHARGES
--------------------------------
  0 C s       :     2.776139  s :     2.776139
      pz      :     1.026243  p :     2.946378
      px      :     0.971871
      py      :     0.948264
      dz2     :     0.100604  d :     0.268233
      dxz     :     0.030186
      dyz     :     0.053058
      dx2y2   :     0.030087
      dxy     :     0.054298
  1 S s       :     4.998111  s :     4.998111
      pz      :     2.910143  p :     8.956575
      px      :     3.037228
      py      :     3.009203
      dz2     :     0.189237  d :     0.811765
      dxz     :     0.173102
      dyz     :     0.155545
      dx2y2   :     0.116686
      dxy     :     0.177194
  2 O s       :     3.936396  s :     3.936396
      pz      :     1.742710  p :     4.831983
      px      :     1.396943
      py      :     1.692329
      dz2     :     0.000233  d :     0.016617
      dxz     :     0.004822
      dyz     :     0.002591
      dx2y2   :     0.001766
      dxy     :     0.007206
  3 O s       :     3.923652  s :     3.923652
      pz      :     1.663166  p :     4.852585
      px      :     1.770796
      py      :     1.418624
      dz2     :    -0.002759  d :     0.011517
      dxz     :     0.004736
      dyz     :     0.003285
      dx2y2   :     0.001525
      dxy     :     0.004730
  4 O s       :     3.945179  s :     3.945179
      pz      :     1.290624  p :     4.861097
      px      :     1.795063
      py      :     1.775410
      dz2     :     0.004711  d :     0.013905
      dxz     :     0.001807
      dyz     :    -0.002058
      dx2y2   :     0.007913
      dxy     :     0.001533
  5 C s       :     2.400651  s :     2.400651
      pz      :     0.890103  p :     2.780255
      px      :     0.917351
      py      :     0.972801
      dz2     :     0.008433  d :     0.121306
      dxz     :    -0.005237
      dyz     :     0.027835
      dx2y2   :     0.061298
      dxy     :     0.028978
  6 C s       :     2.811820  s :     2.811820
      pz      :     0.959583  p :     2.953625
      px      :     0.943538
      py      :     1.050504
      dz2     :     0.101685  d :     0.567601
      dxz     :     0.099293
      dyz     :     0.120180
      dx2y2   :     0.097513
      dxy     :     0.148931
  7 H s       :     0.898549  s :     0.898549
      pz      :     0.055253  p :     0.047150
      px      :     0.005685
      py      :    -0.013789
  8 H s       :     0.945734  s :     0.945734
      pz      :    -0.015850  p :     0.047113
      px      :     0.001971
      py      :     0.060991
  9 H s       :     1.058246  s :     1.058246
      pz      :    -0.004714  p :     0.030987
      px      :     0.017450
      py      :     0.018251
 10 H s       :     0.967785  s :     0.967785
      pz      :     0.022993  p :     0.040933
      px      :     0.004035
      py      :     0.013905
 11 H s       :     0.993300  s :     0.993300
      pz      :     0.046143  p :     0.041265
      px      :    -0.011459
      py      :     0.006580
 12 H s       :     1.011279  s :     1.011279
      pz      :    -0.002396  p :     0.024800
      px      :     0.015594
      py      :     0.011602
 13 H s       :     0.980609  s :     0.980609
      pz      :     0.014757  p :     0.126860
      px      :     0.106806
      py      :     0.005298


                     *******************************
                     * LOEWDIN POPULATION ANALYSIS *
                     *******************************

----------------------
LOEWDIN ATOMIC CHARGES
----------------------
   0 C :   -0.077346
   1 S :    0.855878
   2 O :   -0.559876
   3 O :   -0.585275
   4 O :   -0.570885
   5 C :    0.129945
   6 C :   -0.083375
   7 H :   -0.004536
   8 H :   -0.010957
   9 H :   -0.000118
  10 H :    0.011114
  11 H :   -0.022319
  12 H :   -0.038221
  13 H :   -0.044029

-------------------------------
LOEWDIN REDUCED ORBITAL CHARGES
-------------------------------
  0 C s       :     2.724104  s :     2.724104
      pz      :     0.921956  p :     2.728995
      px      :     0.897409
      py      :     0.909630
      dz2     :     0.147765  d :     0.624246
      dxz     :     0.122079
      dyz     :     0.084105
      dx2y2   :     0.126849
      dxy     :     0.143448
  1 S s       :     4.673061  s :     4.673061
      pz      :     2.827378  p :     8.487969
      px      :     2.830436
      py      :     2.830155
      dz2     :     0.455484  d :     1.983092
      dxz     :     0.357145
      dyz     :     0.397523
      dx2y2   :     0.340309
      dxy     :     0.432631
  2 O s       :     3.557422  s :     3.557422
      pz      :     1.637628  p :     4.742753
      px      :     1.494397
      py      :     1.610729
      dz2     :     0.041566  d :     0.259701
      dxz     :     0.053174
      dyz     :     0.027718
      dx2y2   :     0.064020
      dxy     :     0.073223
  3 O s       :     3.577513  s :     3.577513
      pz      :     1.614964  p :     4.758580
      px      :     1.644033
      py      :     1.499582
      dz2     :     0.060129  d :     0.249182
      dxz     :     0.022177
      dyz     :     0.060040
      dx2y2   :     0.046972
      dxy     :     0.059865
  4 O s       :     3.568630  s :     3.568630
      pz      :     1.439273  p :     4.744102
      px      :     1.655266
      py      :     1.649562
      dz2     :     0.087522  d :     0.258153
      dxz     :     0.064183
      dyz     :     0.074984
      dx2y2   :     0.016167
      dxy     :     0.015297
  5 C s       :     2.697679  s :     2.697679
      pz      :     0.920210  p :     2.750428
      px      :     0.919742
      py      :     0.910476
      dz2     :     0.037169  d :     0.421948
      dxz     :     0.088883
      dyz     :     0.107751
      dx2y2   :     0.090510
      dxy     :     0.097635
  6 C s       :     2.690531  s :     2.690531
      pz      :     0.903789  p :     2.695207
      px      :     0.891986
      py      :     0.899432
      dz2     :     0.118178  d :     0.697637
      dxz     :     0.143404
      dyz     :     0.157375
      dx2y2   :     0.112015
      dxy     :     0.166664
  7 H s       :     0.732303  s :     0.732303
      pz      :     0.114264  p :     0.272233
      px      :     0.075368
      py      :     0.082600
  8 H s       :     0.732481  s :     0.732481
      pz      :     0.069593  p :     0.278476
      px      :     0.088048
      py      :     0.120835
  9 H s       :     0.742501  s :     0.742501
      pz      :     0.078767  p :     0.257618
      px      :     0.096680
      py      :     0.082170
 10 H s       :     0.732663  s :     0.732663
      pz      :     0.101392  p :     0.256223
      px      :     0.075420
      py      :     0.079411
 11 H s       :     0.748051  s :     0.748051
      pz      :     0.110176  p :     0.274267
      px      :     0.079365
      py      :     0.084726
 12 H s       :     0.759451  s :     0.759451
      pz      :     0.098241  p :     0.278771
      px      :     0.106004
      py      :     0.074526
 13 H s       :     0.716620  s :     0.716620
      pz      :     0.087310  p :     0.327409
      px      :     0.155398
      py      :     0.084701


                      *****************************
                      * MAYER POPULATION ANALYSIS *
                      *****************************

  NA   - Mulliken gross atomic population
  ZA   - Total nuclear charge
  QA   - Mulliken gross atomic charge
  VA   - Mayer's total valence
  BVA  - Mayer's bonded valence
  FA   - Mayer's free valence

  ATOM       NA         ZA         QA         VA         BVA        FA
  0 C      5.9908     6.0000     0.0092     4.5139     4.5139     0.0000
  1 S     14.7665    16.0000     1.2335     4.9423     4.9423     0.0000
  2 O      8.7850     8.0000    -0.7850     1.5153     1.5153     0.0000
  3 O      8.7878     8.0000    -0.7878     1.4007     1.4007    -0.0000
  4 O      8.8202     8.0000    -0.8202     1.4991     1.4991     0.0000
  5 C      5.3022     6.0000     0.6978     3.8511     3.8511     0.0000
  6 C      6.3330     6.0000    -0.3330     5.3266     5.3266    -0.0000
  7 H      0.9457     1.0000     0.0543     1.1212     1.1212     0.0000
  8 H      0.9928     1.0000     0.0072     1.1496     1.1496     0.0000
  9 H      1.0892     1.0000    -0.0892     1.1333     1.1333    -0.0000
 10 H      1.0087     1.0000    -0.0087     1.1045     1.1045    -0.0000
 11 H      1.0346     1.0000    -0.0346     1.0539     1.0539    -0.0000
 12 H      1.0361     1.0000    -0.0361     1.0210     1.0210     0.0000
 13 H      1.1075     1.0000    -0.1075     1.2773     1.2773     0.0000

  Mayer bond orders larger than 0.100000
B(  0-C ,  1-S ) :   0.8425 B(  0-C ,  2-O ) :   0.1046 B(  0-C ,  6-C ) :   1.3028 
B(  0-C ,  7-H ) :   0.9098 B(  0-C ,  8-H ) :   0.8954 B(  0-C ,  9-H ) :   0.1549 
B(  0-C , 10-H ) :   0.1366 B(  1-S ,  2-O ) :   1.3653 B(  1-S ,  3-O ) :   1.2828 
B(  1-S ,  4-O ) :   1.2751 B(  5-C ,  6-C ) :   1.2814 B(  5-C , 11-H ) :   0.7848 
B(  5-C , 12-H ) :   0.7398 B(  5-C , 13-H ) :   0.8487 B(  6-C ,  7-H ) :   0.1253 
B(  6-C ,  8-H ) :   0.1433 B(  6-C ,  9-H ) :   0.8758 B(  6-C , 10-H ) :   0.9087 
B(  6-C , 11-H ) :   0.2059 B(  6-C , 12-H ) :   0.2144 B(  6-C , 13-H ) :   0.2111 


-------
TIMINGS
-------

Total SCF time: 0 days 0 hours 0 min 12 sec 

Total time                  ....      12.306 sec
Sum of individual times     ....      12.121 sec  ( 98.5%)

Fock matrix formation       ....      11.205 sec  ( 91.1%)
  Split-RI-J                ....       1.472 sec  ( 13.1% of F)
  XC integration            ....       9.681 sec  ( 86.4% of F)
    Basis function eval.    ....       1.520 sec  ( 15.7% of XC)
    Density eval.           ....       3.200 sec  ( 33.1% of XC)
    XC-Functional eval.     ....       0.536 sec  (  5.5% of XC)
    XC-Potential eval.      ....       4.248 sec  ( 43.9% of XC)
Diagonalization             ....       0.060 sec  (  0.5%)
Density matrix formation    ....       0.005 sec  (  0.0%)
Population analysis         ....       0.008 sec  (  0.1%)
Initial guess               ....       0.176 sec  (  1.4%)
Orbital Transformation      ....       0.000 sec  (  0.0%)
Orbital Orthonormalization  ....       0.000 sec  (  0.0%)
DIIS solution               ....       0.036 sec  (  0.3%)
SOSCF solution              ....       0.067 sec  (  0.5%)
Grid generation             ....       0.563 sec  (  4.6%)

Maximum memory used throughout the entire SCF-calculation: 25.5 MB


-------------------------------------------------------------------------------
                          DFT DISPERSION CORRECTION                            
                                                                               
                              DFTD3 V3.1  Rev 1                                
                          USING Becke-Johnson damping                          
-------------------------------------------------------------------------------
The TPSS functional is recognized
Active option DFTDOPT                   ...         4   

molecular C6(AA) [au] = 2189.770811 


            DFT-D V3
 parameters
 s6 scaling factor         :     1.0000 
 a1 scaling factor         :     0.4535 
 s8 scaling factor         :     1.9435 
 a2 scaling factor         :     4.4752 
 ad hoc parameters k1-k3   :    16.0000     1.3333    -4.0000 

 Edisp/kcal,au: -10.401010485994  -0.016575063495 
 E6   /kcal   :  -5.164683523 
 E8   /kcal   :  -5.236326963 
 % E8         :  50.344406149 

-------------------------   ----------------
Dispersion correction           -0.016575063
-------------------------   ----------------


-------------------------   --------------------
FINAL SINGLE POINT ENERGY      -742.145219687873
-------------------------   --------------------


                            ***************************************
                            *     ORCA property calculations      *
                            ***************************************

                                    ---------------------
                                    Active property flags
                                    ---------------------
   (+) Dipole Moment


------------------------------------------------------------------------------
                       ORCA ELECTRIC PROPERTIES CALCULATION
------------------------------------------------------------------------------

Dipole Moment Calculation                       ... on
Quadrupole Moment Calculation                   ... off
Polarizability Calculation                      ... off
GBWName                                         ... 14Feb_SVPD_TPSS_A_wt_wb97_typ1_neg.gbw
Electron density file                           ... 14Feb_SVPD_TPSS_A_wt_wb97_typ1_neg.scfp
The origin for moment calculation is the CENTER OF MASS  = (-11.708683, -9.077269 -0.543141)

-------------
DIPOLE MOMENT
-------------
                                X             Y             Z
Electronic contribution:     -9.90151       3.26320      -2.57126
Nuclear contribution   :     11.75544      -4.53524       2.70749
                        -----------------------------------------
Total Dipole Moment    :      1.85393      -1.27203       0.13623
                        -----------------------------------------
Magnitude (a.u.)       :      2.25249
Magnitude (Debye)      :      5.72537



--------------------
Rotational spectrum 
--------------------
 
Rotational constants in cm-1:     0.134586     0.054907     0.051455 
Rotational constants in MHz :  4034.798577  1646.069534  1542.570153 

 Dipole components along the rotational axes: 
x,y,z [a.u.] :    -1.997453     1.014240    -0.234933 
x,y,z [Debye]:    -5.077123     2.577993    -0.597152 

 

Timings for individual modules:

Sum of individual times         ...       12.913 sec (=   0.215 min)
GTO integral calculation        ...        0.387 sec (=   0.006 min)   3.0 %
SCF iterations                  ...       12.526 sec (=   0.209 min)  97.0 %
                             ****ORCA TERMINATED NORMALLY****
TOTAL RUN TIME: 0 days 0 hours 0 minutes 13 seconds 340 msec
