
                                        *****************
                                        * O   R   C   A *
                                        *****************

                                            #,                                       
                                            ###                                      
                                            ####                                     
                                            #####                                    
                                            ######                                   
                                           ########,                                 
                                     ,,################,,,,,                         
                               ,,#################################,,                 
                          ,,##########################################,,             
                       ,#########################################, ''#####,          
                    ,#############################################,,   '####,        
                  ,##################################################,,,,####,       
                ,###########''''           ''''###############################       
              ,#####''   ,,,,##########,,,,          '''####'''          '####       
            ,##' ,,,,###########################,,,                        '##       
           ' ,,###''''                  '''############,,,                           
         ,,##''                                '''############,,,,        ,,,,,,###''
      ,#''                                            '''#######################'''  
     '                                                          ''''####''''         
             ,#######,   #######,   ,#######,      ##                                
            ,#'     '#,  ##    ##  ,#'     '#,    #''#        ######   ,####,        
            ##       ##  ##   ,#'  ##            #'  '#       #        #'  '#        
            ##       ##  #######   ##           ,######,      #####,   #    #        
            '#,     ,#'  ##    ##  '#,     ,#' ,#      #,         ##   #,  ,#        
             '#######'   ##     ##  '#######'  #'      '#     #####' # '####'        



                  #######################################################
                  #                        -***-                        #
                  #          Department of theory and spectroscopy      #
                  #    Directorship and core code : Frank Neese         #
                  #        Max Planck Institute fuer Kohlenforschung    #
                  #                Kaiser Wilhelm Platz 1               #
                  #                 D-45470 Muelheim/Ruhr               #
                  #                      Germany                        #
                  #                                                     #
                  #                  All rights reserved                #
                  #                        -***-                        #
                  #######################################################


                         Program Version 5.0.0 -  RELEASE  -
                                (SVN: $Rev: 19529$)
                ($Date: 2021-06-28 11:36:33 +0200 (Mo, 28 Jun 2021) $)


 With contributions from (in alphabetic order):
   Daniel Aravena         : Magnetic Suceptibility
   Michael Atanasov       : Ab Initio Ligand Field Theory (pilot matlab implementation)
   Alexander A. Auer      : GIAO ZORA, VPT2 properties, NMR spectrum
   Ute Becker             : Parallelization
   Giovanni Bistoni       : ED, misc. LED, open-shell LED, HFLD
   Martin Brehm           : Molecular dynamics
   Dmytro Bykov           : SCF Hessian
   Vijay G. Chilkuri      : MRCI spin determinant printing, contributions to CSF-ICE
   Dipayan Datta          : RHF DLPNO-CCSD density
   Achintya Kumar Dutta   : EOM-CC, STEOM-CC
   Dmitry Ganyushin       : Spin-Orbit,Spin-Spin,Magnetic field MRCI
   Miquel Garcia          : C-PCM Hessian, Gaussian charge scheme
   Yang Guo               : DLPNO-NEVPT2, F12-NEVPT2, CIM, IAO-localization
   Andreas Hansen         : Spin unrestricted coupled pair/coupled cluster methods
   Benjamin Helmich-Paris : MC-RPA, TRAH-SCF, COSX integrals
   Lee Huntington         : MR-EOM, pCC
   Robert Izsak           : Overlap fitted RIJCOSX, COSX-SCS-MP3, EOM
   Marcus Kettner         : VPT2
   Christian Kollmar      : KDIIS, OOCD, Brueckner-CCSD(T), CCSD density, CASPT2, CASPT2-K
   Simone Kossmann        : Meta GGA functionals, TD-DFT gradient, OOMP2, MP2 Hessian
   Martin Krupicka        : Initial AUTO-CI
   Lucas Lang             : DCDCAS
   Marvin Lechner         : AUTO-CI (C++ implementation), FIC-MRCC
   Dagmar Lenk            : GEPOL surface, SMD
   Dimitrios Liakos       : Extrapolation schemes; Compound Job, initial MDCI parallelization
   Dimitrios Manganas     : Further ROCIS development; embedding schemes
   Dimitrios Pantazis     : SARC Basis sets
   Anastasios Papadopoulos: AUTO-CI, single reference methods and gradients
   Taras Petrenko         : DFT Hessian,TD-DFT gradient, ASA, ECA, R-Raman, ABS, FL, XAS/XES, NRVS
   Peter Pinski           : DLPNO-MP2, DLPNO-MP2 Gradient
   Christoph Reimann      : Effective Core Potentials
   Marius Retegan         : Local ZFS, SOC
   Christoph Riplinger    : Optimizer, TS searches, QM/MM, DLPNO-CCSD(T), (RO)-DLPNO pert. Triples
   Tobias Risthaus        : Range-separated hybrids, TD-DFT gradient, RPA, STAB
   Michael Roemelt        : Original ROCIS implementation
   Masaaki Saitow         : Open-shell DLPNO-CCSD energy and density
   Barbara Sandhoefer     : DKH picture change effects
   Avijit Sen             : IP-ROCIS
   Kantharuban Sivalingam : CASSCF convergence, NEVPT2, FIC-MRCI
   Bernardo de Souza      : ESD, SOC TD-DFT
   Georgi Stoychev        : AutoAux, RI-MP2 NMR
   Willem Van den Heuvel  : Paramagnetic NMR
   Boris Wezisla          : Elementary symmetry handling
   Frank Wennmohs         : Technical directorship


 We gratefully acknowledge several colleagues who have allowed us to
 interface, adapt or use parts of their codes:
   Stefan Grimme, W. Hujo, H. Kruse, P. Pracht,  : VdW corrections, initial TS optimization,
                  C. Bannwarth, S. Ehlert          DFT functionals, gCP, sTDA/sTD-DF
   Ed Valeev, F. Pavosevic, A. Kumar             : LibInt (2-el integral package), F12 methods
   Garnet Chan, S. Sharma, J. Yang, R. Olivares  : DMRG
   Ulf Ekstrom                                   : XCFun DFT Library
   Mihaly Kallay                                 : mrcc  (arbitrary order and MRCC methods)
   Jiri Pittner, Ondrej Demel                    : Mk-CCSD
   Frank Weinhold                                : gennbo (NPA and NBO analysis)
   Christopher J. Cramer and Donald G. Truhlar   : smd solvation model
   Lars Goerigk                                  : TD-DFT with DH, B97 family of functionals
   V. Asgeirsson, H. Jonsson                     : NEB implementation
   FAccTs GmbH                                   : IRC, NEB, NEB-TS, DLPNO-Multilevel, CI-OPT
                                                   MM, QMMM, 2- and 3-layer-ONIOM, Crystal-QMMM,
                                                   LR-CPCM, SF, NACMEs, symmetry and pop. for TD-DFT,
                                                   nearIR, NL-DFT gradient (VV10), updates on ESD,
                                                   ML-optimized integration grids
   S Lehtola, MJT Oliveira, MAL Marques          : LibXC Library
   Liviu Ungur et al                             : ANISO software


 Your calculation uses the libint2 library for the computation of 2-el integrals
 For citations please refer to: http://libint.valeyev.net

 Your ORCA version has been built with support for libXC version: 5.1.0
 For citations please refer to: https://tddft.org/programs/libxc/

 This ORCA versions uses:
   CBLAS   interface :  Fast vector & matrix operations
   LAPACKE interface :  Fast linear algebra routines
   SCALAPACK package :  Parallel linear algebra routines
   Shared memory     :  Shared parallel matrices
   BLAS/LAPACK       :  OpenBLAS 0.3.15  USE64BITINT DYNAMIC_ARCH NO_AFFINITY Haswell SINGLE_THREADED
        Core in use  :  Haswell
   Copyright (c) 2011-2014, The OpenBLAS Project


XCFun DFT library Copyright 2009-2010 Ulf Ekstrom and contributors.
See http://admol.org/xcfun for more information.
This is free software; see the source code for copying conditions.
There is ABSOLUTELY NO WARRANTY; not even for MERCHANTABILITY or FITNESS FOR A PARTICULAR PURPOSE.
For details see the documentation.
Scientific users of this library should cite U. Ekstrom, L. Visscher, R. Bast, A. J. Thorvaldsen and K. Ruud;
J.Chem.Theor.Comp. 2010, DOI: 10.1021/ct100117s
XCFun Version 0.99 

================================================================================

----- Orbital basis set information -----
Your calculation utilizes the basis: def2-TZVPD
   F. Weigend and R. Ahlrichs, Phys. Chem. Chem. Phys. 7, 3297 (2005).
   D. Rappoport and F. Furche, J. Chem. Phys. 133 134105 (2010).

----- AuxJ basis set information -----
Your calculation utilizes the auxiliary basis: def2/J
   F. Weigend, Phys. Chem. Chem. Phys. 8, 1057 (2006).

================================================================================
                                        WARNINGS
                       Please study these warnings very carefully!
================================================================================


INFO   : the flag for use of the SHARK integral package has been found!

================================================================================
                                       INPUT FILE
================================================================================
NAME = TZVPD_CAMB3LYP_A_wt_dlpno_neg.com
|  1> !CAM-B3LYP RIJCOSX def2-TZVPD def2/J TightSCF
|  2> *xyz -1 1 
|  3> C         -5.57236       -5.80780       -0.81644
|  4> S         -6.90318       -4.61903       -0.52846
|  5> O         -8.11485       -5.25093       -0.95701
|  6> O         -6.53271       -3.42684       -1.31485
|  7> O         -6.86563       -4.29496        0.91412
|  8> C         -4.45780       -5.94187        0.22919
|  9> H         -5.17735       -5.54257       -1.79771
| 10> H         -6.07420       -6.76889       -0.92127
| 11> H         -3.75515       -6.68239       -0.09144
| 12> H         -4.88182       -6.23486        1.16689
| 13> H         -3.95908       -5.00189        0.34143
| 14> *
| 15> %MaxCore 64000
| 16> 
| 17> %pal nprocs 4
| 18> end  
| 19> 
| 20> %scf
| 21>   MaxIter 150
| 22> end
| 23> 
| 24>                          ****END OF INPUT****
================================================================================

                       ****************************
                       * Single Point Calculation *
                       ****************************

---------------------------------
CARTESIAN COORDINATES (ANGSTROEM)
---------------------------------
  C     -5.572360   -5.807800   -0.816440
  S     -6.903180   -4.619030   -0.528460
  O     -8.114850   -5.250930   -0.957010
  O     -6.532710   -3.426840   -1.314850
  O     -6.865630   -4.294960    0.914120
  C     -4.457800   -5.941870    0.229190
  H     -5.177350   -5.542570   -1.797710
  H     -6.074200   -6.768890   -0.921270
  H     -3.755150   -6.682390   -0.091440
  H     -4.881820   -6.234860    1.166890
  H     -3.959080   -5.001890    0.341430

----------------------------
CARTESIAN COORDINATES (A.U.)
----------------------------
  NO LB      ZA    FRAG     MASS         X           Y           Z
   0 C     6.0000    0    12.011  -10.530234  -10.975151   -1.542848
   1 S    16.0000    0    32.060  -13.045120   -8.728702   -0.998645
   2 O     8.0000    0    15.999  -15.334844   -9.922820   -1.808487
   3 O     8.0000    0    15.999  -12.345033   -6.475789   -2.484706
   4 O     8.0000    0    15.999  -12.974160   -8.116298    1.727436
   5 C     6.0000    0    12.011   -8.424021  -11.228507    0.433106
   6 H     1.0000    0     1.008   -9.783774  -10.473939   -3.397180
   7 H     1.0000    0     1.008  -11.478574  -12.791348   -1.740948
   8 H     1.0000    0     1.008   -7.096205  -12.627887   -0.172797
   9 H     1.0000    0     1.008   -9.225303  -11.782178    2.205103
  10 H     1.0000    0     1.008   -7.481577   -9.452202    0.645209

--------------------------------
INTERNAL COORDINATES (ANGSTROEM)
--------------------------------
 C      0   0   0     0.000000000000     0.00000000     0.00000000
 S      1   0   0     1.807536573821     0.00000000     0.00000000
 O      2   1   0     1.432165109685   106.56208582     0.00000000
 O      2   1   3     1.475457301686   105.16666730   238.45210070
 O      2   1   3     1.479009271032   106.30854122   122.18883319
 C      1   2   3     1.534131955016   118.93292281   220.05041070
 H      1   2   3     1.090536870491   104.48290251    94.52506513
 H      1   2   3     1.089278064867   104.85705990   341.96808105
 H      6   1   2     1.069995555972   109.47104647   179.99982600
 H      6   1   2     1.070008126371   109.47102823    60.00051838
 H      6   1   2     1.069991521649   109.47204847   300.00069232

---------------------------
INTERNAL COORDINATES (A.U.)
---------------------------
 C      0   0   0     0.000000000000     0.00000000     0.00000000
 S      1   0   0     3.415749101568     0.00000000     0.00000000
 O      2   1   0     2.706399835863   106.56208582     0.00000000
 O      2   1   3     2.788210222482   105.16666730   238.45210070
 O      2   1   3     2.794922471782   106.30854122   122.18883319
 C      1   2   3     2.899089248277   118.93292281   220.05041070
 H      1   2   3     2.060816024171   104.48290251    94.52506513
 H      1   2   3     2.058437226286   104.85705990   341.96808105
 H      6   1   2     2.021998565300   109.47104647   179.99982600
 H      6   1   2     2.022022319911   109.47102823    60.00051838
 H      6   1   2     2.021990941534   109.47204847   300.00069232

---------------------
BASIS SET INFORMATION
---------------------
There are 4 groups of distinct atoms

 Group   1 Type C   : 12s6p3d1f contracted to 6s3p3d1f pattern {621111/411/111/1}
 Group   2 Type S   : 15s10p4d1f contracted to 6s6p3d1f pattern {732111/511111/211/1}
 Group   3 Type O   : 12s7p3d1f contracted to 6s4p3d1f pattern {621111/4111/111/1}
 Group   4 Type H   : 5s2p contracted to 3s2p pattern {311/11}

Atom   0C    basis set group =>   1
Atom   1S    basis set group =>   2
Atom   2O    basis set group =>   3
Atom   3O    basis set group =>   3
Atom   4O    basis set group =>   3
Atom   5C    basis set group =>   1
Atom   6H    basis set group =>   4
Atom   7H    basis set group =>   4
Atom   8H    basis set group =>   4
Atom   9H    basis set group =>   4
Atom  10H    basis set group =>   4
---------------------------------
AUXILIARY/J BASIS SET INFORMATION
---------------------------------
There are 4 groups of distinct atoms

 Group   1 Type C   : 12s5p4d2f1g contracted to 6s4p3d1f1g pattern {711111/2111/211/2/1}
 Group   2 Type S   : 14s5p5d2f1g contracted to 8s4p3d1f1g pattern {71111111/2111/311/2/1}
 Group   3 Type O   : 12s5p4d2f1g contracted to 6s4p3d1f1g pattern {711111/2111/211/2/1}
 Group   4 Type H   : 5s2p1d contracted to 3s1p1d pattern {311/2/1}

Atom   0C    basis set group =>   1
Atom   1S    basis set group =>   2
Atom   2O    basis set group =>   3
Atom   3O    basis set group =>   3
Atom   4O    basis set group =>   3
Atom   5C    basis set group =>   1
Atom   6H    basis set group =>   4
Atom   7H    basis set group =>   4
Atom   8H    basis set group =>   4
Atom   9H    basis set group =>   4
Atom  10H    basis set group =>   4


           ************************************************************
           *        Program running with 4 parallel MPI-processes     *
           *              working on a common directory               *
           ************************************************************
------------------------------------------------------------------------------
                           ORCA GTO INTEGRAL CALCULATION
                           -- RI-GTO INTEGRALS CHOSEN --
------------------------------------------------------------------------------
------------------------------------------------------------------------------
                   ___                                                        
                  /   \      - P O W E R E D   B Y -                         
                 /     \                                                     
                 |  |  |   _    _      __       _____    __    __             
                 |  |  |  | |  | |    /  \     |  _  \  |  |  /  |          
                  \  \/   | |  | |   /    \    | | | |  |  | /  /          
                 / \  \   | |__| |  /  /\  \   | |_| |  |  |/  /          
                |  |  |   |  __  | /  /__\  \  |    /   |      \           
                |  |  |   | |  | | |   __   |  |    \   |  |\   \          
                \     /   | |  | | |  |  |  |  | |\  \  |  | \   \       
                 \___/    |_|  |_| |__|  |__|  |_| \__\ |__|  \__/        
                                                                              
                      - O R C A' S   B I G   F R I E N D -                    
                                      &                                       
                       - I N T E G R A L  F E E D E R -                       
                                                                              
 v1 FN, 2020, v2 2021                                                         
------------------------------------------------------------------------------


Reading SHARK input file TZVPD_CAMB3LYP_A_wt_dlpno_neg.SHARKINP.tmp ... ok
----------------------
SHARK INTEGRAL PACKAGE
----------------------

Number of atoms                             ...     11
Number of basis functions                   ...    285
Number of shells                            ...    109
Maximum angular momentum                    ...      3
Integral batch strategy                     ... SHARK/LIBINT Hybrid
RI-J (if used) integral strategy            ... SPLIT-RIJ (Revised 2003 algorithm where possible)
Printlevel                                  ...      1
Contraction scheme used                     ... SEGMENTED contraction
Coulomb Range Separation                    ... NOT USED
Exchange Range Separation                   ... Long Range
   Mu parameter                             ...  0.330000
   Scaling (regular/separated)              ...  0.190000  0.460000
Finite Nucleus Model                        ... NOT USED
Auxiliary Coulomb fitting basis             ... AVAILABLE
   # of basis functions in Aux-J            ...    351
   # of shells in Aux-J                     ...    117
   Maximum angular momentum in Aux-J        ...      4
Auxiliary J/K fitting basis                 ... NOT available
Auxiliary Correlation fitting basis         ... NOT available
Auxiliary 'external' fitting basis          ... NOT available
Integral threshold                          ...     2.500000e-11
Primitive cut-off                           ...     2.500000e-12
Primitive pair pre-selection threshold      ...     2.500000e-12

Calculating pre-screening integrals         ... done (  0.1 sec) Dimension = 109
Organizing shell pair data                  ... done (  0.1 sec)
Shell pair information
Total number of shell pairs                 ...      5995
Shell pairs after pre-screening             ...      5746
Total number of primitive shell pairs       ...     16092
Primitive shell pairs kept                  ...     12428
          la=0 lb=0:   1218 shell pairs
          la=1 lb=0:   1672 shell pairs
          la=1 lb=1:    588 shell pairs
          la=2 lb=0:    876 shell pairs
          la=2 lb=1:    604 shell pairs
          la=2 lb=2:    169 shell pairs
          la=3 lb=0:    289 shell pairs
          la=3 lb=1:    201 shell pairs
          la=3 lb=2:    108 shell pairs
          la=3 lb=3:     21 shell pairs

Calculating one electron integrals          ... done (  0.0 sec)
Calculating RI/J V-Matrix + Cholesky decomp.... done (  0.0 sec)
Calculating Nuclear repulsion               ... done (  0.0 sec) ENN=    348.101115631751 Eh

SHARK setup successfully completed in   0.3 seconds

Maximum memory used throughout the entire GTOINT-calculation: 15.3 MB


           ************************************************************
           *        Program running with 4 parallel MPI-processes     *
           *              working on a common directory               *
           ************************************************************
-------------------------------------------------------------------------------
                                 ORCA SCF
-------------------------------------------------------------------------------

------------
SCF SETTINGS
------------
Hamiltonian:
 Density Functional     Method          .... DFT(GTOs)
 Exchange Functional    Exchange        .... WB88
 Correlation Functional Correlation     .... LYP
 LDA part of GGA corr.  LDAOpt          .... VWN-5
 Gradients option       PostSCFGGA      .... off
 Hybrid DFT is turned on
   Fraction HF Exchange ScalHFX         ....  0.190000
   Scaling of DF-GGA-X  ScalDFX         ....  0.350000
   Scaling of DF-GGA-C  ScalDFC         ....  0.810000
   Scaling of DF-LDA-C  ScalLDAC        ....  1.000000
   Perturbative correction              ....  0.000000
   Density functional embedding theory  .... OFF
 Long-range corrected/Screened/Range-Separated Hybrid DFT is turned on
   Amount of maximum screened exact exchange              ....  0.460000
   Range separation parameter mu (erf(mu*r12)/r12)        ....  0.330000
 RI-approximation to the Coulomb term is turned on
   Number of AuxJ basis functions       .... 351
   RIJ-COSX (HFX calculated with COS-X)).... on


General Settings:
 Integral files         IntName         .... TZVPD_CAMB3LYP_A_wt_dlpno_neg
 Hartree-Fock type      HFTyp           .... RHF
 Total Charge           Charge          ....   -1
 Multiplicity           Mult            ....    1
 Number of Electrons    NEL             ....   58
 Basis Dimension        Dim             ....  285
 Nuclear Repulsion      ENuc            ....    348.1011156318 Eh

Convergence Acceleration:
 DIIS                   CNVDIIS         .... on
   Start iteration      DIISMaxIt       ....    12
   Startup error        DIISStart       ....  0.200000
   # of expansion vecs  DIISMaxEq       ....     5
   Bias factor          DIISBfac        ....   1.050
   Max. coefficient     DIISMaxC        ....  10.000
 Trust-Rad. Augm. Hess. CNVTRAH         .... auto
   Auto Start mean grad. ratio tolernc. ....  1.125000
   Auto Start start iteration           ....    20
   Auto Start num. interpolation iter.  ....    10
   Max. Number of Micro iterations      ....    16
   Max. Number of Macro iterations      .... Maxiter - #DIIS iter
   Number of Davidson start vectors     ....     2
   Converg. threshold I  (grad. norm)   ....   1.000e-05
   Converg. threshold II (energy diff.) ....   1.000e-08
   Grad. Scal. Fac. for Micro threshold ....   0.100
   Minimum threshold for Micro iter.    ....   0.010
   NR start threshold (gradient norm)   ....   0.001
   Initial trust radius                 ....   0.400
   Minimum AH scaling param. (alpha)    ....   1.000
   Maximum AH scaling param. (alpha)    .... 1000.000
   Orbital update algorithm             .... Taylor
   White noise on init. David. guess    .... on
   Maximum white noise                  ....   0.010
   Quad. conv. algorithm                .... NR
 SOSCF                  CNVSOSCF        .... on
   Start iteration      SOSCFMaxIt      ....   150
   Startup grad/error   SOSCFStart      ....  0.003300
 Level Shifting         CNVShift        .... on
   Level shift para.    LevelShift      ....    0.2500
   Turn off err/grad.   ShiftErr        ....    0.0010
 Zerner damping         CNVZerner       .... off
 Static damping         CNVDamp         .... on
   Fraction old density DampFac         ....    0.7000
   Max. Damping (<1)    DampMax         ....    0.9800
   Min. Damping (>=0)   DampMin         ....    0.0000
   Turn off err/grad.   DampErr         ....    0.1000
 Fernandez-Rico         CNVRico         .... off

SCF Procedure:
 Maximum # iterations   MaxIter         ....   150
 SCF integral mode      SCFMode         .... Direct
   Integral package                     .... SHARK and LIBINT hybrid scheme
 Reset frequency        DirectResetFreq ....    20
 Integral Threshold     Thresh          ....  2.500e-11 Eh
 Primitive CutOff       TCut            ....  2.500e-12 Eh

Convergence Tolerance:
 Convergence Check Mode ConvCheckMode   .... Total+1el-Energy
 Convergence forced     ConvForced      .... 0
 Energy Change          TolE            ....  1.000e-08 Eh
 1-El. energy change                    ....  1.000e-05 Eh
 Orbital Gradient       TolG            ....  1.000e-05
 Orbital Rotation angle TolX            ....  1.000e-05
 DIIS Error             TolErr          ....  5.000e-07


Diagonalization of the overlap matrix:
Smallest eigenvalue                        ... 1.159e-05
Time for diagonalization                   ...    0.025 sec
Threshold for overlap eigenvalues          ... 1.000e-08
Number of eigenvalues below threshold      ... 0
Time for construction of square roots      ...    0.017 sec
Total time needed                          ...    0.042 sec

Time for model grid setup =    0.143 sec

------------------------------
INITIAL GUESS: MODEL POTENTIAL
------------------------------
Loading Hartree-Fock densities                     ... done
Calculating cut-offs                               ... done
Initializing the effective Hamiltonian             ... done
Setting up the integral package (SHARK)            ... done
Starting the Coulomb interaction                   ... done (   0.1 sec)
Reading the grid                                   ... done
Mapping shells                                     ... done
Starting the XC term evaluation                    ... done (   0.2 sec)
  promolecular density results
     # of electrons  =     56.997559472
     EX              =    -61.155425704
     EC              =     -2.014849419
     EX+EC           =    -63.170275123
Transforming the Hamiltonian                       ... done (   0.0 sec)
Diagonalizing the Hamiltonian                      ... done (   0.0 sec)
Back transforming the eigenvectors                 ... done (   0.0 sec)
Now organizing SCF variables                       ... done
                      ------------------
                      INITIAL GUESS DONE (   0.5 sec)
                      ------------------
-------------------
DFT GRID GENERATION
-------------------

General Integration Accuracy     IntAcc      ... 4.388
Radial Grid Type                 RadialGrid  ... OptM3 with GC (2021)
Angular Grid (max. ang.)         AngularGrid ... 4 (Lebedev-302)
Angular grid pruning method      GridPruning ... 4 (adaptive)
Weight generation scheme         WeightScheme... Becke
Basis function cutoff            BFCut       ... 1.0000e-11
Integration weight cutoff        WCut        ... 1.0000e-14
Angular grids for H and He will be reduced by one unit
Partially contracted basis set               ... off
Rotationally invariant grid construction     ... off

Total number of grid points                  ...    56617
Total number of batches                      ...      891
Average number of points per batch           ...       63
Average number of grid points per atom       ...     5147
Time for grid setup =    0.598 sec

--------------------
COSX GRID GENERATION
--------------------

GRIDX 1
-------
General Integration Accuracy     IntAcc      ... 3.816
Radial Grid Type                 RadialGrid  ... OptM3 with GC (2021)
Angular Grid (max. ang.)         AngularGrid ... 1 (Lebedev-50)
Angular grid pruning method      GridPruning ... 4 (adaptive)
Weight generation scheme         WeightScheme... Becke
Basis function cutoff            BFCut       ... 1.0000e-11
Integration weight cutoff        WCut        ... 1.0000e-14
Angular grids for H and He will be reduced by one unit
Partially contracted basis set               ... on
Rotationally invariant grid construction     ... off

Total number of grid points                  ...     7023
Total number of batches                      ...      115
Average number of points per batch           ...       61
Average number of grid points per atom       ...      638
UseSFitting                                  ... on

GRIDX 2
-------
General Integration Accuracy     IntAcc      ... 4.020
Radial Grid Type                 RadialGrid  ... OptM3 with GC (2021)
Angular Grid (max. ang.)         AngularGrid ... 2 (Lebedev-110)
Angular grid pruning method      GridPruning ... 4 (adaptive)
Weight generation scheme         WeightScheme... Becke
Basis function cutoff            BFCut       ... 1.0000e-11
Integration weight cutoff        WCut        ... 1.0000e-14
Angular grids for H and He will be reduced by one unit
Partially contracted basis set               ... on
Rotationally invariant grid construction     ... off

Total number of grid points                  ...    17410
Total number of batches                      ...      279
Average number of points per batch           ...       62
Average number of grid points per atom       ...     1583
UseSFitting                                  ... on

GRIDX 3
-------
General Integration Accuracy     IntAcc      ... 4.338
Radial Grid Type                 RadialGrid  ... OptM3 with GC (2021)
Angular Grid (max. ang.)         AngularGrid ... 3 (Lebedev-194)
Angular grid pruning method      GridPruning ... 4 (adaptive)
Weight generation scheme         WeightScheme... Becke
Basis function cutoff            BFCut       ... 1.0000e-11
Integration weight cutoff        WCut        ... 1.0000e-14
Angular grids for H and He will be reduced by one unit
Partially contracted basis set               ... on
Rotationally invariant grid construction     ... off

Total number of grid points                  ...    39343
Total number of batches                      ...      618
Average number of points per batch           ...       63
Average number of grid points per atom       ...     3577
UseSFitting                                  ... on

Time for X-Grid setup             =    0.784 sec

--------------
SCF ITERATIONS
--------------
ITER       Energy         Delta-E        Max-DP      RMS-DP      [F,P]     Damp
               ***  Starting incremental Fock matrix formation  ***
  0   -702.8331578531   0.000000000000 0.11414690  0.00175628  0.3053250 0.7000
  1   -703.0028990667  -0.169741213607 0.08989887  0.00124508  0.1368730 0.7000
                               ***Turning on DIIS***
  2   -703.0703350312  -0.067435964539 0.14841234  0.00230489  0.0511721 0.0000
  3   -703.1822258588  -0.111890827609 0.05374227  0.00067695  0.0753515 0.0000
  4   -703.2024716759  -0.020245817019 0.02350916  0.00022096  0.0114930 0.0000
                      *** Initiating the SOSCF procedure ***
                           *** Shutting down DIIS ***
                      *** Re-Reading the Fockian *** 
                      *** Removing any level shift *** 
ITER      Energy       Delta-E        Grad      Rot      Max-DP    RMS-DP
  5   -703.20318006  -0.0007083869  0.000690  0.000690  0.003621  0.000068
               *** Restarting incremental Fock matrix formation ***
  6   -703.20322228  -0.0000422128  0.000161  0.000346  0.003199  0.000059
  7   -703.20322579  -0.0000035184  0.000147  0.000169  0.001659  0.000029
  8   -703.20322657  -0.0000007805  0.000076  0.000061  0.000807  0.000015
  9   -703.20322689  -0.0000003132  0.000017  0.000018  0.000235  0.000003
 10   -703.20322690  -0.0000000130  0.000016  0.000010  0.000106  0.000002
 11   -703.20322691  -0.0000000112  0.000003  0.000005  0.000127  0.000001
 12   -703.20322691   0.0000000012  0.000004  0.000003  0.000082  0.000001
                  ***Gradient check signals convergence***
              ***Rediagonalizing the Fockian in SOSCF/NRSCF***

               *****************************************************
               *                     SUCCESS                       *
               *           SCF CONVERGED AFTER  13 CYCLES          *
               *****************************************************

Old exchange energy                            =    -16.435824985 Eh
New exchange energy                            =    -16.435829891 Eh
Exchange energy change after final integration =     -0.000004906 Eh
Total energy after final integration           =   -703.203231821 Eh
Final COS-X integration done in                =     8.614 sec

----------------
TOTAL SCF ENERGY
----------------

Total Energy       :         -703.20323182 Eh          -19135.13275 eV

Components:
Nuclear Repulsion  :          348.10111563 Eh            9472.31292 eV
Electronic Energy  :        -1051.30434745 Eh          -28607.44567 eV
One Electron Energy:        -1670.01933251 Eh          -45443.53634 eV
Two Electron Energy:          618.71498505 Eh           16836.09067 eV
Max COSX asymmetry :            0.00000132 Eh               0.00004 eV

Virial components:
Potential Energy   :        -1404.51163621 Eh          -38218.70462 eV
Kinetic Energy     :          701.30840439 Eh           19083.57187 eV
Virial Ratio       :            2.00270185


DFT components:
N(Alpha)           :       28.999943658031 electrons
N(Beta)            :       28.999943658031 electrons
N(Total)           :       57.999887316061 electrons
E(XC)              :      -48.133901969948 Eh       
DFET-embed. en.    :        0.000000000000 Eh       

---------------
SCF CONVERGENCE
---------------

  Last Energy change         ...   -4.0890e-09  Tolerance :   1.0000e-08
  Last MAX-Density change    ...    9.9920e-16  Tolerance :   1.0000e-07
  Last RMS-Density change    ...    1.9909e-17  Tolerance :   5.0000e-09
  Last Orbital Gradient      ...    4.8854e-07  Tolerance :   1.0000e-05
  Last Orbital Rotation      ...    2.3256e-07  Tolerance :   1.0000e-05

             **** THE GBW FILE WAS UPDATED (TZVPD_CAMB3LYP_A_wt_dlpno_neg.gbw) ****
             **** DENSITY TZVPD_CAMB3LYP_A_wt_dlpno_neg.scfp WAS UPDATED ****
             **** ENERGY FILE WAS UPDATED (TZVPD_CAMB3LYP_A_wt_dlpno_neg.en.tmp) ****
             **** THE GBW FILE WAS UPDATED (TZVPD_CAMB3LYP_A_wt_dlpno_neg.gbw) ****
             **** DENSITY TZVPD_CAMB3LYP_A_wt_dlpno_neg.scfp WAS UPDATED ****
----------------
ORBITAL ENERGIES
----------------

  NO   OCC          E(Eh)            E(eV) 
   0   2.0000     -88.919410     -2419.6202 
   1   2.0000     -18.984627      -516.5980 
   2   2.0000     -18.970637      -516.2173 
   3   2.0000     -18.969913      -516.1976 
   4   2.0000     -10.108336      -275.0618 
   5   2.0000     -10.103117      -274.9198 
   6   2.0000      -7.962740      -216.6772 
   7   2.0000      -5.927345      -161.2913 
   8   2.0000      -5.926182      -161.2596 
   9   2.0000      -5.925963      -161.2537 
  10   2.0000      -1.007382       -27.4123 
  11   2.0000      -0.873784       -23.7769 
  12   2.0000      -0.850360       -23.1395 
  13   2.0000      -0.716800       -19.5051 
  14   2.0000      -0.590675       -16.0731 
  15   2.0000      -0.456962       -12.4346 
  16   2.0000      -0.391626       -10.6567 
  17   2.0000      -0.385434       -10.4882 
  18   2.0000      -0.346614        -9.4318 
  19   2.0000      -0.330060        -8.9814 
  20   2.0000      -0.328209        -8.9310 
  21   2.0000      -0.294135        -8.0038 
  22   2.0000      -0.287999        -7.8369 
  23   2.0000      -0.220181        -5.9914 
  24   2.0000      -0.218468        -5.9448 
  25   2.0000      -0.183673        -4.9980 
  26   2.0000      -0.171683        -4.6717 
  27   2.0000      -0.167476        -4.5573 
  28   2.0000      -0.129647        -3.5279 
  29   0.0000       0.143354         3.9009 
  30   0.0000       0.162688         4.4270 
  31   0.0000       0.166993         4.5441 
  32   0.0000       0.176003         4.7893 
  33   0.0000       0.193156         5.2560 
  34   0.0000       0.202975         5.5232 
  35   0.0000       0.224225         6.1015 
  36   0.0000       0.230947         6.2844 
  37   0.0000       0.235423         6.4062 
  38   0.0000       0.252532         6.8718 
  39   0.0000       0.266003         7.2383 
  40   0.0000       0.272977         7.4281 
  41   0.0000       0.276753         7.5308 
  42   0.0000       0.283474         7.7137 
  43   0.0000       0.297996         8.1089 
  44   0.0000       0.304980         8.2989 
  45   0.0000       0.307208         8.3596 
  46   0.0000       0.313891         8.5414 
  47   0.0000       0.318520         8.6674 
  48   0.0000       0.324447         8.8287 
  49   0.0000       0.331754         9.0275 
  50   0.0000       0.340052         9.2533 
  51   0.0000       0.352232         9.5847 
  52   0.0000       0.357584         9.7304 
  53   0.0000       0.377130        10.2622 
  54   0.0000       0.385828        10.4989 
  55   0.0000       0.392917        10.6918 
  56   0.0000       0.402643        10.9565 
  57   0.0000       0.413216        11.2442 
  58   0.0000       0.418140        11.3782 
  59   0.0000       0.424567        11.5531 
  60   0.0000       0.434583        11.8256 
  61   0.0000       0.444408        12.0929 
  62   0.0000       0.447430        12.1752 
  63   0.0000       0.459099        12.4927 
  64   0.0000       0.465182        12.6583 
  65   0.0000       0.474869        12.9218 
  66   0.0000       0.484945        13.1960 
  67   0.0000       0.487485        13.2651 
  68   0.0000       0.489090        13.3088 
  69   0.0000       0.502307        13.6685 
  70   0.0000       0.507727        13.8160 
  71   0.0000       0.511055        13.9065 
  72   0.0000       0.521763        14.1979 
  73   0.0000       0.532725        14.4962 
  74   0.0000       0.546167        14.8620 
  75   0.0000       0.554178        15.0799 
  76   0.0000       0.558326        15.1928 
  77   0.0000       0.563870        15.3437 
  78   0.0000       0.571652        15.5555 
  79   0.0000       0.578515        15.7422 
  80   0.0000       0.587995        16.0002 
  81   0.0000       0.597429        16.2569 
  82   0.0000       0.616395        16.7730 
  83   0.0000       0.618799        16.8384 
  84   0.0000       0.627863        17.0850 
  85   0.0000       0.642452        17.4820 
  86   0.0000       0.647267        17.6130 
  87   0.0000       0.665345        18.1050 
  88   0.0000       0.688240        18.7280 
  89   0.0000       0.696085        18.9414 
  90   0.0000       0.724040        19.7021 
  91   0.0000       0.730294        19.8723 
  92   0.0000       0.732958        19.9448 
  93   0.0000       0.751031        20.4366 
  94   0.0000       0.758184        20.6312 
  95   0.0000       0.771193        20.9852 
  96   0.0000       0.779622        21.2146 
  97   0.0000       0.792963        21.5776 
  98   0.0000       0.808876        22.0106 
  99   0.0000       0.818559        22.2741 
 100   0.0000       0.822248        22.3745 
 101   0.0000       0.829394        22.5690 
 102   0.0000       0.836688        22.7674 
 103   0.0000       0.839120        22.8336 
 104   0.0000       0.856015        23.2933 
 105   0.0000       0.856686        23.3116 
 106   0.0000       0.880049        23.9473 
 107   0.0000       0.887267        24.1438 
 108   0.0000       0.887778        24.1577 
 109   0.0000       0.899234        24.4694 
 110   0.0000       0.905124        24.6297 
 111   0.0000       0.917418        24.9642 
 112   0.0000       0.925892        25.1948 
 113   0.0000       0.935837        25.4654 
 114   0.0000       0.950166        25.8553 
 115   0.0000       0.973582        26.4925 
 116   0.0000       0.992076        26.9958 
 117   0.0000       1.009554        27.4714 
 118   0.0000       1.032242        28.0887 
 119   0.0000       1.053344        28.6630 
 120   0.0000       1.058419        28.8010 
 121   0.0000       1.102149        29.9910 
 122   0.0000       1.105800        30.0903 
 123   0.0000       1.143925        31.1278 
 124   0.0000       1.147929        31.2367 
 125   0.0000       1.161383        31.6029 
 126   0.0000       1.196303        32.5531 
 127   0.0000       1.201346        32.6903 
 128   0.0000       1.210564        32.9411 
 129   0.0000       1.231131        33.5008 
 130   0.0000       1.237196        33.6658 
 131   0.0000       1.265487        34.4357 
 132   0.0000       1.279524        34.8176 
 133   0.0000       1.289870        35.0992 
 134   0.0000       1.314535        35.7703 
 135   0.0000       1.328396        36.1475 
 136   0.0000       1.353004        36.8171 
 137   0.0000       1.383423        37.6449 
 138   0.0000       1.417366        38.5685 
 139   0.0000       1.430684        38.9309 
 140   0.0000       1.474646        40.1272 
 141   0.0000       1.488136        40.4942 
 142   0.0000       1.527975        41.5783 
 143   0.0000       1.533906        41.7397 
 144   0.0000       1.557129        42.3716 
 145   0.0000       1.638469        44.5850 
 146   0.0000       1.798322        48.9348 
 147   0.0000       1.812301        49.3152 
 148   0.0000       1.826807        49.7099 
 149   0.0000       1.834387        49.9162 
 150   0.0000       1.846705        50.2514 
 151   0.0000       1.877937        51.1013 
 152   0.0000       1.914301        52.0908 
 153   0.0000       1.960672        53.3526 
 154   0.0000       1.970947        53.6322 
 155   0.0000       1.999620        54.4124 
 156   0.0000       2.017456        54.8978 
 157   0.0000       2.023291        55.0565 
 158   0.0000       2.031467        55.2790 
 159   0.0000       2.035284        55.3829 
 160   0.0000       2.050422        55.7948 
 161   0.0000       2.061863        56.1061 
 162   0.0000       2.101650        57.1888 
 163   0.0000       2.120774        57.7092 
 164   0.0000       2.137377        58.1610 
 165   0.0000       2.146846        58.4187 
 166   0.0000       2.166173        58.9446 
 167   0.0000       2.190227        59.5991 
 168   0.0000       2.213406        60.2298 
 169   0.0000       2.248462        61.1838 
 170   0.0000       2.277769        61.9812 
 171   0.0000       2.301138        62.6172 
 172   0.0000       2.325189        63.2716 
 173   0.0000       2.363785        64.3219 
 174   0.0000       2.396777        65.2196 
 175   0.0000       2.427824        66.0645 
 176   0.0000       2.530162        68.8492 
 177   0.0000       2.585648        70.3591 
 178   0.0000       2.615787        71.1792 
 179   0.0000       2.644782        71.9682 
 180   0.0000       2.654304        72.2273 
 181   0.0000       2.667111        72.5758 
 182   0.0000       2.690034        73.1996 
 183   0.0000       2.706037        73.6350 
 184   0.0000       2.711515        73.7841 
 185   0.0000       2.727207        74.2111 
 186   0.0000       2.745218        74.7012 
 187   0.0000       2.774499        75.4979 
 188   0.0000       2.789856        75.9158 
 189   0.0000       2.798688        76.1562 
 190   0.0000       2.824921        76.8700 
 191   0.0000       2.850924        77.5776 
 192   0.0000       2.869935        78.0949 
 193   0.0000       2.929626        79.7192 
 194   0.0000       2.940340        80.0107 
 195   0.0000       2.950008        80.2738 
 196   0.0000       2.957299        80.4722 
 197   0.0000       2.991095        81.3918 
 198   0.0000       3.003445        81.7279 
 199   0.0000       3.038172        82.6729 
 200   0.0000       3.077381        83.7398 
 201   0.0000       3.102914        84.4346 
 202   0.0000       3.211071        87.3777 
 203   0.0000       3.252688        88.5102 
 204   0.0000       3.338260        90.8387 
 205   0.0000       3.369375        91.6854 
 206   0.0000       3.403054        92.6018 
 207   0.0000       3.409360        92.7734 
 208   0.0000       3.441983        93.6611 
 209   0.0000       3.456724        94.0622 
 210   0.0000       3.467500        94.3555 
 211   0.0000       3.474809        94.5544 
 212   0.0000       3.487093        94.8886 
 213   0.0000       3.502743        95.3145 
 214   0.0000       3.575845        97.3037 
 215   0.0000       3.612515        98.3015 
 216   0.0000       3.638501        99.0087 
 217   0.0000       3.664542        99.7173 
 218   0.0000       3.687418       100.3397 
 219   0.0000       3.721341       101.2628 
 220   0.0000       3.732901       101.5774 
 221   0.0000       3.755707       102.1980 
 222   0.0000       3.766625       102.4951 
 223   0.0000       3.801341       103.4397 
 224   0.0000       3.844884       104.6246 
 225   0.0000       3.957283       107.6831 
 226   0.0000       4.034222       109.7768 
 227   0.0000       4.060721       110.4978 
 228   0.0000       4.177227       113.6681 
 229   0.0000       4.204560       114.4119 
 230   0.0000       4.265448       116.0687 
 231   0.0000       4.296376       116.9103 
 232   0.0000       4.482535       121.9760 
 233   0.0000       4.521314       123.0312 
 234   0.0000       4.620383       125.7270 
 235   0.0000       4.672971       127.1580 
 236   0.0000       4.759379       129.5093 
 237   0.0000       4.785178       130.2113 
 238   0.0000       4.950067       134.6982 
 239   0.0000       5.149434       140.1232 
 240   0.0000       5.405218       147.0834 
 241   0.0000       5.421643       147.5304 
 242   0.0000       5.438448       147.9877 
 243   0.0000       5.441951       148.0830 
 244   0.0000       5.447373       148.2306 
 245   0.0000       5.465311       148.7187 
 246   0.0000       5.467205       148.7702 
 247   0.0000       5.483224       149.2061 
 248   0.0000       5.486391       149.2923 
 249   0.0000       5.596975       152.3014 
 250   0.0000       5.602930       152.4635 
 251   0.0000       5.618994       152.9006 
 252   0.0000       5.667987       154.2338 
 253   0.0000       5.693558       154.9296 
 254   0.0000       5.765043       156.8748 
 255   0.0000       5.851027       159.2145 
 256   0.0000       5.884823       160.1342 
 257   0.0000       5.947268       161.8334 
 258   0.0000       5.983198       162.8111 
 259   0.0000       6.014879       163.6732 
 260   0.0000       6.150925       167.3752 
 261   0.0000       6.711292       182.6235 
 262   0.0000       6.720366       182.8704 
 263   0.0000       6.736344       183.3052 
 264   0.0000       6.819424       185.5660 
 265   0.0000       6.825299       185.7258 
 266   0.0000       6.865034       186.8071 
 267   0.0000       6.989494       190.1938 
 268   0.0000       7.022786       191.0997 
 269   0.0000       7.034158       191.4092 
 270   0.0000       7.045220       191.7102 
 271   0.0000       7.243461       197.1046 
 272   0.0000       7.274868       197.9592 
 273   0.0000       7.292930       198.4507 
 274   0.0000       7.380686       200.8387 
 275   0.0000       7.405483       201.5134 
 276   0.0000       9.760894       265.6074 
 277   0.0000       9.972183       271.3569 
 278   0.0000      10.073216       274.1062 
 279   0.0000      22.658962       616.5817 
 280   0.0000      22.756725       619.2420 
 281   0.0000      23.140299       629.6795 
 282   0.0000      44.075035      1199.3427 
 283   0.0000      44.254942      1204.2382 
 284   0.0000      44.297996      1205.4097 

                    ********************************
                    * MULLIKEN POPULATION ANALYSIS *
                    ********************************

-----------------------
MULLIKEN ATOMIC CHARGES
-----------------------
   0 C :   -0.501649
   1 S :    1.205086
   2 O :   -0.692059
   3 O :   -0.736234
   4 O :   -0.739240
   5 C :   -1.030707
   6 H :    0.295706
   7 H :    0.293024
   8 H :    0.336343
   9 H :    0.284483
  10 H :    0.285246
Sum of atomic charges:   -1.0000000

--------------------------------
MULLIKEN REDUCED ORBITAL CHARGES
--------------------------------
  0 C s       :     3.322512  s :     3.322512
      pz      :     1.063605  p :     3.139846
      px      :     0.989880
      py      :     1.086361
      dz2     :    -0.012847  d :     0.034465
      dxz     :     0.014574
      dyz     :    -0.006627
      dx2y2   :     0.025559
      dxy     :     0.013807
      f0      :     0.000530  f :     0.004826
      f+1     :     0.001327
      f-1     :     0.000324
      f+2     :     0.000340
      f-2     :     0.000908
      f+3     :     0.000783
      f-3     :     0.000615
  1 S s       :     5.331253  s :     5.331253
      pz      :     2.635509  p :     8.088140
      px      :     2.740524
      py      :     2.712107
      dz2     :     0.280693  d :     1.251513
      dxz     :     0.241300
      dyz     :     0.239921
      dx2y2   :     0.195659
      dxy     :     0.293939
      f0      :     0.014665  f :     0.124008
      f+1     :     0.024603
      f-1     :     0.026636
      f+2     :     0.013943
      f-2     :     0.015994
      f+3     :     0.016939
      f-3     :     0.011230
  2 O s       :     3.948268  s :     3.948268
      pz      :     1.687048  p :     4.708735
      px      :     1.385834
      py      :     1.635854
      dz2     :     0.003392  d :     0.033071
      dxz     :     0.007671
      dyz     :     0.002630
      dx2y2   :     0.010936
      dxy     :     0.008442
      f0      :     0.000183  f :     0.001984
      f+1     :     0.000322
      f-1     :     0.000102
      f+2     :     0.000220
      f-2     :     0.000294
      f+3     :     0.000473
      f-3     :     0.000392
  3 O s       :     3.951752  s :     3.951752
      pz      :     1.625205  p :     4.751244
      px      :     1.716152
      py      :     1.409887
      dz2     :     0.002776  d :     0.031443
      dxz     :     0.003574
      dyz     :     0.010584
      dx2y2   :     0.009159
      dxy     :     0.005349
      f0      :     0.000171  f :     0.001795
      f+1     :     0.000055
      f-1     :     0.000417
      f+2     :     0.000346
      f-2     :     0.000306
      f+3     :     0.000254
      f-3     :     0.000247
  4 O s       :     3.954903  s :     3.954903
      pz      :     1.280671  p :     4.753905
      px      :     1.748417
      py      :     1.724817
      dz2     :     0.013497  d :     0.028657
      dxz     :     0.006601
      dyz     :     0.007238
      dx2y2   :     0.001688
      dxy     :    -0.000367
      f0      :     0.000649  f :     0.001776
      f+1     :     0.000446
      f-1     :     0.000506
      f+2     :     0.000079
      f-2     :     0.000089
      f+3     :     0.000004
      f-3     :     0.000003
  5 C s       :     3.429318  s :     3.429318
      pz      :     1.131691  p :     3.573259
      px      :     1.125052
      py      :     1.316516
      dz2     :    -0.007149  d :     0.024592
      dxz     :     0.011541
      dyz     :    -0.004620
      dx2y2   :    -0.006314
      dxy     :     0.031135
      f0      :     0.000423  f :     0.003537
      f+1     :     0.001101
      f-1     :     0.000097
      f+2     :     0.000221
      f-2     :     0.000879
      f+3     :     0.000601
      f-3     :     0.000215
  6 H s       :     0.651562  s :     0.651562
      pz      :     0.040328  p :     0.052732
      px      :     0.012264
      py      :     0.000140
  7 H s       :     0.665118  s :     0.665118
      pz      :     0.002278  p :     0.041858
      px      :     0.015395
      py      :     0.024185
  8 H s       :     0.603819  s :     0.603819
      pz      :     0.008833  p :     0.059838
      px      :     0.026023
      py      :     0.024982
  9 H s       :     0.645561  s :     0.645561
      pz      :     0.037289  p :     0.069956
      px      :     0.005744
      py      :     0.026923
 10 H s       :     0.642158  s :     0.642158
      pz      :     0.017159  p :     0.072596
      px      :     0.027935
      py      :     0.027502


                     *******************************
                     * LOEWDIN POPULATION ANALYSIS *
                     *******************************

----------------------
LOEWDIN ATOMIC CHARGES
----------------------
   0 C :   -0.318973
   1 S :    0.364744
   2 O :   -0.386591
   3 O :   -0.423644
   4 O :   -0.416960
   5 C :   -0.143874
   6 H :    0.079156
   7 H :    0.075262
   8 H :    0.049814
   9 H :    0.057838
  10 H :    0.063228

-------------------------------
LOEWDIN REDUCED ORBITAL CHARGES
-------------------------------
  0 C s       :     2.729714  s :     2.729714
      pz      :     0.958829  p :     2.836469
      px      :     0.936677
      py      :     0.940963
      dz2     :     0.174211  d :     0.720181
      dxz     :     0.142733
      dyz     :     0.088560
      dx2y2   :     0.136274
      dxy     :     0.178403
      f0      :     0.003480  f :     0.032608
      f+1     :     0.006613
      f-1     :     0.004151
      f+2     :     0.003728
      f-2     :     0.004942
      f+3     :     0.005675
      f-3     :     0.004019
  1 S s       :     4.578983  s :     4.578983
      pz      :     2.789675  p :     8.364133
      px      :     2.787073
      py      :     2.787385
      dz2     :     0.531044  d :     2.318806
      dxz     :     0.418360
      dyz     :     0.462304
      dx2y2   :     0.388993
      dxy     :     0.518106
      f0      :     0.051798  f :     0.373334
      f+1     :     0.066757
      f-1     :     0.076298
      f+2     :     0.041959
      f-2     :     0.048241
      f+3     :     0.050509
      f-3     :     0.037772
  2 O s       :     3.466110  s :     3.466110
      pz      :     1.576760  p :     4.646895
      px      :     1.507124
      py      :     1.563011
      dz2     :     0.044377  d :     0.268846
      dxz     :     0.053304
      dyz     :     0.028697
      dx2y2   :     0.065679
      dxy     :     0.076789
      f0      :     0.000498  f :     0.004741
      f+1     :     0.000713
      f-1     :     0.000225
      f+2     :     0.000486
      f-2     :     0.000751
      f+3     :     0.000808
      f-3     :     0.001259
  3 O s       :     3.489128  s :     3.489128
      pz      :     1.579171  p :     4.670157
      px      :     1.587716
      py      :     1.503270
      dz2     :     0.061629  d :     0.260119
      dxz     :     0.022891
      dyz     :     0.063981
      dx2y2   :     0.049617
      dxy     :     0.062001
      f0      :     0.000526  f :     0.004240
      f+1     :     0.000109
      f-1     :     0.000792
      f+2     :     0.001006
      f-2     :     0.000681
      f+3     :     0.000608
      f-3     :     0.000519
  4 O s       :     3.486592  s :     3.486592
      pz      :     1.471723  p :     4.665061
      px      :     1.599459
      py      :     1.593880
      dz2     :     0.091678  d :     0.261090
      dxz     :     0.063181
      dyz     :     0.077212
      dx2y2   :     0.009373
      dxy     :     0.019646
      f0      :     0.001908  f :     0.004217
      f+1     :     0.000754
      f-1     :     0.001205
      f+2     :     0.000143
      f-2     :     0.000191
      f+3     :     0.000010
      f-3     :     0.000006
  5 C s       :     2.727953  s :     2.727953
      pz      :     0.971962  p :     2.906092
      px      :     0.961555
      py      :     0.972575
      dz2     :     0.130940  d :     0.482343
      dxz     :     0.102117
      dyz     :     0.061534
      dx2y2   :     0.046806
      dxy     :     0.140945
      f0      :     0.003193  f :     0.027486
      f+1     :     0.005859
      f-1     :     0.003270
      f+2     :     0.003819
      f-2     :     0.004813
      f+3     :     0.004508
      f-3     :     0.002023
  6 H s       :     0.693686  s :     0.693686
      pz      :     0.094616  p :     0.227158
      px      :     0.062857
      py      :     0.069685
  7 H s       :     0.694398  s :     0.694398
      pz      :     0.056540  p :     0.230340
      px      :     0.076091
      py      :     0.097709
  8 H s       :     0.717407  s :     0.717407
      pz      :     0.065252  p :     0.232779
      px      :     0.081505
      py      :     0.086022
  9 H s       :     0.702913  s :     0.702913
      pz      :     0.096921  p :     0.239249
      px      :     0.074074
      py      :     0.068254
 10 H s       :     0.705132  s :     0.705132
      pz      :     0.058570  p :     0.231640
      px      :     0.070381
      py      :     0.102688


                      *****************************
                      * MAYER POPULATION ANALYSIS *
                      *****************************

  NA   - Mulliken gross atomic population
  ZA   - Total nuclear charge
  QA   - Mulliken gross atomic charge
  VA   - Mayer's total valence
  BVA  - Mayer's bonded valence
  FA   - Mayer's free valence

  ATOM       NA         ZA         QA         VA         BVA        FA
  0 C      6.5016     6.0000    -0.5016     3.5841     3.5841    -0.0000
  1 S     14.7949    16.0000     1.2051     5.4678     5.4678     0.0000
  2 O      8.6921     8.0000    -0.6921     1.7075     1.7075     0.0000
  3 O      8.7362     8.0000    -0.7362     1.6661     1.6661     0.0000
  4 O      8.7392     8.0000    -0.7392     1.6496     1.6496     0.0000
  5 C      7.0307     6.0000    -1.0307     3.4379     3.4379    -0.0000
  6 H      0.7043     1.0000     0.2957     0.9714     0.9714    -0.0000
  7 H      0.7070     1.0000     0.2930     0.9348     0.9348    -0.0000
  8 H      0.6637     1.0000     0.3363     0.9670     0.9670    -0.0000
  9 H      0.7155     1.0000     0.2845     1.0496     1.0496     0.0000
 10 H      0.7148     1.0000     0.2852     1.0443     1.0443    -0.0000

  Mayer bond orders larger than 0.100000
B(  0-C ,  1-S ) :   0.9194 B(  0-C ,  2-O ) :   0.1180 B(  0-C ,  3-O ) :   0.1215 
B(  0-C ,  5-C ) :   0.5313 B(  0-C ,  6-H ) :   0.9729 B(  0-C ,  7-H ) :   0.9629 
B(  1-S ,  2-O ) :   1.5128 B(  1-S ,  3-O ) :   1.4780 B(  1-S ,  4-O ) :   1.4657 
B(  5-C ,  8-H ) :   0.9240 B(  5-C ,  9-H ) :   0.9970 B(  5-C , 10-H ) :   0.9850 


-------
TIMINGS
-------

Total SCF time: 0 days 0 hours 1 min 4 sec 

Total time                  ....      64.650 sec
Sum of individual times     ....      64.324 sec  ( 99.5%)

Fock matrix formation       ....      62.082 sec  ( 96.0%)
  Split-RI-J                ....       2.410 sec  (  3.9% of F)
  Chain of spheres X        ....      53.704 sec  ( 86.5% of F)
  XC integration            ....       5.881 sec  (  9.5% of F)
    Basis function eval.    ....       1.520 sec  ( 25.8% of XC)
    Density eval.           ....       1.465 sec  ( 24.9% of XC)
    XC-Functional eval.     ....       0.560 sec  (  9.5% of XC)
    XC-Potential eval.      ....       2.077 sec  ( 35.3% of XC)
Diagonalization             ....       0.126 sec  (  0.2%)
Density matrix formation    ....       0.013 sec  (  0.0%)
Population analysis         ....       0.016 sec  (  0.0%)
Initial guess               ....       0.382 sec  (  0.6%)
Orbital Transformation      ....       0.000 sec  (  0.0%)
Orbital Orthonormalization  ....       0.000 sec  (  0.0%)
DIIS solution               ....       0.063 sec  (  0.1%)
SOSCF solution              ....       0.119 sec  (  0.2%)
Grid generation             ....       1.525 sec  (  2.4%)

Maximum memory used throughout the entire SCF-calculation: 76.5 MB

-------------------------   --------------------
FINAL SINGLE POINT ENERGY      -703.203231820850
-------------------------   --------------------


                            ***************************************
                            *     ORCA property calculations      *
                            ***************************************

                                    ---------------------
                                    Active property flags
                                    ---------------------
   (+) Dipole Moment


------------------------------------------------------------------------------
                       ORCA ELECTRIC PROPERTIES CALCULATION
------------------------------------------------------------------------------

Dipole Moment Calculation                       ... on
Quadrupole Moment Calculation                   ... off
Polarizability Calculation                      ... off
GBWName                                         ... TZVPD_CAMB3LYP_A_wt_dlpno_neg.gbw
Electron density file                           ... TZVPD_CAMB3LYP_A_wt_dlpno_neg.scfp
The origin for moment calculation is the CENTER OF MASS  = (-12.296080, -9.130664 -0.814482)

-------------
DIPOLE MOMENT
-------------
                                X             Y             Z
Electronic contribution:     -6.64069       4.27622      -0.92306
Nuclear contribution   :      8.13140      -5.68016       0.80206
                        -----------------------------------------
Total Dipole Moment    :      1.49071      -1.40393      -0.12100
                        -----------------------------------------
Magnitude (a.u.)       :      2.05132
Magnitude (Debye)      :      5.21403



--------------------
Rotational spectrum 
--------------------
 
Rotational constants in cm-1:     0.162101     0.080498     0.079099 
Rotational constants in MHz :  4859.669771  2413.267251  2371.338602 

 Dipole components along the rotational axes: 
x,y,z [a.u.] :    -1.898844    -0.775964    -0.013012 
x,y,z [Debye]:    -4.826478    -1.972344    -0.033073 

 

Timings for individual modules:

Sum of individual times         ...       69.283 sec (=   1.155 min)
GTO integral calculation        ...        2.579 sec (=   0.043 min)   3.7 %
SCF iterations                  ...       66.704 sec (=   1.112 min)  96.3 %
                             ****ORCA TERMINATED NORMALLY****
TOTAL RUN TIME: 0 days 0 hours 1 minutes 9 seconds 785 msec
