
                                        *****************
                                        * O   R   C   A *
                                        *****************

                                            #,                                       
                                            ###                                      
                                            ####                                     
                                            #####                                    
                                            ######                                   
                                           ########,                                 
                                     ,,################,,,,,                         
                               ,,#################################,,                 
                          ,,##########################################,,             
                       ,#########################################, ''#####,          
                    ,#############################################,,   '####,        
                  ,##################################################,,,,####,       
                ,###########''''           ''''###############################       
              ,#####''   ,,,,##########,,,,          '''####'''          '####       
            ,##' ,,,,###########################,,,                        '##       
           ' ,,###''''                  '''############,,,                           
         ,,##''                                '''############,,,,        ,,,,,,###''
      ,#''                                            '''#######################'''  
     '                                                          ''''####''''         
             ,#######,   #######,   ,#######,      ##                                
            ,#'     '#,  ##    ##  ,#'     '#,    #''#        ######   ,####,        
            ##       ##  ##   ,#'  ##            #'  '#       #        #'  '#        
            ##       ##  #######   ##           ,######,      #####,   #    #        
            '#,     ,#'  ##    ##  '#,     ,#' ,#      #,         ##   #,  ,#        
             '#######'   ##     ##  '#######'  #'      '#     #####' # '####'        



                  #######################################################
                  #                        -***-                        #
                  #          Department of theory and spectroscopy      #
                  #    Directorship and core code : Frank Neese         #
                  #        Max Planck Institute fuer Kohlenforschung    #
                  #                Kaiser Wilhelm Platz 1               #
                  #                 D-45470 Muelheim/Ruhr               #
                  #                      Germany                        #
                  #                                                     #
                  #                  All rights reserved                #
                  #                        -***-                        #
                  #######################################################


                         Program Version 5.0.0 -  RELEASE  -
                                (SVN: $Rev: 19529$)
                ($Date: 2021-06-28 11:36:33 +0200 (Mo, 28 Jun 2021) $)


 With contributions from (in alphabetic order):
   Daniel Aravena         : Magnetic Suceptibility
   Michael Atanasov       : Ab Initio Ligand Field Theory (pilot matlab implementation)
   Alexander A. Auer      : GIAO ZORA, VPT2 properties, NMR spectrum
   Ute Becker             : Parallelization
   Giovanni Bistoni       : ED, misc. LED, open-shell LED, HFLD
   Martin Brehm           : Molecular dynamics
   Dmytro Bykov           : SCF Hessian
   Vijay G. Chilkuri      : MRCI spin determinant printing, contributions to CSF-ICE
   Dipayan Datta          : RHF DLPNO-CCSD density
   Achintya Kumar Dutta   : EOM-CC, STEOM-CC
   Dmitry Ganyushin       : Spin-Orbit,Spin-Spin,Magnetic field MRCI
   Miquel Garcia          : C-PCM Hessian, Gaussian charge scheme
   Yang Guo               : DLPNO-NEVPT2, F12-NEVPT2, CIM, IAO-localization
   Andreas Hansen         : Spin unrestricted coupled pair/coupled cluster methods
   Benjamin Helmich-Paris : MC-RPA, TRAH-SCF, COSX integrals
   Lee Huntington         : MR-EOM, pCC
   Robert Izsak           : Overlap fitted RIJCOSX, COSX-SCS-MP3, EOM
   Marcus Kettner         : VPT2
   Christian Kollmar      : KDIIS, OOCD, Brueckner-CCSD(T), CCSD density, CASPT2, CASPT2-K
   Simone Kossmann        : Meta GGA functionals, TD-DFT gradient, OOMP2, MP2 Hessian
   Martin Krupicka        : Initial AUTO-CI
   Lucas Lang             : DCDCAS
   Marvin Lechner         : AUTO-CI (C++ implementation), FIC-MRCC
   Dagmar Lenk            : GEPOL surface, SMD
   Dimitrios Liakos       : Extrapolation schemes; Compound Job, initial MDCI parallelization
   Dimitrios Manganas     : Further ROCIS development; embedding schemes
   Dimitrios Pantazis     : SARC Basis sets
   Anastasios Papadopoulos: AUTO-CI, single reference methods and gradients
   Taras Petrenko         : DFT Hessian,TD-DFT gradient, ASA, ECA, R-Raman, ABS, FL, XAS/XES, NRVS
   Peter Pinski           : DLPNO-MP2, DLPNO-MP2 Gradient
   Christoph Reimann      : Effective Core Potentials
   Marius Retegan         : Local ZFS, SOC
   Christoph Riplinger    : Optimizer, TS searches, QM/MM, DLPNO-CCSD(T), (RO)-DLPNO pert. Triples
   Tobias Risthaus        : Range-separated hybrids, TD-DFT gradient, RPA, STAB
   Michael Roemelt        : Original ROCIS implementation
   Masaaki Saitow         : Open-shell DLPNO-CCSD energy and density
   Barbara Sandhoefer     : DKH picture change effects
   Avijit Sen             : IP-ROCIS
   Kantharuban Sivalingam : CASSCF convergence, NEVPT2, FIC-MRCI
   Bernardo de Souza      : ESD, SOC TD-DFT
   Georgi Stoychev        : AutoAux, RI-MP2 NMR
   Willem Van den Heuvel  : Paramagnetic NMR
   Boris Wezisla          : Elementary symmetry handling
   Frank Wennmohs         : Technical directorship


 We gratefully acknowledge several colleagues who have allowed us to
 interface, adapt or use parts of their codes:
   Stefan Grimme, W. Hujo, H. Kruse, P. Pracht,  : VdW corrections, initial TS optimization,
                  C. Bannwarth, S. Ehlert          DFT functionals, gCP, sTDA/sTD-DF
   Ed Valeev, F. Pavosevic, A. Kumar             : LibInt (2-el integral package), F12 methods
   Garnet Chan, S. Sharma, J. Yang, R. Olivares  : DMRG
   Ulf Ekstrom                                   : XCFun DFT Library
   Mihaly Kallay                                 : mrcc  (arbitrary order and MRCC methods)
   Jiri Pittner, Ondrej Demel                    : Mk-CCSD
   Frank Weinhold                                : gennbo (NPA and NBO analysis)
   Christopher J. Cramer and Donald G. Truhlar   : smd solvation model
   Lars Goerigk                                  : TD-DFT with DH, B97 family of functionals
   V. Asgeirsson, H. Jonsson                     : NEB implementation
   FAccTs GmbH                                   : IRC, NEB, NEB-TS, DLPNO-Multilevel, CI-OPT
                                                   MM, QMMM, 2- and 3-layer-ONIOM, Crystal-QMMM,
                                                   LR-CPCM, SF, NACMEs, symmetry and pop. for TD-DFT,
                                                   nearIR, NL-DFT gradient (VV10), updates on ESD,
                                                   ML-optimized integration grids
   S Lehtola, MJT Oliveira, MAL Marques          : LibXC Library
   Liviu Ungur et al                             : ANISO software


 Your calculation uses the libint2 library for the computation of 2-el integrals
 For citations please refer to: http://libint.valeyev.net

 Your ORCA version has been built with support for libXC version: 5.1.0
 For citations please refer to: https://tddft.org/programs/libxc/

 This ORCA versions uses:
   CBLAS   interface :  Fast vector & matrix operations
   LAPACKE interface :  Fast linear algebra routines
   SCALAPACK package :  Parallel linear algebra routines
   Shared memory     :  Shared parallel matrices
   BLAS/LAPACK       :  OpenBLAS 0.3.15  USE64BITINT DYNAMIC_ARCH NO_AFFINITY Haswell SINGLE_THREADED
        Core in use  :  Haswell
   Copyright (c) 2011-2014, The OpenBLAS Project


XCFun DFT library Copyright 2009-2010 Ulf Ekstrom and contributors.
See http://admol.org/xcfun for more information.
This is free software; see the source code for copying conditions.
There is ABSOLUTELY NO WARRANTY; not even for MERCHANTABILITY or FITNESS FOR A PARTICULAR PURPOSE.
For details see the documentation.
Scientific users of this library should cite U. Ekstrom, L. Visscher, R. Bast, A. J. Thorvaldsen and K. Ruud;
J.Chem.Theor.Comp. 2010, DOI: 10.1021/ct100117s
XCFun Version 0.99 

================================================================================

----- Orbital basis set information -----
Your calculation utilizes the basis: def2-SVPD
   F. Weigend and R. Ahlrichs, Phys. Chem. Chem. Phys. 7, 3297 (2005).
   D. Rappoport and F. Furche, J. Chem. Phys. 133 134105 (2010).

----- AuxJ basis set information -----
Your calculation utilizes the auxiliary basis: def2/J
   F. Weigend, Phys. Chem. Chem. Phys. 8, 1057 (2006).

================================================================================
                                        WARNINGS
                       Please study these warnings very carefully!
================================================================================


INFO   : the flag for use of the SHARK integral package has been found!

================================================================================
                                       INPUT FILE
================================================================================
NAME = 14Feb_SVPD_LC_BLYP_C3_wt_wb97_typ1_pos.com
|  1> !LC-BLYP RIJCOSX def2-SVPD def2/J TightSCF 
|  2> *xyz 0 1 
|  3> C          3.48828        1.60092       -1.52204
|  4> C          4.34297        1.31342       -2.75683
|  5> N          2.81029        0.42878       -1.01420
|  6> H          5.13203        0.60499       -2.48447
|  7> C          3.53590        0.74925       -3.92460
|  8> H          4.84125        2.24214       -3.05408
|  9> H          2.71455        2.33145       -1.76030
| 10> H          4.09099        2.06315       -0.73338
| 11> C          3.29098       -0.41802       -0.12908
| 12> N          2.51754       -1.43202        0.23936
| 13> C          4.53549       -0.28441        0.39580
| 14> H          5.04363        0.57189        0.22290
| 15> H          4.72335       -0.73327        1.28180
| 16> H          1.93479        0.10230       -1.40379
| 17> H          1.67464       -1.50562       -0.31610
| 18> H          2.92850       -2.21850        0.72549
| 19> H          4.18704        0.56990       -4.75451
| 20> H          2.78096        1.45217       -4.20898
| 21> H          3.07436       -0.16949       -3.62832
| 22> *
| 23> %MaxCore 64000
| 24> 
| 25> %pal nprocs 4
| 26> end  
| 27> 
| 28> %scf
| 29>   MaxIter 150
| 30> end
| 31> 
| 32> 
| 33>                          ****END OF INPUT****
================================================================================

                       ****************************
                       * Single Point Calculation *
                       ****************************

---------------------------------
CARTESIAN COORDINATES (ANGSTROEM)
---------------------------------
  C      3.488280    1.600920   -1.522040
  C      4.342970    1.313420   -2.756830
  N      2.810290    0.428780   -1.014200
  H      5.132030    0.604990   -2.484470
  C      3.535900    0.749250   -3.924600
  H      4.841250    2.242140   -3.054080
  H      2.714550    2.331450   -1.760300
  H      4.090990    2.063150   -0.733380
  C      3.290980   -0.418020   -0.129080
  N      2.517540   -1.432020    0.239360
  C      4.535490   -0.284410    0.395800
  H      5.043630    0.571890    0.222900
  H      4.723350   -0.733270    1.281800
  H      1.934790    0.102300   -1.403790
  H      1.674640   -1.505620   -0.316100
  H      2.928500   -2.218500    0.725490
  H      4.187040    0.569900   -4.754510
  H      2.780960    1.452170   -4.208980
  H      3.074360   -0.169490   -3.628320

----------------------------
CARTESIAN COORDINATES (A.U.)
----------------------------
  NO LB      ZA    FRAG     MASS         X           Y           Z
   0 C     6.0000    0    12.011    6.591894    3.025300   -2.876239
   1 C     6.0000    0    12.011    8.207024    2.482004   -5.209654
   2 N     7.0000    0    14.007    5.310678    0.810277   -1.916560
   3 H     1.0000    0     1.008    9.698131    1.143265   -4.694968
   4 C     6.0000    0    12.011    6.681883    1.415877   -7.416419
   5 H     1.0000    0     1.008    9.148637    4.237031   -5.771375
   6 H     1.0000    0     1.008    5.129756    4.405802   -3.326485
   7 H     1.0000    0     1.008    7.730851    3.898788   -1.385887
   8 C     6.0000    0    12.011    6.219051   -0.789943   -0.243926
   9 N     7.0000    0    14.007    4.757461   -2.706126    0.452325
  10 C     6.0000    0    12.011    8.570834   -0.537457    0.747954
  11 H     1.0000    0     1.008    9.531079    1.080715    0.421220
  12 H     1.0000    0     1.008    8.925838   -1.385679    2.422251
  13 H     1.0000    0     1.008    3.656223    0.193319   -2.652779
  14 H     1.0000    0     1.008    3.164611   -2.845209   -0.597342
  15 H     1.0000    0     1.008    5.534063   -4.192357    1.370977
  16 H     1.0000    0     1.008    7.912359    1.076955   -8.984722
  17 H     1.0000    0     1.008    5.255253    2.744204   -7.953820
  18 H     1.0000    0     1.008    5.809698   -0.320290   -6.856531

--------------------------------
INTERNAL COORDINATES (ANGSTROEM)
--------------------------------
 C      0   0   0     0.000000000000     0.00000000     0.00000000
 C      1   0   0     1.529005425170     0.00000000     0.00000000
 N      1   2   0     1.446196420027   113.15647526     0.00000000
 H      2   1   3     1.094837302114   108.88286054   297.46237499
 C      2   1   3     1.527526283473   113.04704254    59.25317797
 H      2   1   3     1.095062262750   108.30627380   181.72995780
 H      1   2   3     1.090458628926   110.25141732   240.62087931
 H      1   2   3     1.094943154963   110.69312197   124.42402746
 C      3   1   2     1.315891534474   125.91025238    89.02804164
 N      9   3   1     1.327461286516   117.73705795   178.95874270
 C      9   3   1     1.357260397492   122.12206254   358.50918587
 H     11   9   3     1.010618800340   118.57313099    10.64293628
 H     11   9   3     1.010822773388   117.75308784   158.14426892
 H      3   1   2     1.012358537525   122.11879420   277.16183776
 H     10   9   3     1.012142866200   112.85787808     8.15033951
 H     10   9   3     1.011810895820   119.37039034   164.55796622
 H      5   2   1     1.070000154299   109.47101777   179.99982193
 H      5   2   1     1.070001361868   109.47103773    60.00027570
 H      5   2   1     1.069992615675   109.47195647   300.00054596

---------------------------
INTERNAL COORDINATES (A.U.)
---------------------------
 C      0   0   0     0.000000000000     0.00000000     0.00000000
 C      1   0   0     2.889401510852     0.00000000     0.00000000
 N      1   2   0     2.732915169709   113.15647526     0.00000000
 H      2   1   3     2.068942662196   108.88286054   297.46237499
 C      2   1   3     2.886606338130   113.04704254    59.25317797
 H      2   1   3     2.069367776190   108.30627380   181.72995780
 H      1   2   3     2.060668169042   110.25141732   240.62087931
 H      1   2   3     2.069142695091   110.69312197   124.42402746
 C      3   1   2     2.486674622101   125.91025238    89.02804164
 N      9   3   1     2.508538284899   117.73705795   178.95874270
 C      9   3   1     2.564850443677   122.12206254   358.50918587
 H     11   9   3     1.909792758434   118.57313099    10.64293628
 H     11   9   3     1.910178211634   117.75308784   158.14426892
 H      3   1   2     1.913080385260   122.11879420   277.16183776
 H     10   9   3     1.912672825521   112.85787808     8.15033951
 H     10   9   3     1.912045492417   119.37039034   164.55796622
 H      5   2   1     2.022007254879   109.47101777   179.99982193
 H      5   2   1     2.022009536854   109.47103773    60.00027570
 H      5   2   1     2.021993008945   109.47195647   300.00054596

---------------------
BASIS SET INFORMATION
---------------------
There are 3 groups of distinct atoms

 Group   1 Type C   : 8s4p2d contracted to 4s2p2d pattern {5111/31/11}
 Group   2 Type N   : 8s4p2d contracted to 4s2p2d pattern {5111/31/11}
 Group   3 Type H   : 4s2p contracted to 2s2p pattern {31/11}

Atom   0C    basis set group =>   1
Atom   1C    basis set group =>   1
Atom   2N    basis set group =>   2
Atom   3H    basis set group =>   3
Atom   4C    basis set group =>   1
Atom   5H    basis set group =>   3
Atom   6H    basis set group =>   3
Atom   7H    basis set group =>   3
Atom   8C    basis set group =>   1
Atom   9N    basis set group =>   2
Atom  10C    basis set group =>   1
Atom  11H    basis set group =>   3
Atom  12H    basis set group =>   3
Atom  13H    basis set group =>   3
Atom  14H    basis set group =>   3
Atom  15H    basis set group =>   3
Atom  16H    basis set group =>   3
Atom  17H    basis set group =>   3
Atom  18H    basis set group =>   3
---------------------------------
AUXILIARY/J BASIS SET INFORMATION
---------------------------------
There are 3 groups of distinct atoms

 Group   1 Type C   : 12s5p4d2f1g contracted to 6s4p3d1f1g pattern {711111/2111/211/2/1}
 Group   2 Type N   : 12s5p4d2f1g contracted to 6s4p3d1f1g pattern {711111/2111/211/2/1}
 Group   3 Type H   : 5s2p1d contracted to 3s1p1d pattern {311/2/1}

Atom   0C    basis set group =>   1
Atom   1C    basis set group =>   1
Atom   2N    basis set group =>   2
Atom   3H    basis set group =>   3
Atom   4C    basis set group =>   1
Atom   5H    basis set group =>   3
Atom   6H    basis set group =>   3
Atom   7H    basis set group =>   3
Atom   8C    basis set group =>   1
Atom   9N    basis set group =>   2
Atom  10C    basis set group =>   1
Atom  11H    basis set group =>   3
Atom  12H    basis set group =>   3
Atom  13H    basis set group =>   3
Atom  14H    basis set group =>   3
Atom  15H    basis set group =>   3
Atom  16H    basis set group =>   3
Atom  17H    basis set group =>   3
Atom  18H    basis set group =>   3


           ************************************************************
           *        Program running with 4 parallel MPI-processes     *
           *              working on a common directory               *
           ************************************************************
------------------------------------------------------------------------------
                           ORCA GTO INTEGRAL CALCULATION
                           -- RI-GTO INTEGRALS CHOSEN --
------------------------------------------------------------------------------
------------------------------------------------------------------------------
                   ___                                                        
                  /   \      - P O W E R E D   B Y -                         
                 /     \                                                     
                 |  |  |   _    _      __       _____    __    __             
                 |  |  |  | |  | |    /  \     |  _  \  |  |  /  |          
                  \  \/   | |  | |   /    \    | | | |  |  | /  /          
                 / \  \   | |__| |  /  /\  \   | |_| |  |  |/  /          
                |  |  |   |  __  | /  /__\  \  |    /   |      \           
                |  |  |   | |  | | |   __   |  |    \   |  |\   \          
                \     /   | |  | | |  |  |  |  | |\  \  |  | \   \       
                 \___/    |_|  |_| |__|  |__|  |_| \__\ |__|  \__/        
                                                                              
                      - O R C A' S   B I G   F R I E N D -                    
                                      &                                       
                       - I N T E G R A L  F E E D E R -                       
                                                                              
 v1 FN, 2020, v2 2021                                                         
------------------------------------------------------------------------------


Reading SHARK input file 14Feb_SVPD_LC_BLYP_C3_wt_wb97_typ1_pos.SHARKINP.tmp ... ok
----------------------
SHARK INTEGRAL PACKAGE
----------------------

Number of atoms                             ...     19
Number of basis functions                   ...    236
Number of shells                            ...    104
Maximum angular momentum                    ...      2
Integral batch strategy                     ... SHARK/LIBINT Hybrid
RI-J (if used) integral strategy            ... SPLIT-RIJ (Revised 2003 algorithm where possible)
Printlevel                                  ...      1
Contraction scheme used                     ... SEGMENTED contraction
Coulomb Range Separation                    ... NOT USED
Exchange Range Separation                   ... Long Range
   Mu parameter                             ...  0.330000
   Scaling (regular/separated)              ...  0.000000  1.000000
Finite Nucleus Model                        ... NOT USED
Auxiliary Coulomb fitting basis             ... AVAILABLE
   # of basis functions in Aux-J            ...    475
   # of shells in Aux-J                     ...    165
   Maximum angular momentum in Aux-J        ...      4
Auxiliary J/K fitting basis                 ... NOT available
Auxiliary Correlation fitting basis         ... NOT available
Auxiliary 'external' fitting basis          ... NOT available
Integral threshold                          ...     2.500000e-11
Primitive cut-off                           ...     2.500000e-12
Primitive pair pre-selection threshold      ...     2.500000e-12

Calculating pre-screening integrals         ... done (  0.0 sec) Dimension = 104
Organizing shell pair data                  ... done (  0.0 sec)
Shell pair information
Total number of shell pairs                 ...      5460
Shell pairs after pre-screening             ...      5300
Total number of primitive shell pairs       ...     14662
Primitive shell pairs kept                  ...     11633
          la=0 lb=0:   1330 shell pairs
          la=1 lb=0:   1915 shell pairs
          la=1 lb=1:    716 shell pairs
          la=2 lb=0:    713 shell pairs
          la=2 lb=1:    522 shell pairs
          la=2 lb=2:    104 shell pairs

Calculating one electron integrals          ... done (  0.0 sec)
Calculating RI/J V-Matrix + Cholesky decomp.... done (  0.0 sec)
Calculating Nuclear repulsion               ... done (  0.0 sec) ENN=    320.115042120559 Eh

SHARK setup successfully completed in   0.2 seconds

Maximum memory used throughout the entire GTOINT-calculation: 10.4 MB


           ************************************************************
           *        Program running with 4 parallel MPI-processes     *
           *              working on a common directory               *
           ************************************************************
-------------------------------------------------------------------------------
                                 ORCA SCF
-------------------------------------------------------------------------------

------------
SCF SETTINGS
------------
Hamiltonian:
 Density Functional     Method          .... DFT(GTOs)
 Exchange Functional    Exchange        .... WB88
 Correlation Functional Correlation     .... LYP
 Gradients option       PostSCFGGA      .... off
   Density functional embedding theory  .... OFF
 Long-range corrected/Screened/Range-Separated Hybrid DFT is turned on
   Amount of maximum screened exact exchange              ....  1.000000
   Range separation parameter mu (erf(mu*r12)/r12)        ....  0.330000
 RI-approximation to the Coulomb term is turned on
   Number of AuxJ basis functions       .... 475
   RIJ-COSX (HFX calculated with COS-X)).... on


General Settings:
 Integral files         IntName         .... 14Feb_SVPD_LC_BLYP_C3_wt_wb97_typ1_pos
 Hartree-Fock type      HFTyp           .... RHF
 Total Charge           Charge          ....    0
 Multiplicity           Mult            ....    1
 Number of Electrons    NEL             ....   56
 Basis Dimension        Dim             ....  236
 Nuclear Repulsion      ENuc            ....    320.1150421206 Eh

Convergence Acceleration:
 DIIS                   CNVDIIS         .... on
   Start iteration      DIISMaxIt       ....    12
   Startup error        DIISStart       ....  0.200000
   # of expansion vecs  DIISMaxEq       ....     5
   Bias factor          DIISBfac        ....   1.050
   Max. coefficient     DIISMaxC        ....  10.000
 Trust-Rad. Augm. Hess. CNVTRAH         .... auto
   Auto Start mean grad. ratio tolernc. ....  1.125000
   Auto Start start iteration           ....    20
   Auto Start num. interpolation iter.  ....    10
   Max. Number of Micro iterations      ....    16
   Max. Number of Macro iterations      .... Maxiter - #DIIS iter
   Number of Davidson start vectors     ....     2
   Converg. threshold I  (grad. norm)   ....   1.000e-05
   Converg. threshold II (energy diff.) ....   1.000e-08
   Grad. Scal. Fac. for Micro threshold ....   0.100
   Minimum threshold for Micro iter.    ....   0.010
   NR start threshold (gradient norm)   ....   0.001
   Initial trust radius                 ....   0.400
   Minimum AH scaling param. (alpha)    ....   1.000
   Maximum AH scaling param. (alpha)    .... 1000.000
   Orbital update algorithm             .... Taylor
   White noise on init. David. guess    .... on
   Maximum white noise                  ....   0.010
   Quad. conv. algorithm                .... NR
 SOSCF                  CNVSOSCF        .... on
   Start iteration      SOSCFMaxIt      ....   150
   Startup grad/error   SOSCFStart      ....  0.003300
 Level Shifting         CNVShift        .... on
   Level shift para.    LevelShift      ....    0.2500
   Turn off err/grad.   ShiftErr        ....    0.0010
 Zerner damping         CNVZerner       .... off
 Static damping         CNVDamp         .... on
   Fraction old density DampFac         ....    0.7000
   Max. Damping (<1)    DampMax         ....    0.9800
   Min. Damping (>=0)   DampMin         ....    0.0000
   Turn off err/grad.   DampErr         ....    0.1000
 Fernandez-Rico         CNVRico         .... off

SCF Procedure:
 Maximum # iterations   MaxIter         ....   150
 SCF integral mode      SCFMode         .... Direct
   Integral package                     .... SHARK and LIBINT hybrid scheme
 Reset frequency        DirectResetFreq ....    20
 Integral Threshold     Thresh          ....  2.500e-11 Eh
 Primitive CutOff       TCut            ....  2.500e-12 Eh

Convergence Tolerance:
 Convergence Check Mode ConvCheckMode   .... Total+1el-Energy
 Convergence forced     ConvForced      .... 0
 Energy Change          TolE            ....  1.000e-08 Eh
 1-El. energy change                    ....  1.000e-05 Eh
 Orbital Gradient       TolG            ....  1.000e-05
 Orbital Rotation angle TolX            ....  1.000e-05
 DIIS Error             TolErr          ....  5.000e-07


Diagonalization of the overlap matrix:
Smallest eigenvalue                        ... 5.225e-05
Time for diagonalization                   ...    0.015 sec
Threshold for overlap eigenvalues          ... 1.000e-08
Number of eigenvalues below threshold      ... 0
Time for construction of square roots      ...    0.009 sec
Total time needed                          ...    0.025 sec

Time for model grid setup =    0.123 sec

------------------------------
INITIAL GUESS: MODEL POTENTIAL
------------------------------
Loading Hartree-Fock densities                     ... done
Calculating cut-offs                               ... done
Initializing the effective Hamiltonian             ... done
Setting up the integral package (SHARK)            ... done
Starting the Coulomb interaction                   ... done (   0.1 sec)
Reading the grid                                   ... done
Mapping shells                                     ... done
Starting the XC term evaluation                    ... done (   0.1 sec)
  promolecular density results
     # of electrons  =     55.991235581
     EX              =    -42.294059060
     EC              =     -1.842050862
     EX+EC           =    -44.136109921
Transforming the Hamiltonian                       ... done (   0.0 sec)
Diagonalizing the Hamiltonian                      ... done (   0.0 sec)
Back transforming the eigenvectors                 ... done (   0.0 sec)
Now organizing SCF variables                       ... done
                      ------------------
                      INITIAL GUESS DONE (   0.4 sec)
                      ------------------
-------------------
DFT GRID GENERATION
-------------------

General Integration Accuracy     IntAcc      ... 4.388
Radial Grid Type                 RadialGrid  ... OptM3 with GC (2021)
Angular Grid (max. ang.)         AngularGrid ... 4 (Lebedev-302)
Angular grid pruning method      GridPruning ... 4 (adaptive)
Weight generation scheme         WeightScheme... Becke
Basis function cutoff            BFCut       ... 1.0000e-11
Integration weight cutoff        WCut        ... 1.0000e-14
Angular grids for H and He will be reduced by one unit
Partially contracted basis set               ... off
Rotationally invariant grid construction     ... off

Total number of grid points                  ...    82893
Total number of batches                      ...     1304
Average number of points per batch           ...       63
Average number of grid points per atom       ...     4363
Time for grid setup =    0.489 sec

--------------------
COSX GRID GENERATION
--------------------

GRIDX 1
-------
General Integration Accuracy     IntAcc      ... 3.816
Radial Grid Type                 RadialGrid  ... OptM3 with GC (2021)
Angular Grid (max. ang.)         AngularGrid ... 1 (Lebedev-50)
Angular grid pruning method      GridPruning ... 4 (adaptive)
Weight generation scheme         WeightScheme... Becke
Basis function cutoff            BFCut       ... 1.0000e-11
Integration weight cutoff        WCut        ... 1.0000e-14
Angular grids for H and He will be reduced by one unit
Partially contracted basis set               ... on
Rotationally invariant grid construction     ... off

Total number of grid points                  ...    10369
Total number of batches                      ...      174
Average number of points per batch           ...       59
Average number of grid points per atom       ...      546
UseSFitting                                  ... on

GRIDX 2
-------
General Integration Accuracy     IntAcc      ... 4.020
Radial Grid Type                 RadialGrid  ... OptM3 with GC (2021)
Angular Grid (max. ang.)         AngularGrid ... 2 (Lebedev-110)
Angular grid pruning method      GridPruning ... 4 (adaptive)
Weight generation scheme         WeightScheme... Becke
Basis function cutoff            BFCut       ... 1.0000e-11
Integration weight cutoff        WCut        ... 1.0000e-14
Angular grids for H and He will be reduced by one unit
Partially contracted basis set               ... on
Rotationally invariant grid construction     ... off

Total number of grid points                  ...    22589
Total number of batches                      ...      365
Average number of points per batch           ...       61
Average number of grid points per atom       ...     1189
UseSFitting                                  ... on

GRIDX 3
-------
General Integration Accuracy     IntAcc      ... 4.338
Radial Grid Type                 RadialGrid  ... OptM3 with GC (2021)
Angular Grid (max. ang.)         AngularGrid ... 3 (Lebedev-194)
Angular grid pruning method      GridPruning ... 4 (adaptive)
Weight generation scheme         WeightScheme... Becke
Basis function cutoff            BFCut       ... 1.0000e-11
Integration weight cutoff        WCut        ... 1.0000e-14
Angular grids for H and He will be reduced by one unit
Partially contracted basis set               ... on
Rotationally invariant grid construction     ... off

Total number of grid points                  ...    51484
Total number of batches                      ...      813
Average number of points per batch           ...       63
Average number of grid points per atom       ...     2710
UseSFitting                                  ... on

Time for X-Grid setup             =    0.479 sec

--------------
SCF ITERATIONS
--------------
ITER       Energy         Delta-E        Max-DP      RMS-DP      [F,P]     Damp
               ***  Starting incremental Fock matrix formation  ***
  0   -305.8696155077   0.000000000000 0.12867756  0.00240480  0.2293116 0.7000
  1   -305.9933730374  -0.123757529744 0.14488201  0.00200452  0.1328808 0.7000
                               ***Turning on DIIS***
  2   -306.0562814340  -0.062908396562 0.33578852  0.00449044  0.0630667 0.0000
  3   -306.1552946956  -0.099013261632 0.06023187  0.00151186  0.0605415 0.0000
  4   -306.1724836352  -0.017188939561 0.01326376  0.00031831  0.0073692 0.0000
                      *** Initiating the SOSCF procedure ***
                           *** Shutting down DIIS ***
                      *** Re-Reading the Fockian *** 
                      *** Removing any level shift *** 
ITER      Energy       Delta-E        Grad      Rot      Max-DP    RMS-DP
  5   -306.17279413  -0.0003104966  0.000856  0.000856  0.004947  0.000133
               *** Restarting incremental Fock matrix formation ***
  6   -306.17281528  -0.0000211433  0.000428  0.001065  0.007483  0.000134
  7   -306.17282778  -0.0000125091  0.000301  0.001209  0.005268  0.000093
  8   -306.17283171  -0.0000039281  0.000074  0.000138  0.000695  0.000021
  9   -306.17283202  -0.0000003068  0.000031  0.000045  0.000279  0.000008
 10   -306.17283206  -0.0000000455  0.000011  0.000029  0.000205  0.000004
                  ***Gradient check signals convergence***
              ***Rediagonalizing the Fockian in SOSCF/NRSCF***

               *****************************************************
               *                     SUCCESS                       *
               *           SCF CONVERGED AFTER  11 CYCLES          *
               *****************************************************


----------------
TOTAL SCF ENERGY
----------------

Total Energy       :         -306.17283207 Eh           -8331.38632 eV

Components:
Nuclear Repulsion  :          320.11504212 Eh            8710.77314 eV
Electronic Energy  :         -626.28787419 Eh          -17042.15946 eV
One Electron Energy:        -1047.04588430 Eh          -28491.56700 eV
Two Electron Energy:          420.75801011 Eh           11449.40753 eV
Max COSX asymmetry :            0.00000737 Eh               0.00020 eV

Virial components:
Potential Energy   :         -609.66039200 Eh          -16589.70267 eV
Kinetic Energy     :          303.48755993 Eh            8258.31635 eV
Virial Ratio       :            2.00884805


DFT components:
N(Alpha)           :       28.000072532924 electrons
N(Beta)            :       28.000072532924 electrons
N(Total)           :       56.000145065847 electrons
E(XC)              :      -35.180634566967 Eh       
DFET-embed. en.    :        0.000000000000 Eh       

---------------
SCF CONVERGENCE
---------------

  Last Energy change         ...   -6.8641e-09  Tolerance :   1.0000e-08
  Last MAX-Density change    ...    2.1165e-04  Tolerance :   1.0000e-07
  Last RMS-Density change    ...    2.2673e-06  Tolerance :   5.0000e-09
  Last Orbital Gradient      ...    2.0167e-06  Tolerance :   1.0000e-05
  Last Orbital Rotation      ...    8.1377e-06  Tolerance :   1.0000e-05

             **** THE GBW FILE WAS UPDATED (14Feb_SVPD_LC_BLYP_C3_wt_wb97_typ1_pos.gbw) ****
             **** DENSITY 14Feb_SVPD_LC_BLYP_C3_wt_wb97_typ1_pos.scfp WAS UPDATED ****
             **** ENERGY FILE WAS UPDATED (14Feb_SVPD_LC_BLYP_C3_wt_wb97_typ1_pos.en.tmp) ****
             **** THE GBW FILE WAS UPDATED (14Feb_SVPD_LC_BLYP_C3_wt_wb97_typ1_pos.gbw) ****
             **** DENSITY 14Feb_SVPD_LC_BLYP_C3_wt_wb97_typ1_pos.scfp WAS UPDATED ****
----------------
ORBITAL ENERGIES
----------------

  NO   OCC          E(Eh)            E(eV) 
   0   2.0000     -14.196148      -386.2968 
   1   2.0000     -14.191845      -386.1797 
   2   2.0000     -10.136060      -275.8162 
   3   2.0000     -10.117969      -275.3239 
   4   2.0000     -10.079290      -274.2714 
   5   2.0000     -10.070308      -274.0270 
   6   2.0000      -9.997579      -272.0479 
   7   2.0000      -1.074880       -29.2490 
   8   2.0000      -0.985406       -26.8143 
   9   2.0000      -0.884176       -24.0596 
  10   2.0000      -0.811860       -22.0918 
  11   2.0000      -0.799566       -21.7573 
  12   2.0000      -0.714052       -19.4303 
  13   2.0000      -0.659321       -17.9410 
  14   2.0000      -0.651894       -17.7389 
  15   2.0000      -0.633351       -17.2344 
  16   2.0000      -0.580661       -15.8006 
  17   2.0000      -0.559420       -15.2226 
  18   2.0000      -0.544417       -14.8143 
  19   2.0000      -0.508076       -13.8255 
  20   2.0000      -0.505981       -13.7685 
  21   2.0000      -0.482484       -13.1291 
  22   2.0000      -0.469578       -12.7779 
  23   2.0000      -0.449667       -12.2361 
  24   2.0000      -0.442013       -12.0278 
  25   2.0000      -0.433426       -11.7941 
  26   2.0000      -0.351797        -9.5729 
  27   2.0000      -0.261125        -7.1056 
  28   0.0000       0.062567         1.7025 
  29   0.0000       0.088886         2.4187 
  30   0.0000       0.097174         2.6442 
  31   0.0000       0.102119         2.7788 
  32   0.0000       0.123632         3.3642 
  33   0.0000       0.134162         3.6507 
  34   0.0000       0.141056         3.8383 
  35   0.0000       0.147324         4.0089 
  36   0.0000       0.158016         4.2998 
  37   0.0000       0.166065         4.5189 
  38   0.0000       0.176042         4.7903 
  39   0.0000       0.185181         5.0390 
  40   0.0000       0.193972         5.2783 
  41   0.0000       0.207402         5.6437 
  42   0.0000       0.219942         5.9849 
  43   0.0000       0.223171         6.0728 
  44   0.0000       0.232095         6.3156 
  45   0.0000       0.235801         6.4165 
  46   0.0000       0.243461         6.6249 
  47   0.0000       0.252426         6.8688 
  48   0.0000       0.262203         7.1349 
  49   0.0000       0.265550         7.2260 
  50   0.0000       0.274313         7.4644 
  51   0.0000       0.297800         8.1035 
  52   0.0000       0.301859         8.2140 
  53   0.0000       0.310575         8.4512 
  54   0.0000       0.319535         8.6950 
  55   0.0000       0.323583         8.8051 
  56   0.0000       0.337975         9.1968 
  57   0.0000       0.345359         9.3977 
  58   0.0000       0.356433         9.6990 
  59   0.0000       0.361089         9.8257 
  60   0.0000       0.364362         9.9148 
  61   0.0000       0.371539        10.1101 
  62   0.0000       0.379938        10.3386 
  63   0.0000       0.383435        10.4338 
  64   0.0000       0.393033        10.6950 
  65   0.0000       0.403626        10.9832 
  66   0.0000       0.407782        11.0963 
  67   0.0000       0.417146        11.3511 
  68   0.0000       0.422760        11.5039 
  69   0.0000       0.428450        11.6587 
  70   0.0000       0.434387        11.8203 
  71   0.0000       0.437821        11.9137 
  72   0.0000       0.443864        12.0781 
  73   0.0000       0.448168        12.1953 
  74   0.0000       0.450532        12.2596 
  75   0.0000       0.456480        12.4215 
  76   0.0000       0.463303        12.6071 
  77   0.0000       0.469474        12.7750 
  78   0.0000       0.476945        12.9783 
  79   0.0000       0.484238        13.1768 
  80   0.0000       0.485843        13.2205 
  81   0.0000       0.498118        13.5545 
  82   0.0000       0.505252        13.7486 
  83   0.0000       0.510944        13.9035 
  84   0.0000       0.522321        14.2131 
  85   0.0000       0.532393        14.4871 
  86   0.0000       0.537092        14.6150 
  87   0.0000       0.546785        14.8788 
  88   0.0000       0.548436        14.9237 
  89   0.0000       0.556557        15.1447 
  90   0.0000       0.561879        15.2895 
  91   0.0000       0.568684        15.4747 
  92   0.0000       0.575178        15.6514 
  93   0.0000       0.577748        15.7213 
  94   0.0000       0.586630        15.9630 
  95   0.0000       0.596812        16.2401 
  96   0.0000       0.602923        16.4064 
  97   0.0000       0.612404        16.6644 
  98   0.0000       0.616474        16.7751 
  99   0.0000       0.624580        16.9957 
 100   0.0000       0.637477        17.3466 
 101   0.0000       0.638661        17.3788 
 102   0.0000       0.647682        17.6243 
 103   0.0000       0.664453        18.0807 
 104   0.0000       0.667880        18.1739 
 105   0.0000       0.674394        18.3512 
 106   0.0000       0.678945        18.4750 
 107   0.0000       0.685736        18.6598 
 108   0.0000       0.701290        19.0831 
 109   0.0000       0.708301        19.2739 
 110   0.0000       0.723294        19.6818 
 111   0.0000       0.726436        19.7673 
 112   0.0000       0.738062        20.0837 
 113   0.0000       0.743805        20.2400 
 114   0.0000       0.772558        21.0224 
 115   0.0000       0.786989        21.4151 
 116   0.0000       0.805378        21.9154 
 117   0.0000       0.812020        22.0962 
 118   0.0000       0.825483        22.4625 
 119   0.0000       0.838513        22.8171 
 120   0.0000       0.850476        23.1426 
 121   0.0000       0.862548        23.4711 
 122   0.0000       0.869110        23.6497 
 123   0.0000       0.886081        24.1115 
 124   0.0000       0.900810        24.5123 
 125   0.0000       0.950660        25.8688 
 126   0.0000       0.992716        27.0132 
 127   0.0000       1.030372        28.0378 
 128   0.0000       1.033283        28.1171 
 129   0.0000       1.050597        28.5882 
 130   0.0000       1.060446        28.8562 
 131   0.0000       1.071285        29.1511 
 132   0.0000       1.084165        29.5016 
 133   0.0000       1.100580        29.9483 
 134   0.0000       1.110179        30.2095 
 135   0.0000       1.114583        30.3293 
 136   0.0000       1.129901        30.7462 
 137   0.0000       1.142275        31.0829 
 138   0.0000       1.152984        31.3743 
 139   0.0000       1.162693        31.6385 
 140   0.0000       1.174560        31.9614 
 141   0.0000       1.190218        32.3875 
 142   0.0000       1.221965        33.2513 
 143   0.0000       1.240772        33.7631 
 144   0.0000       1.260486        34.2996 
 145   0.0000       1.261618        34.3304 
 146   0.0000       1.291084        35.1322 
 147   0.0000       1.294968        35.2379 
 148   0.0000       1.315355        35.7926 
 149   0.0000       1.349081        36.7104 
 150   0.0000       1.368773        37.2462 
 151   0.0000       1.383783        37.6547 
 152   0.0000       1.407534        38.3009 
 153   0.0000       1.420466        38.6528 
 154   0.0000       1.453144        39.5421 
 155   0.0000       1.471862        40.0514 
 156   0.0000       1.491279        40.5798 
 157   0.0000       1.542964        41.9862 
 158   0.0000       1.611195        43.8429 
 159   0.0000       1.631456        44.3942 
 160   0.0000       1.673124        45.5280 
 161   0.0000       1.702713        46.3332 
 162   0.0000       1.720098        46.8062 
 163   0.0000       1.736238        47.2454 
 164   0.0000       1.751557        47.6623 
 165   0.0000       1.784408        48.5562 
 166   0.0000       1.794688        48.8359 
 167   0.0000       1.823214        49.6122 
 168   0.0000       1.833216        49.8843 
 169   0.0000       1.861816        50.6626 
 170   0.0000       1.879653        51.1480 
 171   0.0000       1.893196        51.5165 
 172   0.0000       1.902830        51.7786 
 173   0.0000       1.928900        52.4880 
 174   0.0000       1.959330        53.3161 
 175   0.0000       1.976762        53.7904 
 176   0.0000       1.989528        54.1378 
 177   0.0000       2.009626        54.6847 
 178   0.0000       2.013956        54.8025 
 179   0.0000       2.043260        55.5999 
 180   0.0000       2.058351        56.0106 
 181   0.0000       2.070781        56.3488 
 182   0.0000       2.098525        57.1038 
 183   0.0000       2.101290        57.1790 
 184   0.0000       2.120188        57.6932 
 185   0.0000       2.123137        57.7735 
 186   0.0000       2.146229        58.4018 
 187   0.0000       2.172713        59.1225 
 188   0.0000       2.189327        59.5746 
 189   0.0000       2.196542        59.7710 
 190   0.0000       2.209016        60.1104 
 191   0.0000       2.225732        60.5653 
 192   0.0000       2.249470        61.2112 
 193   0.0000       2.280763        62.0627 
 194   0.0000       2.295307        62.4585 
 195   0.0000       2.312868        62.9363 
 196   0.0000       2.334365        63.5213 
 197   0.0000       2.346124        63.8413 
 198   0.0000       2.376043        64.6554 
 199   0.0000       2.414414        65.6996 
 200   0.0000       2.438502        66.3550 
 201   0.0000       2.460355        66.9497 
 202   0.0000       2.492335        67.8199 
 203   0.0000       2.514804        68.4313 
 204   0.0000       2.527629        68.7803 
 205   0.0000       2.547882        69.3314 
 206   0.0000       2.596917        70.6657 
 207   0.0000       2.611001        71.0490 
 208   0.0000       2.622371        71.3583 
 209   0.0000       2.672946        72.7346 
 210   0.0000       2.691147        73.2298 
 211   0.0000       2.729995        74.2869 
 212   0.0000       2.745705        74.7144 
 213   0.0000       2.788852        75.8885 
 214   0.0000       2.795124        76.0592 
 215   0.0000       2.803812        76.2956 
 216   0.0000       2.848059        77.4996 
 217   0.0000       2.878412        78.3256 
 218   0.0000       2.952686        80.3467 
 219   0.0000       2.978571        81.0510 
 220   0.0000       3.002999        81.7158 
 221   0.0000       3.044827        82.8540 
 222   0.0000       3.117080        84.8201 
 223   0.0000       3.171319        86.2960 
 224   0.0000       3.184180        86.6459 
 225   0.0000       3.240811        88.1870 
 226   0.0000       3.280641        89.2708 
 227   0.0000       3.288383        89.4814 
 228   0.0000       3.303502        89.8928 
 229   0.0000       3.327157        90.5365 
 230   0.0000       3.347636        91.0938 
 231   0.0000       3.414552        92.9147 
 232   0.0000       3.466752        94.3351 
 233   0.0000       3.522918        95.8635 
 234   0.0000       3.762818       102.3915 
 235   0.0000       3.803359       103.4947 

                    ********************************
                    * MULLIKEN POPULATION ANALYSIS *
                    ********************************

-----------------------
MULLIKEN ATOMIC CHARGES
-----------------------
   0 C :    0.821060
   1 C :   -0.108324
   2 N :   -0.363271
   3 H :   -0.109766
   4 C :    0.950302
   5 H :   -0.205974
   6 H :   -0.395406
   7 H :   -0.075394
   8 C :    0.418479
   9 N :    0.293925
  10 C :    0.676780
  11 H :   -0.258739
  12 H :   -0.671729
  13 H :   -0.299387
  14 H :   -0.154455
  15 H :   -0.103340
  16 H :   -0.172436
  17 H :   -0.058688
  18 H :   -0.183637
Sum of atomic charges:    0.0000000

--------------------------------
MULLIKEN REDUCED ORBITAL CHARGES
--------------------------------
  0 C s       :     2.629723  s :     2.629723
      pz      :     0.833994  p :     2.407548
      px      :     0.720005
      py      :     0.853549
      dz2     :    -0.011927  d :     0.141669
      dxz     :     0.023844
      dyz     :     0.019829
      dx2y2   :     0.006037
      dxy     :     0.103886
  1 C s       :     2.822913  s :     2.822913
      pz      :     0.954387  p :     2.764828
      px      :     0.957410
      py      :     0.853031
      dz2     :     0.159817  d :     0.520584
      dxz     :     0.062153
      dyz     :     0.112063
      dx2y2   :     0.062693
      dxy     :     0.123858
  2 N s       :     3.531792  s :     3.531792
      pz      :     1.296385  p :     3.620671
      px      :     1.138347
      py      :     1.185939
      dz2     :     0.049658  d :     0.210808
      dxz     :     0.036554
      dyz     :     0.051971
      dx2y2   :     0.015664
      dxy     :     0.056961
  3 H s       :     1.077704  s :     1.077704
      pz      :    -0.000355  p :     0.032062
      px      :     0.032250
      py      :     0.000167
  4 C s       :     2.307042  s :     2.307042
      pz      :     0.916639  p :     2.638633
      px      :     0.850711
      py      :     0.871283
      dz2     :     0.051592  d :     0.104023
      dxz     :     0.020345
      dyz     :     0.005012
      dx2y2   :     0.010220
      dxy     :     0.016853
  5 H s       :     1.205658  s :     1.205658
      pz      :    -0.035498  p :     0.000316
      px      :    -0.009075
      py      :     0.044889
  6 H s       :     1.380759  s :     1.380759
      pz      :    -0.035113  p :     0.014647
      px      :     0.032937
      py      :     0.016823
  7 H s       :     1.103954  s :     1.103954
      pz      :     0.017500  p :    -0.028560
      px      :    -0.048443
      py      :     0.002383
  8 C s       :     2.793696  s :     2.793696
      pz      :     0.846840  p :     2.448005
      px      :     0.766147
      py      :     0.835017
      dz2     :     0.109047  d :     0.339820
      dxz     :     0.087400
      dyz     :     0.038375
      dx2y2   :    -0.096349
      dxy     :     0.201347
  9 N s       :     3.120318  s :     3.120318
      pz      :     1.379016  p :     3.572317
      px      :     1.093637
      py      :     1.099664
      dz2     :     0.014838  d :     0.013440
      dxz     :    -0.007021
      dyz     :     0.010520
      dx2y2   :    -0.003351
      dxy     :    -0.001546
 10 C s       :     2.603475  s :     2.603475
      pz      :     0.795349  p :     2.592777
      px      :     1.061425
      py      :     0.736003
      dz2     :     0.022711  d :     0.126969
      dxz     :     0.049666
      dyz     :    -0.003217
      dx2y2   :    -0.001085
      dxy     :     0.058894
 11 H s       :     1.154673  s :     1.154673
      pz      :     0.033379  p :     0.104066
      px      :     0.019510
      py      :     0.051177
 12 H s       :     1.569668  s :     1.569668
      pz      :     0.078081  p :     0.102061
      px      :     0.005488
      py      :     0.018492
 13 H s       :     1.305480  s :     1.305480
      pz      :     0.000682  p :    -0.006093
      px      :    -0.000426
      py      :    -0.006350
 14 H s       :     1.117283  s :     1.117283
      pz      :     0.016538  p :     0.037172
      px      :     0.019816
      py      :     0.000818
 15 H s       :     1.062986  s :     1.062986
      pz      :     0.053535  p :     0.040353
      px      :    -0.016999
      py      :     0.003817
 16 H s       :     1.174916  s :     1.174916
      pz      :     0.012515  p :    -0.002480
      px      :     0.029080
      py      :    -0.044075
 17 H s       :     1.053988  s :     1.053988
      pz      :    -0.013983  p :     0.004700
      px      :    -0.016945
      py      :     0.035628
 18 H s       :     1.126151  s :     1.126151
      pz      :     0.032162  p :     0.057486
      px      :    -0.028661
      py      :     0.053986


                     *******************************
                     * LOEWDIN POPULATION ANALYSIS *
                     *******************************

----------------------
LOEWDIN ATOMIC CHARGES
----------------------
   0 C :    0.035557
   1 C :   -0.072154
   2 N :   -0.003022
   3 H :    0.024612
   4 C :    0.105746
   5 H :    0.026130
   6 H :    0.026454
   7 H :    0.023618
   8 C :   -0.252865
   9 N :    0.198566
  10 C :    0.152287
  11 H :   -0.125399
  12 H :   -0.105563
  13 H :    0.021218
  14 H :   -0.013359
  15 H :    0.013657
  16 H :   -0.014636
  17 H :   -0.015540
  18 H :   -0.025310

-------------------------------
LOEWDIN REDUCED ORBITAL CHARGES
-------------------------------
  0 C s       :     2.661081  s :     2.661081
      pz      :     0.891650  p :     2.606068
      px      :     0.889655
      py      :     0.824763
      dz2     :     0.128854  d :     0.697294
      dxz     :     0.158932
      dyz     :     0.144225
      dx2y2   :     0.093500
      dxy     :     0.171782
  1 C s       :     2.695443  s :     2.695443
      pz      :     0.884225  p :     2.717433
      px      :     0.912776
      py      :     0.920433
      dz2     :     0.182848  d :     0.659277
      dxz     :     0.149512
      dyz     :     0.123442
      dx2y2   :     0.062027
      dxy     :     0.141447
  2 N s       :     2.887897  s :     2.887897
      pz      :     1.219264  p :     3.490893
      px      :     1.125630
      py      :     1.145998
      dz2     :     0.109284  d :     0.624232
      dxz     :     0.106291
      dyz     :     0.133281
      dx2y2   :     0.142131
      dxy     :     0.133245
  3 H s       :     0.716827  s :     0.716827
      pz      :     0.072803  p :     0.258561
      px      :     0.088943
      py      :     0.096815
  4 C s       :     2.703090  s :     2.703090
      pz      :     0.915854  p :     2.781639
      px      :     0.928977
      py      :     0.936809
      dz2     :     0.093337  d :     0.409525
      dxz     :     0.109511
      dyz     :     0.066532
      dx2y2   :     0.044251
      dxy     :     0.095893
  5 H s       :     0.726123  s :     0.726123
      pz      :     0.063847  p :     0.247746
      px      :     0.074794
      py      :     0.109105
  6 H s       :     0.729082  s :     0.729082
      pz      :     0.070312  p :     0.244464
      px      :     0.094270
      py      :     0.079881
  7 H s       :     0.707826  s :     0.707826
      pz      :     0.103126  p :     0.268555
      px      :     0.088540
      py      :     0.076889
  8 C s       :     2.633925  s :     2.633925
      pz      :     0.789711  p :     2.514457
      px      :     0.911693
      py      :     0.813053
      dz2     :     0.208274  d :     1.104483
      dxz     :     0.221059
      dyz     :     0.169431
      dx2y2   :     0.241893
      dxy     :     0.263826
  9 N s       :     2.924378  s :     2.924378
      pz      :     1.273157  p :     3.531534
      px      :     1.125692
      py      :     1.132686
      dz2     :     0.032849  d :     0.345522
      dxz     :     0.057047
      dyz     :     0.070207
      dx2y2   :     0.106087
      dxy     :     0.079332
 10 C s       :     2.732403  s :     2.732403
      pz      :     0.939018  p :     2.803331
      px      :     0.928661
      py      :     0.935652
      dz2     :     0.062374  d :     0.311979
      dxz     :     0.065363
      dyz     :     0.037427
      dx2y2   :     0.065417
      dxy     :     0.081398
 11 H s       :     0.750351  s :     0.750351
      pz      :     0.111298  p :     0.375047
      px      :     0.102002
      py      :     0.161747
 12 H s       :     0.767379  s :     0.767379
      pz      :     0.132295  p :     0.338183
      px      :     0.088505
      py      :     0.117383
 13 H s       :     0.642819  s :     0.642819
      pz      :     0.108592  p :     0.335962
      px      :     0.129601
      py      :     0.097770
 14 H s       :     0.655095  s :     0.655095
      pz      :     0.136795  p :     0.358264
      px      :     0.130807
      py      :     0.090662
 15 H s       :     0.647993  s :     0.647993
      pz      :     0.120568  p :     0.338350
      px      :     0.095728
      py      :     0.122054
 16 H s       :     0.736996  s :     0.736996
      pz      :     0.103306  p :     0.277640
      px      :     0.097068
      py      :     0.077266
 17 H s       :     0.736075  s :     0.736075
      pz      :     0.075659  p :     0.279465
      px      :     0.101304
      py      :     0.102502
 18 H s       :     0.732684  s :     0.732684
      pz      :     0.091167  p :     0.292626
      px      :     0.085737
      py      :     0.115723


                      *****************************
                      * MAYER POPULATION ANALYSIS *
                      *****************************

  NA   - Mulliken gross atomic population
  ZA   - Total nuclear charge
  QA   - Mulliken gross atomic charge
  VA   - Mayer's total valence
  BVA  - Mayer's bonded valence
  FA   - Mayer's free valence

  ATOM       NA         ZA         QA         VA         BVA        FA
  0 C      5.1789     6.0000     0.8211     3.8179     3.8179     0.0000
  1 C      6.1083     6.0000    -0.1083     5.1532     5.1532     0.0000
  2 N      7.3633     7.0000    -0.3633     4.3718     4.3718     0.0000
  3 H      1.1098     1.0000    -0.1098     1.0285     1.0285    -0.0000
  4 C      5.0497     6.0000     0.9503     3.6713     3.6713     0.0000
  5 H      1.2060     1.0000    -0.2060     1.0648     1.0648     0.0000
  6 H      1.3954     1.0000    -0.3954     0.8886     0.8886     0.0000
  7 H      1.0754     1.0000    -0.0754     0.8520     0.8520     0.0000
  8 C      5.5815     6.0000     0.4185     3.7696     3.7696     0.0000
  9 N      6.7061     7.0000     0.2939     3.6993     3.6993     0.0000
 10 C      5.3232     6.0000     0.6768     3.5278     3.5278     0.0000
 11 H      1.2587     1.0000    -0.2587     1.1423     1.1423    -0.0000
 12 H      1.6717     1.0000    -0.6717     0.9533     0.9533     0.0000
 13 H      1.2994     1.0000    -0.2994     0.7426     0.7426    -0.0000
 14 H      1.1545     1.0000    -0.1545     0.9399     0.9399     0.0000
 15 H      1.1033     1.0000    -0.1033     0.9158     0.9158     0.0000
 16 H      1.1724     1.0000    -0.1724     0.9365     0.9365     0.0000
 17 H      1.0587     1.0000    -0.0587     0.9528     0.9528     0.0000
 18 H      1.1836     1.0000    -0.1836     1.0819     1.0819    -0.0000

  Mayer bond orders larger than 0.100000
B(  0-C ,  1-C ) :   1.0718 B(  0-C ,  2-N ) :   1.0035 B(  0-C ,  3-H ) :   0.1484 
B(  0-C ,  6-H ) :   0.7644 B(  0-C ,  7-H ) :   0.8342 B(  0-C , 13-H ) :  -0.2432 
B(  1-C ,  3-H ) :   0.8968 B(  1-C ,  4-C ) :   1.2810 B(  1-C ,  5-H ) :   0.9663 
B(  1-C ,  6-H ) :   0.1286 B(  1-C , 16-H ) :   0.2594 B(  1-C , 17-H ) :   0.2286 
B(  1-C , 18-H ) :   0.2268 B(  2-N ,  6-H ) :   0.2051 B(  2-N ,  7-H ) :   0.1141 
B(  2-N ,  8-C ) :   0.9340 B(  2-N ,  9-N ) :   0.1652 B(  2-N , 10-C ) :   0.4510 
B(  2-N , 13-H ) :   1.3298 B(  4-C , 16-H ) :   0.7318 B(  4-C , 17-H ) :   0.7223 
B(  4-C , 18-H ) :   0.7697 B(  6-H ,  7-H ) :  -0.1775 B(  8-C ,  9-N ) :   0.9598 
B(  8-C , 10-C ) :   1.7133 B(  8-C , 11-H ) :   0.3233 B(  8-C , 12-H ) :   0.2484 
B(  8-C , 13-H ) :  -0.2894 B(  9-N , 10-C ) :   0.2590 B(  9-N , 14-H ) :   1.0432 
B(  9-N , 15-H ) :   1.1763 B( 10-C , 11-H ) :   0.6356 B( 10-C , 12-H ) :   0.5670 
B( 14-H , 15-H ) :  -0.1435 

-------
TIMINGS
-------

Total SCF time: 0 days 0 hours 0 min 34 sec 

Total time                  ....      34.858 sec
Sum of individual times     ....      34.647 sec  ( 99.4%)

Fock matrix formation       ....      33.141 sec  ( 95.1%)
  Split-RI-J                ....       1.562 sec  (  4.7% of F)
  Chain of spheres X        ....      26.545 sec  ( 80.1% of F)
  XC integration            ....       4.985 sec  ( 15.0% of F)
    Basis function eval.    ....       1.501 sec  ( 30.1% of XC)
    Density eval.           ....       1.259 sec  ( 25.2% of XC)
    XC-Functional eval.     ....       0.359 sec  (  7.2% of XC)
    XC-Potential eval.      ....       1.524 sec  ( 30.6% of XC)
Diagonalization             ....       0.072 sec  (  0.2%)
Density matrix formation    ....       0.005 sec  (  0.0%)
Population analysis         ....       0.011 sec  (  0.0%)
Initial guess               ....       0.234 sec  (  0.7%)
Orbital Transformation      ....       0.000 sec  (  0.0%)
Orbital Orthonormalization  ....       0.000 sec  (  0.0%)
DIIS solution               ....       0.041 sec  (  0.1%)
SOSCF solution              ....       0.052 sec  (  0.1%)
Grid generation             ....       1.092 sec  (  3.1%)

Maximum memory used throughout the entire SCF-calculation: 31.1 MB

-------------------------   --------------------
FINAL SINGLE POINT ENERGY      -306.172832071474
-------------------------   --------------------


                            ***************************************
                            *     ORCA property calculations      *
                            ***************************************

                                    ---------------------
                                    Active property flags
                                    ---------------------
   (+) Dipole Moment


------------------------------------------------------------------------------
                       ORCA ELECTRIC PROPERTIES CALCULATION
------------------------------------------------------------------------------

Dipole Moment Calculation                       ... on
Quadrupole Moment Calculation                   ... off
Polarizability Calculation                      ... off
GBWName                                         ... 14Feb_SVPD_LC_BLYP_C3_wt_wb97_typ1_pos.gbw
Electron density file                           ... 14Feb_SVPD_LC_BLYP_C3_wt_wb97_typ1_pos.scfp
The origin for moment calculation is the CENTER OF MASS  = ( 6.577348,  0.506890 -2.385738)

-------------
DIPOLE MOMENT
-------------
                                X             Y             Z
Electronic contribution:     -2.20836      -2.02077       4.06361
Nuclear contribution   :      1.26608       1.95446      -4.64747
                        -----------------------------------------
Total Dipole Moment    :     -0.94228      -0.06630      -0.58386
                        -----------------------------------------
Magnitude (a.u.)       :      1.11049
Magnitude (Debye)      :      2.82263



--------------------
Rotational spectrum 
--------------------
 
Rotational constants in cm-1:     0.166109     0.049557     0.044716 
Rotational constants in MHz :  4979.835529  1485.675017  1340.540851 

 Dipole components along the rotational axes: 
x,y,z [a.u.] :    -0.330416    -0.990063     0.379186 
x,y,z [Debye]:    -0.839850    -2.516541     0.963814 

 

Timings for individual modules:

Sum of individual times         ...       35.474 sec (=   0.591 min)
GTO integral calculation        ...        0.406 sec (=   0.007 min)   1.1 %
SCF iterations                  ...       35.069 sec (=   0.584 min)  98.9 %
                             ****ORCA TERMINATED NORMALLY****
TOTAL RUN TIME: 0 days 0 hours 0 minutes 35 seconds 814 msec
