
                                        *****************
                                        * O   R   C   A *
                                        *****************

                                            #,                                       
                                            ###                                      
                                            ####                                     
                                            #####                                    
                                            ######                                   
                                           ########,                                 
                                     ,,################,,,,,                         
                               ,,#################################,,                 
                          ,,##########################################,,             
                       ,#########################################, ''#####,          
                    ,#############################################,,   '####,        
                  ,##################################################,,,,####,       
                ,###########''''           ''''###############################       
              ,#####''   ,,,,##########,,,,          '''####'''          '####       
            ,##' ,,,,###########################,,,                        '##       
           ' ,,###''''                  '''############,,,                           
         ,,##''                                '''############,,,,        ,,,,,,###''
      ,#''                                            '''#######################'''  
     '                                                          ''''####''''         
             ,#######,   #######,   ,#######,      ##                                
            ,#'     '#,  ##    ##  ,#'     '#,    #''#        ######   ,####,        
            ##       ##  ##   ,#'  ##            #'  '#       #        #'  '#        
            ##       ##  #######   ##           ,######,      #####,   #    #        
            '#,     ,#'  ##    ##  '#,     ,#' ,#      #,         ##   #,  ,#        
             '#######'   ##     ##  '#######'  #'      '#     #####' # '####'        



                  #######################################################
                  #                        -***-                        #
                  #          Department of theory and spectroscopy      #
                  #    Directorship and core code : Frank Neese         #
                  #        Max Planck Institute fuer Kohlenforschung    #
                  #                Kaiser Wilhelm Platz 1               #
                  #                 D-45470 Muelheim/Ruhr               #
                  #                      Germany                        #
                  #                                                     #
                  #                  All rights reserved                #
                  #                        -***-                        #
                  #######################################################


                         Program Version 5.0.0 -  RELEASE  -
                                (SVN: $Rev: 19529$)
                ($Date: 2021-06-28 11:36:33 +0200 (Mo, 28 Jun 2021) $)


 With contributions from (in alphabetic order):
   Daniel Aravena         : Magnetic Suceptibility
   Michael Atanasov       : Ab Initio Ligand Field Theory (pilot matlab implementation)
   Alexander A. Auer      : GIAO ZORA, VPT2 properties, NMR spectrum
   Ute Becker             : Parallelization
   Giovanni Bistoni       : ED, misc. LED, open-shell LED, HFLD
   Martin Brehm           : Molecular dynamics
   Dmytro Bykov           : SCF Hessian
   Vijay G. Chilkuri      : MRCI spin determinant printing, contributions to CSF-ICE
   Dipayan Datta          : RHF DLPNO-CCSD density
   Achintya Kumar Dutta   : EOM-CC, STEOM-CC
   Dmitry Ganyushin       : Spin-Orbit,Spin-Spin,Magnetic field MRCI
   Miquel Garcia          : C-PCM Hessian, Gaussian charge scheme
   Yang Guo               : DLPNO-NEVPT2, F12-NEVPT2, CIM, IAO-localization
   Andreas Hansen         : Spin unrestricted coupled pair/coupled cluster methods
   Benjamin Helmich-Paris : MC-RPA, TRAH-SCF, COSX integrals
   Lee Huntington         : MR-EOM, pCC
   Robert Izsak           : Overlap fitted RIJCOSX, COSX-SCS-MP3, EOM
   Marcus Kettner         : VPT2
   Christian Kollmar      : KDIIS, OOCD, Brueckner-CCSD(T), CCSD density, CASPT2, CASPT2-K
   Simone Kossmann        : Meta GGA functionals, TD-DFT gradient, OOMP2, MP2 Hessian
   Martin Krupicka        : Initial AUTO-CI
   Lucas Lang             : DCDCAS
   Marvin Lechner         : AUTO-CI (C++ implementation), FIC-MRCC
   Dagmar Lenk            : GEPOL surface, SMD
   Dimitrios Liakos       : Extrapolation schemes; Compound Job, initial MDCI parallelization
   Dimitrios Manganas     : Further ROCIS development; embedding schemes
   Dimitrios Pantazis     : SARC Basis sets
   Anastasios Papadopoulos: AUTO-CI, single reference methods and gradients
   Taras Petrenko         : DFT Hessian,TD-DFT gradient, ASA, ECA, R-Raman, ABS, FL, XAS/XES, NRVS
   Peter Pinski           : DLPNO-MP2, DLPNO-MP2 Gradient
   Christoph Reimann      : Effective Core Potentials
   Marius Retegan         : Local ZFS, SOC
   Christoph Riplinger    : Optimizer, TS searches, QM/MM, DLPNO-CCSD(T), (RO)-DLPNO pert. Triples
   Tobias Risthaus        : Range-separated hybrids, TD-DFT gradient, RPA, STAB
   Michael Roemelt        : Original ROCIS implementation
   Masaaki Saitow         : Open-shell DLPNO-CCSD energy and density
   Barbara Sandhoefer     : DKH picture change effects
   Avijit Sen             : IP-ROCIS
   Kantharuban Sivalingam : CASSCF convergence, NEVPT2, FIC-MRCI
   Bernardo de Souza      : ESD, SOC TD-DFT
   Georgi Stoychev        : AutoAux, RI-MP2 NMR
   Willem Van den Heuvel  : Paramagnetic NMR
   Boris Wezisla          : Elementary symmetry handling
   Frank Wennmohs         : Technical directorship


 We gratefully acknowledge several colleagues who have allowed us to
 interface, adapt or use parts of their codes:
   Stefan Grimme, W. Hujo, H. Kruse, P. Pracht,  : VdW corrections, initial TS optimization,
                  C. Bannwarth, S. Ehlert          DFT functionals, gCP, sTDA/sTD-DF
   Ed Valeev, F. Pavosevic, A. Kumar             : LibInt (2-el integral package), F12 methods
   Garnet Chan, S. Sharma, J. Yang, R. Olivares  : DMRG
   Ulf Ekstrom                                   : XCFun DFT Library
   Mihaly Kallay                                 : mrcc  (arbitrary order and MRCC methods)
   Jiri Pittner, Ondrej Demel                    : Mk-CCSD
   Frank Weinhold                                : gennbo (NPA and NBO analysis)
   Christopher J. Cramer and Donald G. Truhlar   : smd solvation model
   Lars Goerigk                                  : TD-DFT with DH, B97 family of functionals
   V. Asgeirsson, H. Jonsson                     : NEB implementation
   FAccTs GmbH                                   : IRC, NEB, NEB-TS, DLPNO-Multilevel, CI-OPT
                                                   MM, QMMM, 2- and 3-layer-ONIOM, Crystal-QMMM,
                                                   LR-CPCM, SF, NACMEs, symmetry and pop. for TD-DFT,
                                                   nearIR, NL-DFT gradient (VV10), updates on ESD,
                                                   ML-optimized integration grids
   S Lehtola, MJT Oliveira, MAL Marques          : LibXC Library
   Liviu Ungur et al                             : ANISO software


 Your calculation uses the libint2 library for the computation of 2-el integrals
 For citations please refer to: http://libint.valeyev.net

 Your ORCA version has been built with support for libXC version: 5.1.0
 For citations please refer to: https://tddft.org/programs/libxc/

 This ORCA versions uses:
   CBLAS   interface :  Fast vector & matrix operations
   LAPACKE interface :  Fast linear algebra routines
   SCALAPACK package :  Parallel linear algebra routines
   Shared memory     :  Shared parallel matrices
   BLAS/LAPACK       :  OpenBLAS 0.3.15  USE64BITINT DYNAMIC_ARCH NO_AFFINITY Haswell SINGLE_THREADED
        Core in use  :  Haswell
   Copyright (c) 2011-2014, The OpenBLAS Project


================================================================================

----- Orbital basis set information -----
Your calculation utilizes the basis: def2-SVPD
   F. Weigend and R. Ahlrichs, Phys. Chem. Chem. Phys. 7, 3297 (2005).
   D. Rappoport and F. Furche, J. Chem. Phys. 133 134105 (2010).

----- AuxJ basis set information -----
Your calculation utilizes the auxiliary basis: def2/J
   F. Weigend, Phys. Chem. Chem. Phys. 8, 1057 (2006).

================================================================================
                                        WARNINGS
                       Please study these warnings very carefully!
================================================================================


INFO   : the flag for use of the SHARK integral package has been found!

================================================================================
                                       INPUT FILE
================================================================================
NAME = SVPD_LC_PBE_C2_wt_dlpno_pos.com
|  1> !LC-PBE RIJCOSX def2-SVPD def2/J TightSCF
|  2> *xyz 0 1 
|  3> C          3.48828        1.60092       -1.52204
|  4> C          4.34297        1.31342       -2.75683
|  5> N          2.81029        0.42878       -1.01420
|  6> H          2.71455        2.33145       -1.76030
|  7> H          4.09099        2.06315       -0.73338
|  8> C          3.29098       -0.41802       -0.12908
|  9> C          2.51754       -1.43202        0.23936
| 10> N          4.53549       -0.28441        0.39580
| 11> H          5.04363        0.57189        0.22290
| 12> H          4.72335       -0.73327        1.28180
| 13> H          1.93479        0.10230       -1.40379
| 14> H          1.67464       -1.50562       -0.31610
| 15> H          2.92850       -2.21850        0.72549
| 16> H          3.73575        0.86277       -3.51385
| 17> H          5.13754        0.64699       -2.49333
| 18> H          4.75374        2.22930       -3.12740
| 19> *
| 20> %MaxCore 64000
| 21> 
| 22> %pal nprocs 4
| 23> end  
| 24> 
| 25> %scf
| 26>   MaxIter 150
| 27> end
| 28> 
| 29> 
| 30>                          ****END OF INPUT****
================================================================================

                       ****************************
                       * Single Point Calculation *
                       ****************************

---------------------------------
CARTESIAN COORDINATES (ANGSTROEM)
---------------------------------
  C      3.488280    1.600920   -1.522040
  C      4.342970    1.313420   -2.756830
  N      2.810290    0.428780   -1.014200
  H      2.714550    2.331450   -1.760300
  H      4.090990    2.063150   -0.733380
  C      3.290980   -0.418020   -0.129080
  C      2.517540   -1.432020    0.239360
  N      4.535490   -0.284410    0.395800
  H      5.043630    0.571890    0.222900
  H      4.723350   -0.733270    1.281800
  H      1.934790    0.102300   -1.403790
  H      1.674640   -1.505620   -0.316100
  H      2.928500   -2.218500    0.725490
  H      3.735750    0.862770   -3.513850
  H      5.137540    0.646990   -2.493330
  H      4.753740    2.229300   -3.127400

----------------------------
CARTESIAN COORDINATES (A.U.)
----------------------------
  NO LB      ZA    FRAG     MASS         X           Y           Z
   0 C     6.0000    0    12.011    6.591894    3.025300   -2.876239
   1 C     6.0000    0    12.011    8.207024    2.482004   -5.209654
   2 N     7.0000    0    14.007    5.310678    0.810277   -1.916560
   3 H     1.0000    0     1.008    5.129756    4.405802   -3.326485
   4 H     1.0000    0     1.008    7.730851    3.898788   -1.385887
   5 C     6.0000    0    12.011    6.219051   -0.789943   -0.243926
   6 C     6.0000    0    12.011    4.757461   -2.706126    0.452325
   7 N     7.0000    0    14.007    8.570834   -0.537457    0.747954
   8 H     1.0000    0     1.008    9.531079    1.080715    0.421220
   9 H     1.0000    0     1.008    8.925838   -1.385679    2.422251
  10 H     1.0000    0     1.008    3.656223    0.193319   -2.652779
  11 H     1.0000    0     1.008    3.164611   -2.845209   -0.597342
  12 H     1.0000    0     1.008    5.534063   -4.192357    1.370977
  13 H     1.0000    0     1.008    7.059544    1.630399   -6.640214
  14 H     1.0000    0     1.008    9.708544    1.222634   -4.711711
  15 H     1.0000    0     1.008    8.983267    4.212766   -5.909930

--------------------------------
INTERNAL COORDINATES (ANGSTROEM)
--------------------------------
 C      0   0   0     0.000000000000     0.00000000     0.00000000
 C      1   0   0     1.529005425170     0.00000000     0.00000000
 N      1   2   0     1.446196420027   113.15647526     0.00000000
 H      1   2   3     1.090458628926   110.25141732   240.62087931
 H      1   2   3     1.094943154963   110.69312197   124.42402746
 C      3   1   2     1.315891534474   125.91025238    89.02804164
 C      6   3   1     1.327461286516   117.73705795   178.95874270
 N      6   3   1     1.357260397492   122.12206254   358.50918587
 H      8   6   3     1.010618800340   118.57313099    10.64293628
 H      8   6   3     1.010822773388   117.75308784   158.14426892
 H      3   1   2     1.012358537525   122.11879420   277.16183776
 H      7   6   3     1.012142866200   112.85787808     8.15033951
 H      7   6   3     1.011810895820   119.37039034   164.55796622
 H      2   1   3     1.069991042626   109.47111053    55.57571307
 H      2   1   3     1.070001252242   109.47109385   295.57609862
 H      2   1   3     1.069995463635   109.47117180   175.57637373

---------------------------
INTERNAL COORDINATES (A.U.)
---------------------------
 C      0   0   0     0.000000000000     0.00000000     0.00000000
 C      1   0   0     2.889401510852     0.00000000     0.00000000
 N      1   2   0     2.732915169709   113.15647526     0.00000000
 H      1   2   3     2.060668169042   110.25141732   240.62087931
 H      1   2   3     2.069142695091   110.69312197   124.42402746
 C      3   1   2     2.486674622101   125.91025238    89.02804164
 C      6   3   1     2.508538284899   117.73705795   178.95874270
 N      6   3   1     2.564850443677   122.12206254   358.50918587
 H      8   6   3     1.909792758434   118.57313099    10.64293628
 H      8   6   3     1.910178211634   117.75308784   158.14426892
 H      3   1   2     1.913080385260   122.11879420   277.16183776
 H      7   6   3     1.912672825521   112.85787808     8.15033951
 H      7   6   3     1.912045492417   119.37039034   164.55796622
 H      2   1   3     2.021990036312   109.47111053    55.57571307
 H      2   1   3     2.022009329691   109.47109385   295.57609862
 H      2   1   3     2.021998390809   109.47117180   175.57637373

---------------------
BASIS SET INFORMATION
---------------------
There are 3 groups of distinct atoms

 Group   1 Type C   : 8s4p2d contracted to 4s2p2d pattern {5111/31/11}
 Group   2 Type N   : 8s4p2d contracted to 4s2p2d pattern {5111/31/11}
 Group   3 Type H   : 4s2p contracted to 2s2p pattern {31/11}

Atom   0C    basis set group =>   1
Atom   1C    basis set group =>   1
Atom   2N    basis set group =>   2
Atom   3H    basis set group =>   3
Atom   4H    basis set group =>   3
Atom   5C    basis set group =>   1
Atom   6C    basis set group =>   1
Atom   7N    basis set group =>   2
Atom   8H    basis set group =>   3
Atom   9H    basis set group =>   3
Atom  10H    basis set group =>   3
Atom  11H    basis set group =>   3
Atom  12H    basis set group =>   3
Atom  13H    basis set group =>   3
Atom  14H    basis set group =>   3
Atom  15H    basis set group =>   3
---------------------------------
AUXILIARY/J BASIS SET INFORMATION
---------------------------------
There are 3 groups of distinct atoms

 Group   1 Type C   : 12s5p4d2f1g contracted to 6s4p3d1f1g pattern {711111/2111/211/2/1}
 Group   2 Type N   : 12s5p4d2f1g contracted to 6s4p3d1f1g pattern {711111/2111/211/2/1}
 Group   3 Type H   : 5s2p1d contracted to 3s1p1d pattern {311/2/1}

Atom   0C    basis set group =>   1
Atom   1C    basis set group =>   1
Atom   2N    basis set group =>   2
Atom   3H    basis set group =>   3
Atom   4H    basis set group =>   3
Atom   5C    basis set group =>   1
Atom   6C    basis set group =>   1
Atom   7N    basis set group =>   2
Atom   8H    basis set group =>   3
Atom   9H    basis set group =>   3
Atom  10H    basis set group =>   3
Atom  11H    basis set group =>   3
Atom  12H    basis set group =>   3
Atom  13H    basis set group =>   3
Atom  14H    basis set group =>   3
Atom  15H    basis set group =>   3


           ************************************************************
           *        Program running with 4 parallel MPI-processes     *
           *              working on a common directory               *
           ************************************************************
------------------------------------------------------------------------------
                           ORCA GTO INTEGRAL CALCULATION
                           -- RI-GTO INTEGRALS CHOSEN --
------------------------------------------------------------------------------
------------------------------------------------------------------------------
                   ___                                                        
                  /   \      - P O W E R E D   B Y -                         
                 /     \                                                     
                 |  |  |   _    _      __       _____    __    __             
                 |  |  |  | |  | |    /  \     |  _  \  |  |  /  |          
                  \  \/   | |  | |   /    \    | | | |  |  | /  /          
                 / \  \   | |__| |  /  /\  \   | |_| |  |  |/  /          
                |  |  |   |  __  | /  /__\  \  |    /   |      \           
                |  |  |   | |  | | |   __   |  |    \   |  |\   \          
                \     /   | |  | | |  |  |  |  | |\  \  |  | \   \       
                 \___/    |_|  |_| |__|  |__|  |_| \__\ |__|  \__/        
                                                                              
                      - O R C A' S   B I G   F R I E N D -                    
                                      &                                       
                       - I N T E G R A L  F E E D E R -                       
                                                                              
 v1 FN, 2020, v2 2021                                                         
------------------------------------------------------------------------------


Reading SHARK input file SVPD_LC_PBE_C2_wt_dlpno_pos.SHARKINP.tmp ... ok
----------------------
SHARK INTEGRAL PACKAGE
----------------------

Number of atoms                             ...     16
Number of basis functions                   ...    200
Number of shells                            ...     88
Maximum angular momentum                    ...      2
Integral batch strategy                     ... SHARK/LIBINT Hybrid
RI-J (if used) integral strategy            ... SPLIT-RIJ (Revised 2003 algorithm where possible)
Printlevel                                  ...      1
Contraction scheme used                     ... SEGMENTED contraction
Coulomb Range Separation                    ... NOT USED
Exchange Range Separation                   ... Long Range
   Mu parameter                             ...  0.470000
   Scaling (regular/separated)              ...  0.000000  1.000000
Finite Nucleus Model                        ... NOT USED
Auxiliary Coulomb fitting basis             ... AVAILABLE
   # of basis functions in Aux-J            ...    404
   # of shells in Aux-J                     ...    140
   Maximum angular momentum in Aux-J        ...      4
Auxiliary J/K fitting basis                 ... NOT available
Auxiliary Correlation fitting basis         ... NOT available
Auxiliary 'external' fitting basis          ... NOT available
Integral threshold                          ...     2.500000e-11
Primitive cut-off                           ...     2.500000e-12
Primitive pair pre-selection threshold      ...     2.500000e-12

Calculating pre-screening integrals         ... done (  0.0 sec) Dimension = 88
Organizing shell pair data                  ... done (  0.0 sec)
Shell pair information
Total number of shell pairs                 ...      3916
Shell pairs after pre-screening             ...      3843
Total number of primitive shell pairs       ...     10548
Primitive shell pairs kept                  ...      8631
          la=0 lb=0:    967 shell pairs
          la=1 lb=0:   1379 shell pairs
          la=1 lb=1:    516 shell pairs
          la=2 lb=0:    521 shell pairs
          la=2 lb=1:    382 shell pairs
          la=2 lb=2:     78 shell pairs

Calculating one electron integrals          ... done (  0.0 sec)
Calculating RI/J V-Matrix + Cholesky decomp.... done (  0.0 sec)
Calculating Nuclear repulsion               ... done (  0.0 sec) ENN=    249.867139283192 Eh

SHARK setup successfully completed in   0.2 seconds

Maximum memory used throughout the entire GTOINT-calculation: 8.9 MB


           ************************************************************
           *        Program running with 4 parallel MPI-processes     *
           *              working on a common directory               *
           ************************************************************
-------------------------------------------------------------------------------
                                 ORCA SCF
-------------------------------------------------------------------------------

------------
SCF SETTINGS
------------
Hamiltonian:
 Density Functional     Method          .... DFT(GTOs)
 Exchange Functional    Exchange        .... LC-PBE
 Correlation Functional Correlation     .... PBE
   PBE beta parameter  CBetaPBE         ....  0.066725
 LDA part of GGA corr.  LDAOpt          .... PW91-LDA
 Gradients option       PostSCFGGA      .... off
   Density functional embedding theory  .... OFF
 Long-range corrected/Screened/Range-Separated Hybrid DFT is turned on
   Amount of maximum screened exact exchange              ....  1.000000
   Range separation parameter mu (erf(mu*r12)/r12)        ....  0.470000
   NL short-range parameter             ....  6.400000
 RI-approximation to the Coulomb term is turned on
   Number of AuxJ basis functions       .... 404
   RIJ-COSX (HFX calculated with COS-X)).... on


General Settings:
 Integral files         IntName         .... SVPD_LC_PBE_C2_wt_dlpno_pos
 Hartree-Fock type      HFTyp           .... RHF
 Total Charge           Charge          ....    0
 Multiplicity           Mult            ....    1
 Number of Electrons    NEL             ....   48
 Basis Dimension        Dim             ....  200
 Nuclear Repulsion      ENuc            ....    249.8671392832 Eh

Convergence Acceleration:
 DIIS                   CNVDIIS         .... on
   Start iteration      DIISMaxIt       ....    12
   Startup error        DIISStart       ....  0.200000
   # of expansion vecs  DIISMaxEq       ....     5
   Bias factor          DIISBfac        ....   1.050
   Max. coefficient     DIISMaxC        ....  10.000
 Trust-Rad. Augm. Hess. CNVTRAH         .... auto
   Auto Start mean grad. ratio tolernc. ....  1.125000
   Auto Start start iteration           ....    20
   Auto Start num. interpolation iter.  ....    10
   Max. Number of Micro iterations      ....    16
   Max. Number of Macro iterations      .... Maxiter - #DIIS iter
   Number of Davidson start vectors     ....     2
   Converg. threshold I  (grad. norm)   ....   1.000e-05
   Converg. threshold II (energy diff.) ....   1.000e-08
   Grad. Scal. Fac. for Micro threshold ....   0.100
   Minimum threshold for Micro iter.    ....   0.010
   NR start threshold (gradient norm)   ....   0.001
   Initial trust radius                 ....   0.400
   Minimum AH scaling param. (alpha)    ....   1.000
   Maximum AH scaling param. (alpha)    .... 1000.000
   Orbital update algorithm             .... Taylor
   White noise on init. David. guess    .... on
   Maximum white noise                  ....   0.010
   Quad. conv. algorithm                .... NR
 SOSCF                  CNVSOSCF        .... on
   Start iteration      SOSCFMaxIt      ....   150
   Startup grad/error   SOSCFStart      ....  0.003300
 Level Shifting         CNVShift        .... on
   Level shift para.    LevelShift      ....    0.2500
   Turn off err/grad.   ShiftErr        ....    0.0010
 Zerner damping         CNVZerner       .... off
 Static damping         CNVDamp         .... on
   Fraction old density DampFac         ....    0.7000
   Max. Damping (<1)    DampMax         ....    0.9800
   Min. Damping (>=0)   DampMin         ....    0.0000
   Turn off err/grad.   DampErr         ....    0.1000
 Fernandez-Rico         CNVRico         .... off

SCF Procedure:
 Maximum # iterations   MaxIter         ....   150
 SCF integral mode      SCFMode         .... Direct
   Integral package                     .... SHARK and LIBINT hybrid scheme
 Reset frequency        DirectResetFreq ....    20
 Integral Threshold     Thresh          ....  2.500e-11 Eh
 Primitive CutOff       TCut            ....  2.500e-12 Eh

Convergence Tolerance:
 Convergence Check Mode ConvCheckMode   .... Total+1el-Energy
 Convergence forced     ConvForced      .... 0
 Energy Change          TolE            ....  1.000e-08 Eh
 1-El. energy change                    ....  1.000e-05 Eh
 Orbital Gradient       TolG            ....  1.000e-05
 Orbital Rotation angle TolX            ....  1.000e-05
 DIIS Error             TolErr          ....  5.000e-07


Diagonalization of the overlap matrix:
Smallest eigenvalue                        ... 6.452e-05
Time for diagonalization                   ...    0.011 sec
Threshold for overlap eigenvalues          ... 1.000e-08
Number of eigenvalues below threshold      ... 0
Time for construction of square roots      ...    0.007 sec
Total time needed                          ...    0.019 sec

Time for model grid setup =    0.153 sec

------------------------------
INITIAL GUESS: MODEL POTENTIAL
------------------------------
Loading Hartree-Fock densities                     ... done
Calculating cut-offs                               ... done
Initializing the effective Hamiltonian             ... done
Setting up the integral package (SHARK)            ... done
Starting the Coulomb interaction                   ... done (   0.1 sec)
Reading the grid                                   ... done
Mapping shells                                     ... done
Starting the XC term evaluation                    ... done (   0.2 sec)
  promolecular density results
     # of electrons  =     47.992204362
     EX              =    -25.446652995
     EC              =     -1.577436499
     EX+EC           =    -27.024089495
Transforming the Hamiltonian                       ... done (   0.0 sec)
Diagonalizing the Hamiltonian                      ... done (   0.0 sec)
Back transforming the eigenvectors                 ... done (   0.0 sec)
Now organizing SCF variables                       ... done
                      ------------------
                      INITIAL GUESS DONE (   0.4 sec)
                      ------------------
-------------------
DFT GRID GENERATION
-------------------

General Integration Accuracy     IntAcc      ... 4.388
Radial Grid Type                 RadialGrid  ... OptM3 with GC (2021)
Angular Grid (max. ang.)         AngularGrid ... 4 (Lebedev-302)
Angular grid pruning method      GridPruning ... 4 (adaptive)
Weight generation scheme         WeightScheme... Becke
Basis function cutoff            BFCut       ... 1.0000e-11
Integration weight cutoff        WCut        ... 1.0000e-14
Angular grids for H and He will be reduced by one unit
Partially contracted basis set               ... off
Rotationally invariant grid construction     ... off

Total number of grid points                  ...    70338
Total number of batches                      ...     1106
Average number of points per batch           ...       63
Average number of grid points per atom       ...     4396
Time for grid setup =    0.496 sec

--------------------
COSX GRID GENERATION
--------------------

GRIDX 1
-------
General Integration Accuracy     IntAcc      ... 3.816
Radial Grid Type                 RadialGrid  ... OptM3 with GC (2021)
Angular Grid (max. ang.)         AngularGrid ... 1 (Lebedev-50)
Angular grid pruning method      GridPruning ... 4 (adaptive)
Weight generation scheme         WeightScheme... Becke
Basis function cutoff            BFCut       ... 1.0000e-11
Integration weight cutoff        WCut        ... 1.0000e-14
Angular grids for H and He will be reduced by one unit
Partially contracted basis set               ... on
Rotationally invariant grid construction     ... off

Total number of grid points                  ...     8805
Total number of batches                      ...      147
Average number of points per batch           ...       59
Average number of grid points per atom       ...      550
UseSFitting                                  ... on

GRIDX 2
-------
General Integration Accuracy     IntAcc      ... 4.020
Radial Grid Type                 RadialGrid  ... OptM3 with GC (2021)
Angular Grid (max. ang.)         AngularGrid ... 2 (Lebedev-110)
Angular grid pruning method      GridPruning ... 4 (adaptive)
Weight generation scheme         WeightScheme... Becke
Basis function cutoff            BFCut       ... 1.0000e-11
Integration weight cutoff        WCut        ... 1.0000e-14
Angular grids for H and He will be reduced by one unit
Partially contracted basis set               ... on
Rotationally invariant grid construction     ... off

Total number of grid points                  ...    19300
Total number of batches                      ...      312
Average number of points per batch           ...       61
Average number of grid points per atom       ...     1206
UseSFitting                                  ... on

GRIDX 3
-------
General Integration Accuracy     IntAcc      ... 4.338
Radial Grid Type                 RadialGrid  ... OptM3 with GC (2021)
Angular Grid (max. ang.)         AngularGrid ... 3 (Lebedev-194)
Angular grid pruning method      GridPruning ... 4 (adaptive)
Weight generation scheme         WeightScheme... Becke
Basis function cutoff            BFCut       ... 1.0000e-11
Integration weight cutoff        WCut        ... 1.0000e-14
Angular grids for H and He will be reduced by one unit
Partially contracted basis set               ... on
Rotationally invariant grid construction     ... off

Total number of grid points                  ...    44138
Total number of batches                      ...      697
Average number of points per batch           ...       63
Average number of grid points per atom       ...     2759
UseSFitting                                  ... on

Time for X-Grid setup             =    0.438 sec

--------------
SCF ITERATIONS
--------------
ITER       Energy         Delta-E        Max-DP      RMS-DP      [F,P]     Damp
               ***  Starting incremental Fock matrix formation  ***
  0   -266.7362860303   0.000000000000 0.14185589  0.00253185  0.1525324 0.7000
  1   -266.7796070307  -0.043321000367 0.11595459  0.00189824  0.0878961 0.7000
                               ***Turning on DIIS***
  2   -266.8033826444  -0.023775613733 0.28047418  0.00432513  0.0416355 0.0000
  3   -266.8446451657  -0.041262521251 0.07887172  0.00113611  0.0408516 0.0000
  4   -266.8500071437  -0.005361977980 0.03033847  0.00047592  0.0049617 0.0000
                      *** Initiating the SOSCF procedure ***
                           *** Shutting down DIIS ***
                      *** Re-Reading the Fockian *** 
                      *** Removing any level shift *** 
ITER      Energy       Delta-E        Grad      Rot      Max-DP    RMS-DP
  5   -266.85037708  -0.0003699349  0.002460  0.002460  0.020152  0.000264
               *** Restarting incremental Fock matrix formation ***
  6   -266.85039784  -0.0000207640  0.001356  0.003102  0.007127  0.000167
  7   -266.85042513  -0.0000272864  0.000484  0.002733  0.006366  0.000144
  8   -266.85043259  -0.0000074612  0.000102  0.000212  0.002799  0.000045
  9   -266.85043376  -0.0000011686  0.000026  0.000086  0.000697  0.000013
 10   -266.85043383  -0.0000000705  0.000015  0.000051  0.000087  0.000002
 11   -266.85043384  -0.0000000142  0.000003  0.000014  0.000176  0.000002
                  ***Gradient check signals convergence***
              ***Rediagonalizing the Fockian in SOSCF/NRSCF***

               *****************************************************
               *                     SUCCESS                       *
               *           SCF CONVERGED AFTER  12 CYCLES          *
               *****************************************************


----------------
TOTAL SCF ENERGY
----------------

Total Energy       :         -266.85043384 Eh           -7261.36947 eV

Components:
Nuclear Repulsion  :          249.86713928 Eh            6799.23053 eV
Electronic Energy  :         -516.71757313 Eh          -14060.59999 eV
One Electron Energy:         -855.01582510 Eh          -23266.16343 eV
Two Electron Energy:          338.29825198 Eh            9205.56344 eV
Max COSX asymmetry :            0.00000853 Eh               0.00023 eV

Virial components:
Potential Energy   :         -531.32289097 Eh          -14458.03090 eV
Kinetic Energy     :          264.47245713 Eh            7196.66143 eV
Virial Ratio       :            2.00899140


DFT components:
N(Alpha)           :       24.000055205580 electrons
N(Beta)            :       24.000055205580 electrons
N(Total)           :       48.000110411160 electrons
E(X)               :      -26.030654142005 Eh       
E(C)               :       -1.591860909410 Eh       
E(XC)              :      -27.622515051414 Eh       
DFET-embed. en.    :        0.000000000000 Eh       

---------------
SCF CONVERGENCE
---------------

  Last Energy change         ...    4.8686e-10  Tolerance :   1.0000e-08
  Last MAX-Density change    ...    3.2856e-05  Tolerance :   1.0000e-07
  Last RMS-Density change    ...    7.0546e-07  Tolerance :   5.0000e-09
  Last Orbital Gradient      ...    1.4336e-06  Tolerance :   1.0000e-05
  Last Orbital Rotation      ...    3.1860e-06  Tolerance :   1.0000e-05

             **** THE GBW FILE WAS UPDATED (SVPD_LC_PBE_C2_wt_dlpno_pos.gbw) ****
             **** DENSITY SVPD_LC_PBE_C2_wt_dlpno_pos.scfp WAS UPDATED ****
             **** ENERGY FILE WAS UPDATED (SVPD_LC_PBE_C2_wt_dlpno_pos.en.tmp) ****
             **** THE GBW FILE WAS UPDATED (SVPD_LC_PBE_C2_wt_dlpno_pos.gbw) ****
             **** DENSITY SVPD_LC_PBE_C2_wt_dlpno_pos.scfp WAS UPDATED ****
----------------
ORBITAL ENERGIES
----------------

  NO   OCC          E(Eh)            E(eV) 
   0   2.0000     -14.232047      -387.2737 
   1   2.0000     -14.229898      -387.2152 
   2   2.0000     -10.178419      -276.9689 
   3   2.0000     -10.171672      -276.7853 
   4   2.0000     -10.117807      -275.3195 
   5   2.0000     -10.035098      -273.0689 
   6   2.0000      -1.141997       -31.0753 
   7   2.0000      -1.047228       -28.4965 
   8   2.0000      -0.946705       -25.7611 
   9   2.0000      -0.866558       -23.5802 
  10   2.0000      -0.787882       -21.4393 
  11   2.0000      -0.752384       -20.4734 
  12   2.0000      -0.687110       -18.6972 
  13   2.0000      -0.648144       -17.6369 
  14   2.0000      -0.620822       -16.8934 
  15   2.0000      -0.582495       -15.8505 
  16   2.0000      -0.577547       -15.7159 
  17   2.0000      -0.544503       -14.8167 
  18   2.0000      -0.513732       -13.9794 
  19   2.0000      -0.506741       -13.7891 
  20   2.0000      -0.503407       -13.6984 
  21   2.0000      -0.487936       -13.2774 
  22   2.0000      -0.390711       -10.6318 
  23   2.0000      -0.280609        -7.6358 
  24   0.0000       0.083780         2.2798 
  25   0.0000       0.113577         3.0906 
  26   0.0000       0.117826         3.2062 
  27   0.0000       0.121434         3.3044 
  28   0.0000       0.152981         4.1628 
  29   0.0000       0.156996         4.2721 
  30   0.0000       0.167686         4.5630 
  31   0.0000       0.168168         4.5761 
  32   0.0000       0.193681         5.2703 
  33   0.0000       0.195552         5.3212 
  34   0.0000       0.212146         5.7728 
  35   0.0000       0.220444         5.9986 
  36   0.0000       0.224688         6.1141 
  37   0.0000       0.238237         6.4828 
  38   0.0000       0.250477         6.8158 
  39   0.0000       0.259142         7.0516 
  40   0.0000       0.270833         7.3697 
  41   0.0000       0.274327         7.4648 
  42   0.0000       0.286536         7.7970 
  43   0.0000       0.298465         8.1216 
  44   0.0000       0.312629         8.5071 
  45   0.0000       0.325727         8.8635 
  46   0.0000       0.334583         9.1045 
  47   0.0000       0.338016         9.1979 
  48   0.0000       0.349917         9.5217 
  49   0.0000       0.363079         9.8799 
  50   0.0000       0.370460        10.0807 
  51   0.0000       0.378355        10.2956 
  52   0.0000       0.388149        10.5621 
  53   0.0000       0.400227        10.8907 
  54   0.0000       0.405355        11.0303 
  55   0.0000       0.415440        11.3047 
  56   0.0000       0.418988        11.4013 
  57   0.0000       0.425427        11.5764 
  58   0.0000       0.429597        11.6899 
  59   0.0000       0.442920        12.0525 
  60   0.0000       0.447773        12.1845 
  61   0.0000       0.451408        12.2834 
  62   0.0000       0.460334        12.5263 
  63   0.0000       0.469566        12.7775 
  64   0.0000       0.472437        12.8557 
  65   0.0000       0.475289        12.9333 
  66   0.0000       0.481874        13.1125 
  67   0.0000       0.490811        13.3556 
  68   0.0000       0.510507        13.8916 
  69   0.0000       0.521977        14.2037 
  70   0.0000       0.528476        14.3805 
  71   0.0000       0.536606        14.6018 
  72   0.0000       0.539901        14.6915 
  73   0.0000       0.545937        14.8557 
  74   0.0000       0.550041        14.9674 
  75   0.0000       0.558887        15.2081 
  76   0.0000       0.563476        15.3330 
  77   0.0000       0.578840        15.7510 
  78   0.0000       0.582136        15.8407 
  79   0.0000       0.588639        16.0177 
  80   0.0000       0.592731        16.1290 
  81   0.0000       0.599384        16.3101 
  82   0.0000       0.611290        16.6341 
  83   0.0000       0.628665        17.1068 
  84   0.0000       0.636773        17.3275 
  85   0.0000       0.641755        17.4630 
  86   0.0000       0.664013        18.0687 
  87   0.0000       0.665767        18.1165 
  88   0.0000       0.671376        18.2691 
  89   0.0000       0.685708        18.6591 
  90   0.0000       0.690859        18.7992 
  91   0.0000       0.714328        19.4378 
  92   0.0000       0.725149        19.7323 
  93   0.0000       0.738295        20.0900 
  94   0.0000       0.741069        20.1655 
  95   0.0000       0.762462        20.7476 
  96   0.0000       0.781477        21.2651 
  97   0.0000       0.791161        21.5286 
  98   0.0000       0.813081        22.1251 
  99   0.0000       0.816132        22.2081 
 100   0.0000       0.834673        22.7126 
 101   0.0000       0.837313        22.7844 
 102   0.0000       0.862464        23.4688 
 103   0.0000       0.879456        23.9312 
 104   0.0000       0.917184        24.9578 
 105   0.0000       0.940638        25.5961 
 106   0.0000       0.971419        26.4337 
 107   0.0000       0.991474        26.9794 
 108   0.0000       1.030614        28.0444 
 109   0.0000       1.061484        28.8844 
 110   0.0000       1.079471        29.3739 
 111   0.0000       1.088033        29.6069 
 112   0.0000       1.108937        30.1757 
 113   0.0000       1.127640        30.6846 
 114   0.0000       1.132005        30.8034 
 115   0.0000       1.139285        31.0015 
 116   0.0000       1.173228        31.9252 
 117   0.0000       1.198197        32.6046 
 118   0.0000       1.208693        32.8902 
 119   0.0000       1.225988        33.3608 
 120   0.0000       1.227679        33.4069 
 121   0.0000       1.247969        33.9590 
 122   0.0000       1.275730        34.7144 
 123   0.0000       1.280695        34.8495 
 124   0.0000       1.313617        35.7453 
 125   0.0000       1.332120        36.2488 
 126   0.0000       1.360760        37.0282 
 127   0.0000       1.376737        37.4629 
 128   0.0000       1.398136        38.0452 
 129   0.0000       1.432012        38.9670 
 130   0.0000       1.464893        39.8618 
 131   0.0000       1.502966        40.8978 
 132   0.0000       1.539413        41.8896 
 133   0.0000       1.598072        43.4858 
 134   0.0000       1.651963        44.9522 
 135   0.0000       1.708782        46.4983 
 136   0.0000       1.722366        46.8680 
 137   0.0000       1.739047        47.3219 
 138   0.0000       1.743469        47.4422 
 139   0.0000       1.790624        48.7254 
 140   0.0000       1.817544        49.4579 
 141   0.0000       1.838817        50.0367 
 142   0.0000       1.872185        50.9448 
 143   0.0000       1.885016        51.2939 
 144   0.0000       1.911089        52.0034 
 145   0.0000       1.916508        52.1508 
 146   0.0000       1.951085        53.0917 
 147   0.0000       1.983108        53.9631 
 148   0.0000       1.991022        54.1785 
 149   0.0000       2.018864        54.9361 
 150   0.0000       2.028485        55.1979 
 151   0.0000       2.048395        55.7397 
 152   0.0000       2.076871        56.5145 
 153   0.0000       2.107255        57.3413 
 154   0.0000       2.124025        57.7977 
 155   0.0000       2.133415        58.0532 
 156   0.0000       2.171137        59.0796 
 157   0.0000       2.176647        59.2296 
 158   0.0000       2.206424        60.0398 
 159   0.0000       2.218128        60.3583 
 160   0.0000       2.230625        60.6984 
 161   0.0000       2.245410        61.1007 
 162   0.0000       2.274589        61.8947 
 163   0.0000       2.294070        62.4248 
 164   0.0000       2.329563        63.3906 
 165   0.0000       2.357952        64.1631 
 166   0.0000       2.366543        64.3969 
 167   0.0000       2.392269        65.0970 
 168   0.0000       2.445911        66.5566 
 169   0.0000       2.457193        66.8636 
 170   0.0000       2.483449        67.5781 
 171   0.0000       2.510297        68.3087 
 172   0.0000       2.563464        69.7554 
 173   0.0000       2.579710        70.1975 
 174   0.0000       2.612932        71.1015 
 175   0.0000       2.635827        71.7245 
 176   0.0000       2.671032        72.6825 
 177   0.0000       2.711582        73.7859 
 178   0.0000       2.752004        74.8858 
 179   0.0000       2.773367        75.4672 
 180   0.0000       2.784847        75.7795 
 181   0.0000       2.815914        76.6249 
 182   0.0000       2.873768        78.1992 
 183   0.0000       2.902269        78.9748 
 184   0.0000       2.962379        80.6104 
 185   0.0000       2.997338        81.5617 
 186   0.0000       3.071635        83.5834 
 187   0.0000       3.142304        85.5064 
 188   0.0000       3.188657        86.7678 
 189   0.0000       3.234600        88.0179 
 190   0.0000       3.258229        88.6609 
 191   0.0000       3.309761        90.0632 
 192   0.0000       3.346113        91.0524 
 193   0.0000       3.389935        92.2448 
 194   0.0000       3.409534        92.7781 
 195   0.0000       3.460320        94.1601 
 196   0.0000       3.470516        94.4375 
 197   0.0000       3.624096        98.6167 
 198   0.0000       3.797917       103.3466 
 199   0.0000       3.861019       105.0637 

                    ********************************
                    * MULLIKEN POPULATION ANALYSIS *
                    ********************************

-----------------------
MULLIKEN ATOMIC CHARGES
-----------------------
   0 C :    0.106312
   1 C :    0.424193
   2 N :   -0.307964
   3 H :   -0.202642
   4 H :   -0.036360
   5 C :    0.601772
   6 C :    0.279147
   7 N :   -0.025166
   8 H :   -0.112347
   9 H :   -0.074159
  10 H :   -0.225226
  11 H :   -0.165564
  12 H :   -0.337825
  13 H :    0.001792
  14 H :    0.003738
  15 H :    0.070299
Sum of atomic charges:    0.0000000

--------------------------------
MULLIKEN REDUCED ORBITAL CHARGES
--------------------------------
  0 C s       :     2.861458  s :     2.861458
      pz      :     0.980390  p :     2.787480
      px      :     0.854248
      py      :     0.952842
      dz2     :     0.033708  d :     0.244750
      dxz     :     0.048689
      dyz     :     0.085903
      dx2y2   :     0.008594
      dxy     :     0.067856
  1 C s       :     2.587838  s :     2.587838
      pz      :     0.985809  p :     2.913036
      px      :     0.966430
      py      :     0.960797
      dz2     :     0.019523  d :     0.074933
      dxz     :    -0.000068
      dyz     :     0.031392
      dx2y2   :    -0.003428
      dxy     :     0.027514
  2 N s       :     3.326281  s :     3.326281
      pz      :     1.352078  p :     3.777500
      px      :     1.198561
      py      :     1.226862
      dz2     :     0.033669  d :     0.204183
      dxz     :     0.016218
      dyz     :     0.057825
      dx2y2   :     0.041722
      dxy     :     0.054750
  3 H s       :     1.144659  s :     1.144659
      pz      :    -0.020856  p :     0.057983
      px      :     0.040590
      py      :     0.038249
  4 H s       :     0.986524  s :     0.986524
      pz      :     0.038882  p :     0.049836
      px      :    -0.026873
      py      :     0.037827
  5 C s       :     2.757855  s :     2.757855
      pz      :     0.880671  p :     2.449123
      px      :     0.762645
      py      :     0.805808
      dz2     :     0.021527  d :     0.191250
      dxz     :     0.024980
      dyz     :     0.092595
      dx2y2   :     0.063953
      dxy     :    -0.011805
  6 C s       :     2.832671  s :     2.832671
      pz      :     0.990858  p :     2.848750
      px      :     0.897663
      py      :     0.960229
      dz2     :     0.008990  d :     0.039432
      dxz     :    -0.001099
      dyz     :    -0.001982
      dx2y2   :     0.006513
      dxy     :     0.027009
  7 N s       :     3.293795  s :     3.293795
      pz      :     1.277871  p :     3.736197
      px      :     1.188072
      py      :     1.270255
      dz2     :    -0.013054  d :    -0.004827
      dxz     :     0.001186
      dyz     :    -0.006507
      dx2y2   :     0.006075
      dxy     :     0.007474
  8 H s       :     1.071704  s :     1.071704
      pz      :     0.030560  p :     0.040643
      px      :     0.028157
      py      :    -0.018073
  9 H s       :     1.041000  s :     1.041000
      pz      :     0.008723  p :     0.033159
      px      :     0.002176
      py      :     0.022260
 10 H s       :     1.216174  s :     1.216174
      pz      :     0.014378  p :     0.009052
      px      :     0.010005
      py      :    -0.015331
 11 H s       :     1.099973  s :     1.099973
      pz      :     0.061011  p :     0.065590
      px      :    -0.003715
      py      :     0.008294
 12 H s       :     1.284189  s :     1.284189
      pz      :     0.000344  p :     0.053636
      px      :     0.015678
      py      :     0.037614
 13 H s       :     0.948092  s :     0.948092
      pz      :     0.026008  p :     0.050117
      px      :     0.036667
      py      :    -0.012558
 14 H s       :     0.917163  s :     0.917163
      pz      :     0.029412  p :     0.079099
      px      :     0.032902
      py      :     0.016785
 15 H s       :     0.909952  s :     0.909952
      pz      :    -0.012952  p :     0.019749
      px      :    -0.024275
      py      :     0.056976


                     *******************************
                     * LOEWDIN POPULATION ANALYSIS *
                     *******************************

----------------------
LOEWDIN ATOMIC CHARGES
----------------------
   0 C :   -0.011943
   1 C :    0.101057
   2 N :   -0.033136
   3 H :    0.030883
   4 H :    0.023185
   5 C :   -0.233879
   6 C :    0.104815
   7 N :    0.186108
   8 H :   -0.024304
   9 H :    0.013514
  10 H :    0.042849
  11 H :   -0.091139
  12 H :   -0.083086
  13 H :   -0.006060
  14 H :   -0.010481
  15 H :   -0.008385

-------------------------------
LOEWDIN REDUCED ORBITAL CHARGES
-------------------------------
  0 C s       :     2.661903  s :     2.661903
      pz      :     0.897295  p :     2.644385
      px      :     0.901152
      py      :     0.845938
      dz2     :     0.141451  d :     0.705655
      dxz     :     0.157294
      dyz     :     0.147420
      dx2y2   :     0.094430
      dxy     :     0.165060
  1 C s       :     2.710685  s :     2.710685
      pz      :     0.920162  p :     2.811130
      px      :     0.941535
      py      :     0.949434
      dz2     :     0.091537  d :     0.377127
      dxz     :     0.088884
      dyz     :     0.077632
      dx2y2   :     0.030016
      dxy     :     0.089059
  2 N s       :     2.881762  s :     2.881762
      pz      :     1.242445  p :     3.536705
      px      :     1.136344
      py      :     1.157917
      dz2     :     0.103965  d :     0.614669
      dxz     :     0.095585
      dyz     :     0.139353
      dx2y2   :     0.147110
      dxy     :     0.128655
  3 H s       :     0.728799  s :     0.728799
      pz      :     0.066313  p :     0.240317
      px      :     0.093072
      py      :     0.080933
  4 H s       :     0.718337  s :     0.718337
      pz      :     0.097634  p :     0.258479
      px      :     0.086329
      py      :     0.074515
  5 C s       :     2.630589  s :     2.630589
      pz      :     0.779419  p :     2.510289
      px      :     0.855377
      py      :     0.875494
      dz2     :     0.200322  d :     1.093000
      dxz     :     0.217810
      dyz     :     0.175905
      dx2y2   :     0.269145
      dxy     :     0.229818
  6 C s       :     2.730917  s :     2.730917
      pz      :     0.966987  p :     2.847758
      px      :     0.939726
      py      :     0.941044
      dz2     :     0.030585  d :     0.316511
      dxz     :     0.053260
      dyz     :     0.067037
      dx2y2   :     0.090296
      dxy     :     0.075332
  7 N s       :     2.925092  s :     2.925092
      pz      :     1.202385  p :     3.561812
      px      :     1.163376
      py      :     1.196051
      dz2     :     0.060645  d :     0.326988
      dxz     :     0.074461
      dyz     :     0.030938
      dx2y2   :     0.067857
      dxy     :     0.093087
  8 H s       :     0.649265  s :     0.649265
      pz      :     0.104736  p :     0.375039
      px      :     0.103424
      py      :     0.166878
  9 H s       :     0.648558  s :     0.648558
      pz      :     0.144351  p :     0.337928
      px      :     0.084612
      py      :     0.108964
 10 H s       :     0.628555  s :     0.628555
      pz      :     0.100123  p :     0.328596
      px      :     0.128883
      py      :     0.099589
 11 H s       :     0.754100  s :     0.754100
      pz      :     0.127595  p :     0.337039
      px      :     0.120303
      py      :     0.089141
 12 H s       :     0.763907  s :     0.763907
      pz      :     0.118313  p :     0.319178
      px      :     0.093572
      py      :     0.107293
 13 H s       :     0.734532  s :     0.734532
      pz      :     0.093945  p :     0.271527
      px      :     0.092877
      py      :     0.084706
 14 H s       :     0.731466  s :     0.731466
      pz      :     0.079755  p :     0.279015
      px      :     0.101248
      py      :     0.098013
 15 H s       :     0.735023  s :     0.735023
      pz      :     0.074386  p :     0.273362
      px      :     0.080571
      py      :     0.118405


                      *****************************
                      * MAYER POPULATION ANALYSIS *
                      *****************************

  NA   - Mulliken gross atomic population
  ZA   - Total nuclear charge
  QA   - Mulliken gross atomic charge
  VA   - Mayer's total valence
  BVA  - Mayer's bonded valence
  FA   - Mayer's free valence

  ATOM       NA         ZA         QA         VA         BVA        FA
  0 C      5.8937     6.0000     0.1063     4.3849     4.3849     0.0000
  1 C      5.5758     6.0000     0.4242     3.8857     3.8857     0.0000
  2 N      7.3080     7.0000    -0.3080     3.9992     3.9992     0.0000
  3 H      1.2026     1.0000    -0.2026     1.1487     1.1487     0.0000
  4 H      1.0364     1.0000    -0.0364     1.0967     1.0967     0.0000
  5 C      5.3982     6.0000     0.6018     3.6637     3.6637     0.0000
  6 C      5.7209     6.0000     0.2791     3.7610     3.7610    -0.0000
  7 N      7.0252     7.0000    -0.0252     3.4716     3.4716     0.0000
  8 H      1.1123     1.0000    -0.1123     0.9360     0.9360     0.0000
  9 H      1.0742     1.0000    -0.0742     0.9185     0.9185    -0.0000
 10 H      1.2252     1.0000    -0.2252     0.8328     0.8328    -0.0000
 11 H      1.1656     1.0000    -0.1656     1.0862     1.0862     0.0000
 12 H      1.3378     1.0000    -0.3378     1.0651     1.0651     0.0000
 13 H      0.9982     1.0000     0.0018     1.0653     1.0653    -0.0000
 14 H      0.9963     1.0000     0.0037     1.1599     1.1599    -0.0000
 15 H      0.9297     1.0000     0.0703     1.0331     1.0331     0.0000

  Mayer bond orders larger than 0.100000
B(  0-C ,  1-C ) :   1.2411 B(  0-C ,  2-N ) :   0.9663 B(  0-C ,  3-H ) :   0.9868 
B(  0-C ,  4-H ) :   0.8989 B(  0-C , 10-H ) :  -0.2127 B(  0-C , 13-H ) :   0.2013 
B(  0-C , 14-H ) :   0.1675 B(  0-C , 15-H ) :   0.1294 B(  1-C , 13-H ) :   0.8432 
B(  1-C , 14-H ) :   0.8652 B(  1-C , 15-H ) :   0.8425 B(  2-N ,  3-H ) :   0.1489 
B(  2-N ,  4-H ) :   0.1298 B(  2-N ,  5-C ) :   1.0856 B(  2-N ,  6-C ) :   0.2484 
B(  2-N ,  7-N ) :   0.1088 B(  2-N , 10-H ) :   1.2868 B(  5-C ,  6-C ) :   1.7411 
B(  5-C ,  7-N ) :   0.8677 B(  5-C ,  9-H ) :  -0.1083 B(  5-C , 10-H ) :  -0.2079 
B(  5-C , 11-H ) :   0.1805 B(  5-C , 12-H ) :   0.1731 B(  6-C ,  7-N ) :   0.1965 
B(  6-C , 11-H ) :   0.8370 B(  6-C , 12-H ) :   0.7984 B(  7-N ,  8-H ) :   1.0306 
B(  7-N ,  9-H ) :   1.1938 B(  8-H ,  9-H ) :  -0.1439 

-------
TIMINGS
-------

Total SCF time: 0 days 0 hours 0 min 31 sec 

Total time                  ....      31.869 sec
Sum of individual times     ....      29.863 sec  ( 93.7%)

Fock matrix formation       ....      28.340 sec  ( 88.9%)
  Split-RI-J                ....       1.305 sec  (  4.6% of F)
  Chain of spheres X        ....      22.080 sec  ( 77.9% of F)
  XC integration            ....       4.890 sec  ( 17.3% of F)
    Basis function eval.    ....       1.411 sec  ( 28.9% of XC)
    Density eval.           ....       1.062 sec  ( 21.7% of XC)
    XC-Functional eval.     ....       0.357 sec  (  7.3% of XC)
    XC-Potential eval.      ....       1.377 sec  ( 28.2% of XC)
Diagonalization             ....       0.059 sec  (  0.2%)
Density matrix formation    ....       0.006 sec  (  0.0%)
Population analysis         ....       0.009 sec  (  0.0%)
Initial guess               ....       0.282 sec  (  0.9%)
Orbital Transformation      ....       0.000 sec  (  0.0%)
Orbital Orthonormalization  ....       0.000 sec  (  0.0%)
DIIS solution               ....       0.033 sec  (  0.1%)
SOSCF solution              ....       0.048 sec  (  0.2%)
Grid generation             ....       1.087 sec  (  3.4%)

Maximum memory used throughout the entire SCF-calculation: 25.6 MB

-------------------------   --------------------
FINAL SINGLE POINT ENERGY      -266.850433842979
-------------------------   --------------------


                            ***************************************
                            *     ORCA property calculations      *
                            ***************************************

                                    ---------------------
                                    Active property flags
                                    ---------------------
   (+) Dipole Moment


------------------------------------------------------------------------------
                       ORCA ELECTRIC PROPERTIES CALCULATION
------------------------------------------------------------------------------

Dipole Moment Calculation                       ... on
Quadrupole Moment Calculation                   ... off
Polarizability Calculation                      ... off
GBWName                                         ... SVPD_LC_PBE_C2_wt_dlpno_pos.gbw
Electron density file                           ... SVPD_LC_PBE_C2_wt_dlpno_pos.scfp
The origin for moment calculation is the CENTER OF MASS  = ( 6.663798,  0.421014 -1.534320)

-------------
DIPOLE MOMENT
-------------
                                X             Y             Z
Electronic contribution:     -0.86727      -1.03300       2.41241
Nuclear contribution   :      1.38466       1.98967      -2.80776
                        -----------------------------------------
Total Dipole Moment    :      0.51738       0.95667      -0.39535
                        -----------------------------------------
Magnitude (a.u.)       :      1.15724
Magnitude (Debye)      :      2.94147



--------------------
Rotational spectrum 
--------------------
 
Rotational constants in cm-1:     0.235618     0.075969     0.065309 
Rotational constants in MHz :  7063.646698  2277.495424  1957.925383 

 Dipole components along the rotational axes: 
x,y,z [a.u.] :    -1.033386    -0.416611    -0.312649 
x,y,z [Debye]:    -2.626657    -1.058942    -0.794691 

 

Timings for individual modules:

Sum of individual times         ...       35.393 sec (=   0.590 min)
GTO integral calculation        ...        2.057 sec (=   0.034 min)   5.8 %
SCF iterations                  ...       33.336 sec (=   0.556 min)  94.2 %
                             ****ORCA TERMINATED NORMALLY****
TOTAL RUN TIME: 0 days 0 hours 0 minutes 35 seconds 852 msec
