
                                        *****************
                                        * O   R   C   A *
                                        *****************

                                            #,                                       
                                            ###                                      
                                            ####                                     
                                            #####                                    
                                            ######                                   
                                           ########,                                 
                                     ,,################,,,,,                         
                               ,,#################################,,                 
                          ,,##########################################,,             
                       ,#########################################, ''#####,          
                    ,#############################################,,   '####,        
                  ,##################################################,,,,####,       
                ,###########''''           ''''###############################       
              ,#####''   ,,,,##########,,,,          '''####'''          '####       
            ,##' ,,,,###########################,,,                        '##       
           ' ,,###''''                  '''############,,,                           
         ,,##''                                '''############,,,,        ,,,,,,###''
      ,#''                                            '''#######################'''  
     '                                                          ''''####''''         
             ,#######,   #######,   ,#######,      ##                                
            ,#'     '#,  ##    ##  ,#'     '#,    #''#        ######   ,####,        
            ##       ##  ##   ,#'  ##            #'  '#       #        #'  '#        
            ##       ##  #######   ##           ,######,      #####,   #    #        
            '#,     ,#'  ##    ##  '#,     ,#' ,#      #,         ##   #,  ,#        
             '#######'   ##     ##  '#######'  #'      '#     #####' # '####'        



                  #######################################################
                  #                        -***-                        #
                  #          Department of theory and spectroscopy      #
                  #    Directorship and core code : Frank Neese         #
                  #        Max Planck Institute fuer Kohlenforschung    #
                  #                Kaiser Wilhelm Platz 1               #
                  #                 D-45470 Muelheim/Ruhr               #
                  #                      Germany                        #
                  #                                                     #
                  #                  All rights reserved                #
                  #                        -***-                        #
                  #######################################################


                         Program Version 5.0.0 -  RELEASE  -
                                (SVN: $Rev: 19529$)
                ($Date: 2021-06-28 11:36:33 +0200 (Mo, 28 Jun 2021) $)


 With contributions from (in alphabetic order):
   Daniel Aravena         : Magnetic Suceptibility
   Michael Atanasov       : Ab Initio Ligand Field Theory (pilot matlab implementation)
   Alexander A. Auer      : GIAO ZORA, VPT2 properties, NMR spectrum
   Ute Becker             : Parallelization
   Giovanni Bistoni       : ED, misc. LED, open-shell LED, HFLD
   Martin Brehm           : Molecular dynamics
   Dmytro Bykov           : SCF Hessian
   Vijay G. Chilkuri      : MRCI spin determinant printing, contributions to CSF-ICE
   Dipayan Datta          : RHF DLPNO-CCSD density
   Achintya Kumar Dutta   : EOM-CC, STEOM-CC
   Dmitry Ganyushin       : Spin-Orbit,Spin-Spin,Magnetic field MRCI
   Miquel Garcia          : C-PCM Hessian, Gaussian charge scheme
   Yang Guo               : DLPNO-NEVPT2, F12-NEVPT2, CIM, IAO-localization
   Andreas Hansen         : Spin unrestricted coupled pair/coupled cluster methods
   Benjamin Helmich-Paris : MC-RPA, TRAH-SCF, COSX integrals
   Lee Huntington         : MR-EOM, pCC
   Robert Izsak           : Overlap fitted RIJCOSX, COSX-SCS-MP3, EOM
   Marcus Kettner         : VPT2
   Christian Kollmar      : KDIIS, OOCD, Brueckner-CCSD(T), CCSD density, CASPT2, CASPT2-K
   Simone Kossmann        : Meta GGA functionals, TD-DFT gradient, OOMP2, MP2 Hessian
   Martin Krupicka        : Initial AUTO-CI
   Lucas Lang             : DCDCAS
   Marvin Lechner         : AUTO-CI (C++ implementation), FIC-MRCC
   Dagmar Lenk            : GEPOL surface, SMD
   Dimitrios Liakos       : Extrapolation schemes; Compound Job, initial MDCI parallelization
   Dimitrios Manganas     : Further ROCIS development; embedding schemes
   Dimitrios Pantazis     : SARC Basis sets
   Anastasios Papadopoulos: AUTO-CI, single reference methods and gradients
   Taras Petrenko         : DFT Hessian,TD-DFT gradient, ASA, ECA, R-Raman, ABS, FL, XAS/XES, NRVS
   Peter Pinski           : DLPNO-MP2, DLPNO-MP2 Gradient
   Christoph Reimann      : Effective Core Potentials
   Marius Retegan         : Local ZFS, SOC
   Christoph Riplinger    : Optimizer, TS searches, QM/MM, DLPNO-CCSD(T), (RO)-DLPNO pert. Triples
   Tobias Risthaus        : Range-separated hybrids, TD-DFT gradient, RPA, STAB
   Michael Roemelt        : Original ROCIS implementation
   Masaaki Saitow         : Open-shell DLPNO-CCSD energy and density
   Barbara Sandhoefer     : DKH picture change effects
   Avijit Sen             : IP-ROCIS
   Kantharuban Sivalingam : CASSCF convergence, NEVPT2, FIC-MRCI
   Bernardo de Souza      : ESD, SOC TD-DFT
   Georgi Stoychev        : AutoAux, RI-MP2 NMR
   Willem Van den Heuvel  : Paramagnetic NMR
   Boris Wezisla          : Elementary symmetry handling
   Frank Wennmohs         : Technical directorship


 We gratefully acknowledge several colleagues who have allowed us to
 interface, adapt or use parts of their codes:
   Stefan Grimme, W. Hujo, H. Kruse, P. Pracht,  : VdW corrections, initial TS optimization,
                  C. Bannwarth, S. Ehlert          DFT functionals, gCP, sTDA/sTD-DF
   Ed Valeev, F. Pavosevic, A. Kumar             : LibInt (2-el integral package), F12 methods
   Garnet Chan, S. Sharma, J. Yang, R. Olivares  : DMRG
   Ulf Ekstrom                                   : XCFun DFT Library
   Mihaly Kallay                                 : mrcc  (arbitrary order and MRCC methods)
   Jiri Pittner, Ondrej Demel                    : Mk-CCSD
   Frank Weinhold                                : gennbo (NPA and NBO analysis)
   Christopher J. Cramer and Donald G. Truhlar   : smd solvation model
   Lars Goerigk                                  : TD-DFT with DH, B97 family of functionals
   V. Asgeirsson, H. Jonsson                     : NEB implementation
   FAccTs GmbH                                   : IRC, NEB, NEB-TS, DLPNO-Multilevel, CI-OPT
                                                   MM, QMMM, 2- and 3-layer-ONIOM, Crystal-QMMM,
                                                   LR-CPCM, SF, NACMEs, symmetry and pop. for TD-DFT,
                                                   nearIR, NL-DFT gradient (VV10), updates on ESD,
                                                   ML-optimized integration grids
   S Lehtola, MJT Oliveira, MAL Marques          : LibXC Library
   Liviu Ungur et al                             : ANISO software


 Your calculation uses the libint2 library for the computation of 2-el integrals
 For citations please refer to: http://libint.valeyev.net

 Your ORCA version has been built with support for libXC version: 5.1.0
 For citations please refer to: https://tddft.org/programs/libxc/

 This ORCA versions uses:
   CBLAS   interface :  Fast vector & matrix operations
   LAPACKE interface :  Fast linear algebra routines
   SCALAPACK package :  Parallel linear algebra routines
   Shared memory     :  Shared parallel matrices
   BLAS/LAPACK       :  OpenBLAS 0.3.15  USE64BITINT DYNAMIC_ARCH NO_AFFINITY Haswell SINGLE_THREADED
        Core in use  :  Haswell
   Copyright (c) 2011-2014, The OpenBLAS Project


Your calculation utilizes the atom-pairwise dispersion correction
with the zero-damping scheme (D30)
Cite in your paper:
S.Grimme, J.Antony, S.Ehrlich and H.Krieg, J.Chem.Phys., 132, (2010), 154104 
   

XCFun DFT library Copyright 2009-2010 Ulf Ekstrom and contributors.
See http://admol.org/xcfun for more information.
This is free software; see the source code for copying conditions.
There is ABSOLUTELY NO WARRANTY; not even for MERCHANTABILITY or FITNESS FOR A PARTICULAR PURPOSE.
For details see the documentation.
Scientific users of this library should cite U. Ekstrom, L. Visscher, R. Bast, A. J. Thorvaldsen and K. Ruud;
J.Chem.Theor.Comp. 2010, DOI: 10.1021/ct100117s
XCFun Version 0.99 

================================================================================

----- Orbital basis set information -----
Your calculation utilizes the basis: def2-SVP
   F. Weigend and R. Ahlrichs, Phys. Chem. Chem. Phys. 7, 3297 (2005).

----- AuxJ basis set information -----
Your calculation utilizes the auxiliary basis: def2/J
   F. Weigend, Phys. Chem. Chem. Phys. 8, 1057 (2006).

================================================================================
                                        WARNINGS
                       Please study these warnings very carefully!
================================================================================


INFO   : the flag for use of the SHARK integral package has been found!

================================================================================
                                       INPUT FILE
================================================================================
NAME = C2_neg.com
|  1> !wB97X-D3 RIJCOSX def2-SVP def2/J TightSCF 
|  2> *xyz 0 1 
|  3> C         -0.71189        0.84252       -4.21834
|  4> C         -0.39762       -0.20587       -5.28802
|  5> O          0.61717       -0.00535       -5.99827
|  6> F         -1.13317       -1.22138       -5.34147
|  7> H         -0.00939        1.64646       -4.28960
|  8> H         -0.64409        0.39449       -3.24902
|  9> H         -1.70192        1.21961       -4.36851
| 10> *
| 11> 
| 12> %MaxCore 64000
| 13> 
| 14> %pal nprocs 18
| 15> end  
| 16> 
| 17> %scf
| 18>   MaxIter 150
| 19> end
| 20> 
| 21> 
| 22>                          ****END OF INPUT****
================================================================================

                       ****************************
                       * Single Point Calculation *
                       ****************************

---------------------------------
CARTESIAN COORDINATES (ANGSTROEM)
---------------------------------
  C     -0.711890    0.842520   -4.218340
  C     -0.397620   -0.205870   -5.288020
  O      0.617170   -0.005350   -5.998270
  F     -1.133170   -1.221380   -5.341470
  H     -0.009390    1.646460   -4.289600
  H     -0.644090    0.394490   -3.249020
  H     -1.701920    1.219610   -4.368510

----------------------------
CARTESIAN COORDINATES (A.U.)
----------------------------
  NO LB      ZA    FRAG     MASS         X           Y           Z
   0 C     6.0000    0    12.011   -1.345277    1.592132   -7.971507
   1 C     6.0000    0    12.011   -0.751393   -0.389038   -9.992910
   2 O     8.0000    0    15.999    1.166282   -0.010110  -11.335088
   3 F     9.0000    0    18.998   -2.141381   -2.308074  -10.093915
   4 H     1.0000    0     1.008   -0.017745    3.111358   -8.106169
   5 H     1.0000    0     1.008   -1.217154    0.745478   -6.139758
   6 H     1.0000    0     1.008   -3.216163    2.304729   -8.255288

--------------------------------
INTERNAL COORDINATES (ANGSTROEM)
--------------------------------
 C      0   0   0     0.000000000000     0.00000000     0.00000000
 C      1   0   0     1.530392932354     0.00000000     0.00000000
 O      2   1   0     1.254775707846   116.88744745     0.00000000
 F      2   1   3     1.255050303813   117.62698629   176.69010279
 H      1   2   3     1.070001757569   109.47127787     3.30993646
 H      1   2   3     1.070004197796   109.47130423   243.30997867
 H      1   2   3     1.070003410228   109.47116059   123.31006799

---------------------------
INTERNAL COORDINATES (A.U.)
---------------------------
 C      0   0   0     0.000000000000     0.00000000     0.00000000
 C      1   0   0     2.892023519438     0.00000000     0.00000000
 O      2   1   0     2.371182447326   116.88744745     0.00000000
 F      2   1   3     2.371701358500   117.62698629   176.69010279
 H      1   2   3     2.022010284619   109.47127787     3.30993646
 H      1   2   3     2.022014895980   109.47130423   243.30997867
 H      1   2   3     2.022013407693   109.47116059   123.31006799

---------------------
BASIS SET INFORMATION
---------------------
There are 4 groups of distinct atoms

 Group   1 Type C   : 7s4p1d contracted to 3s2p1d pattern {511/31/1}
 Group   2 Type O   : 7s4p1d contracted to 3s2p1d pattern {511/31/1}
 Group   3 Type F   : 7s4p1d contracted to 3s2p1d pattern {511/31/1}
 Group   4 Type H   : 4s1p contracted to 2s1p pattern {31/1}

Atom   0C    basis set group =>   1
Atom   1C    basis set group =>   1
Atom   2O    basis set group =>   2
Atom   3F    basis set group =>   3
Atom   4H    basis set group =>   4
Atom   5H    basis set group =>   4
Atom   6H    basis set group =>   4
---------------------------------
AUXILIARY/J BASIS SET INFORMATION
---------------------------------
There are 4 groups of distinct atoms

 Group   1 Type C   : 12s5p4d2f1g contracted to 6s4p3d1f1g pattern {711111/2111/211/2/1}
 Group   2 Type O   : 12s5p4d2f1g contracted to 6s4p3d1f1g pattern {711111/2111/211/2/1}
 Group   3 Type F   : 12s5p4d2f1g contracted to 6s4p3d1f1g pattern {711111/2111/211/2/1}
 Group   4 Type H   : 5s2p1d contracted to 3s1p1d pattern {311/2/1}

Atom   0C    basis set group =>   1
Atom   1C    basis set group =>   1
Atom   2O    basis set group =>   2
Atom   3F    basis set group =>   3
Atom   4H    basis set group =>   4
Atom   5H    basis set group =>   4
Atom   6H    basis set group =>   4


           ************************************************************
           *        Program running with 18 parallel MPI-processes    *
           *              working on a common directory               *
           ************************************************************
------------------------------------------------------------------------------
                           ORCA GTO INTEGRAL CALCULATION
                           -- RI-GTO INTEGRALS CHOSEN --
------------------------------------------------------------------------------
------------------------------------------------------------------------------
                   ___                                                        
                  /   \      - P O W E R E D   B Y -                         
                 /     \                                                     
                 |  |  |   _    _      __       _____    __    __             
                 |  |  |  | |  | |    /  \     |  _  \  |  |  /  |          
                  \  \/   | |  | |   /    \    | | | |  |  | /  /          
                 / \  \   | |__| |  /  /\  \   | |_| |  |  |/  /          
                |  |  |   |  __  | /  /__\  \  |    /   |      \           
                |  |  |   | |  | | |   __   |  |    \   |  |\   \          
                \     /   | |  | | |  |  |  |  | |\  \  |  | \   \       
                 \___/    |_|  |_| |__|  |__|  |_| \__\ |__|  \__/        
                                                                              
                      - O R C A' S   B I G   F R I E N D -                    
                                      &                                       
                       - I N T E G R A L  F E E D E R -                       
                                                                              
 v1 FN, 2020, v2 2021                                                         
------------------------------------------------------------------------------


Reading SHARK input file C2_neg.SHARKINP.tmp ... ok
----------------------
SHARK INTEGRAL PACKAGE
----------------------

Number of atoms                             ...      7
Number of basis functions                   ...     71
Number of shells                            ...     33
Maximum angular momentum                    ...      2
Integral batch strategy                     ... SHARK/LIBINT Hybrid
RI-J (if used) integral strategy            ... SPLIT-RIJ (Revised 2003 algorithm where possible)
Printlevel                                  ...      1
Contraction scheme used                     ... SEGMENTED contraction
Coulomb Range Separation                    ... NOT USED
Exchange Range Separation                   ... Long Range
   Mu parameter                             ...  0.250000
   Scaling (regular/separated)              ...  0.195728  0.804272
Finite Nucleus Model                        ... NOT USED
Auxiliary Coulomb fitting basis             ... AVAILABLE
   # of basis functions in Aux-J            ...    229
   # of shells in Aux-J                     ...     75
   Maximum angular momentum in Aux-J        ...      4
Auxiliary J/K fitting basis                 ... NOT available
Auxiliary Correlation fitting basis         ... NOT available
Auxiliary 'external' fitting basis          ... NOT available
Integral threshold                          ...     2.500000e-11
Primitive cut-off                           ...     2.500000e-12
Primitive pair pre-selection threshold      ...     2.500000e-12

Calculating pre-screening integrals         ... done (  0.0 sec) Dimension = 33
Organizing shell pair data                  ... done (  0.0 sec)
Shell pair information
Total number of shell pairs                 ...       561
Shell pairs after pre-screening             ...       558
Total number of primitive shell pairs       ...      2077
Primitive shell pairs kept                  ...      1708
          la=0 lb=0:    168 shell pairs
          la=1 lb=0:    198 shell pairs
          la=1 lb=1:     66 shell pairs
          la=2 lb=0:     72 shell pairs
          la=2 lb=1:     44 shell pairs
          la=2 lb=2:     10 shell pairs

Calculating one electron integrals          ... done (  0.0 sec)
Calculating RI/J V-Matrix + Cholesky decomp.... done (  0.0 sec)
Calculating Nuclear repulsion               ... done (  0.0 sec) ENN=    118.945927069684 Eh

SHARK setup successfully completed in   0.1 seconds

Maximum memory used throughout the entire GTOINT-calculation: 8.7 MB


           ************************************************************
           *        Program running with 18 parallel MPI-processes    *
           *              working on a common directory               *
           ************************************************************
-------------------------------------------------------------------------------
                                 ORCA SCF
-------------------------------------------------------------------------------

------------
SCF SETTINGS
------------
Hamiltonian:
 Density Functional     Method          .... DFT(GTOs)
 Exchange Functional    Exchange        .... WB97X-D3
 Correlation Functional Correlation     .... WB97X-D3
 Gradients option       PostSCFGGA      .... off
 Hybrid DFT is turned on
   Fraction HF Exchange ScalHFX         ....  0.195728
   Scaling of DF-GGA-X  ScalDFX         ....  0.000000
   Scaling of DF-GGA-C  ScalDFC         ....  1.000000
   Scaling of DF-LDA-C  ScalLDAC        ....  1.000000
   Perturbative correction              ....  0.000000
   Density functional embedding theory  .... OFF
 Long-range corrected/Screened/Range-Separated Hybrid DFT is turned on
   Amount of maximum screened exact exchange              ....  0.804272
   Range separation parameter mu (erf(mu*r12)/r12)        ....  0.250000
 RI-approximation to the Coulomb term is turned on
   Number of AuxJ basis functions       .... 229
   RIJ-COSX (HFX calculated with COS-X)).... on


General Settings:
 Integral files         IntName         .... C2_neg
 Hartree-Fock type      HFTyp           .... RHF
 Total Charge           Charge          ....    0
 Multiplicity           Mult            ....    1
 Number of Electrons    NEL             ....   32
 Basis Dimension        Dim             ....   71
 Nuclear Repulsion      ENuc            ....    118.9459270697 Eh

Convergence Acceleration:
 DIIS                   CNVDIIS         .... on
   Start iteration      DIISMaxIt       ....    12
   Startup error        DIISStart       ....  0.200000
   # of expansion vecs  DIISMaxEq       ....     5
   Bias factor          DIISBfac        ....   1.050
   Max. coefficient     DIISMaxC        ....  10.000
 Trust-Rad. Augm. Hess. CNVTRAH         .... auto
   Auto Start mean grad. ratio tolernc. ....  1.125000
   Auto Start start iteration           ....    20
   Auto Start num. interpolation iter.  ....    10
   Max. Number of Micro iterations      ....    16
   Max. Number of Macro iterations      .... Maxiter - #DIIS iter
   Number of Davidson start vectors     ....     2
   Converg. threshold I  (grad. norm)   ....   1.000e-05
   Converg. threshold II (energy diff.) ....   1.000e-08
   Grad. Scal. Fac. for Micro threshold ....   0.100
   Minimum threshold for Micro iter.    ....   0.010
   NR start threshold (gradient norm)   ....   0.001
   Initial trust radius                 ....   0.400
   Minimum AH scaling param. (alpha)    ....   1.000
   Maximum AH scaling param. (alpha)    .... 1000.000
   Orbital update algorithm             .... Taylor
   White noise on init. David. guess    .... on
   Maximum white noise                  ....   0.010
   Quad. conv. algorithm                .... NR
 SOSCF                  CNVSOSCF        .... on
   Start iteration      SOSCFMaxIt      ....   150
   Startup grad/error   SOSCFStart      ....  0.003300
 Level Shifting         CNVShift        .... on
   Level shift para.    LevelShift      ....    0.2500
   Turn off err/grad.   ShiftErr        ....    0.0010
 Zerner damping         CNVZerner       .... off
 Static damping         CNVDamp         .... on
   Fraction old density DampFac         ....    0.7000
   Max. Damping (<1)    DampMax         ....    0.9800
   Min. Damping (>=0)   DampMin         ....    0.0000
   Turn off err/grad.   DampErr         ....    0.1000
 Fernandez-Rico         CNVRico         .... off

SCF Procedure:
 Maximum # iterations   MaxIter         ....   150
 SCF integral mode      SCFMode         .... Direct
   Integral package                     .... SHARK and LIBINT hybrid scheme
 Reset frequency        DirectResetFreq ....    20
 Integral Threshold     Thresh          ....  2.500e-11 Eh
 Primitive CutOff       TCut            ....  2.500e-12 Eh

Convergence Tolerance:
 Convergence Check Mode ConvCheckMode   .... Total+1el-Energy
 Convergence forced     ConvForced      .... 0
 Energy Change          TolE            ....  1.000e-08 Eh
 1-El. energy change                    ....  1.000e-05 Eh
 Orbital Gradient       TolG            ....  1.000e-05
 Orbital Rotation angle TolX            ....  1.000e-05
 DIIS Error             TolErr          ....  5.000e-07


Diagonalization of the overlap matrix:
Smallest eigenvalue                        ... 4.315e-03
Time for diagonalization                   ...    0.002 sec
Threshold for overlap eigenvalues          ... 1.000e-08
Number of eigenvalues below threshold      ... 0
Time for construction of square roots      ...    0.004 sec
Total time needed                          ...    0.006 sec

Time for model grid setup =    0.038 sec

------------------------------
INITIAL GUESS: MODEL POTENTIAL
------------------------------
Loading Hartree-Fock densities                     ... done
Calculating cut-offs                               ... done
Initializing the effective Hamiltonian             ... done
Setting up the integral package (SHARK)            ... done
Starting the Coulomb interaction                   ... done (   0.0 sec)
Reading the grid                                   ... done
Mapping shells                                     ... done
Starting the XC term evaluation                    ... done (   0.0 sec)
  promolecular density results
     # of electrons  =     31.999440883
     EX              =    -29.248928429
     EC              =     -1.067824757
     EX+EC           =    -30.316753186
Transforming the Hamiltonian                       ... done (   0.0 sec)
Diagonalizing the Hamiltonian                      ... done (   0.0 sec)
Back transforming the eigenvectors                 ... done (   0.0 sec)
Now organizing SCF variables                       ... done
                      ------------------
                      INITIAL GUESS DONE (   0.1 sec)
                      ------------------
-------------------
DFT GRID GENERATION
-------------------

General Integration Accuracy     IntAcc      ... 4.388
Radial Grid Type                 RadialGrid  ... OptM3 with GC (2021)
Angular Grid (max. ang.)         AngularGrid ... 4 (Lebedev-302)
Angular grid pruning method      GridPruning ... 4 (adaptive)
Weight generation scheme         WeightScheme... Becke
Basis function cutoff            BFCut       ... 1.0000e-11
Integration weight cutoff        WCut        ... 1.0000e-14
Angular grids for H and He will be reduced by one unit
Partially contracted basis set               ... off
Rotationally invariant grid construction     ... off

Total number of grid points                  ...    34176
Total number of batches                      ...      538
Average number of points per batch           ...       63
Average number of grid points per atom       ...     4882
Time for grid setup =    0.254 sec

--------------------
COSX GRID GENERATION
--------------------

GRIDX 1
-------
General Integration Accuracy     IntAcc      ... 3.816
Radial Grid Type                 RadialGrid  ... OptM3 with GC (2021)
Angular Grid (max. ang.)         AngularGrid ... 1 (Lebedev-50)
Angular grid pruning method      GridPruning ... 4 (adaptive)
Weight generation scheme         WeightScheme... Becke
Basis function cutoff            BFCut       ... 1.0000e-11
Integration weight cutoff        WCut        ... 1.0000e-14
Angular grids for H and He will be reduced by one unit
Partially contracted basis set               ... on
Rotationally invariant grid construction     ... off

Total number of grid points                  ...     4368
Total number of batches                      ...       73
Average number of points per batch           ...       59
Average number of grid points per atom       ...      624
UseSFitting                                  ... on

GRIDX 2
-------
General Integration Accuracy     IntAcc      ... 4.020
Radial Grid Type                 RadialGrid  ... OptM3 with GC (2021)
Angular Grid (max. ang.)         AngularGrid ... 2 (Lebedev-110)
Angular grid pruning method      GridPruning ... 4 (adaptive)
Weight generation scheme         WeightScheme... Becke
Basis function cutoff            BFCut       ... 1.0000e-11
Integration weight cutoff        WCut        ... 1.0000e-14
Angular grids for H and He will be reduced by one unit
Partially contracted basis set               ... on
Rotationally invariant grid construction     ... off

Total number of grid points                  ...     9804
Total number of batches                      ...      156
Average number of points per batch           ...       62
Average number of grid points per atom       ...     1401
UseSFitting                                  ... on

GRIDX 3
-------
General Integration Accuracy     IntAcc      ... 4.338
Radial Grid Type                 RadialGrid  ... OptM3 with GC (2021)
Angular Grid (max. ang.)         AngularGrid ... 3 (Lebedev-194)
Angular grid pruning method      GridPruning ... 4 (adaptive)
Weight generation scheme         WeightScheme... Becke
Basis function cutoff            BFCut       ... 1.0000e-11
Integration weight cutoff        WCut        ... 1.0000e-14
Angular grids for H and He will be reduced by one unit
Partially contracted basis set               ... on
Rotationally invariant grid construction     ... off

Total number of grid points                  ...    21715
Total number of batches                      ...      343
Average number of points per batch           ...       63
Average number of grid points per atom       ...     3102
UseSFitting                                  ... on

Time for X-Grid setup             =    0.169 sec

--------------
SCF ITERATIONS
--------------
ITER       Energy         Delta-E        Max-DP      RMS-DP      [F,P]     Damp
               ***  Starting incremental Fock matrix formation  ***
  0   -252.6598715455   0.000000000000 0.07972758  0.00399279  0.2622860 0.7000
  1   -252.7322222094  -0.072350663944 0.04552959  0.00246794  0.1095169 0.7000
                               ***Turning on DIIS***
  2   -252.7610375805  -0.028815371082 0.08341041  0.00371672  0.0495461 0.0000
  3   -252.8104760882  -0.049438507664 0.03647342  0.00192847  0.0627871 0.0000
  4   -252.8186551764  -0.008179088250 0.01087622  0.00043533  0.0106120 0.0000
                      *** Initiating the SOSCF procedure ***
                           *** Shutting down DIIS ***
                      *** Re-Reading the Fockian *** 
                      *** Removing any level shift *** 
ITER      Energy       Delta-E        Grad      Rot      Max-DP    RMS-DP
  5   -252.81903278  -0.0003776019  0.001496  0.001496  0.002977  0.000156
               *** Restarting incremental Fock matrix formation ***
  6   -252.81905033  -0.0000175553  0.000813  0.001582  0.001576  0.000093
  7   -252.81905776  -0.0000074254  0.000296  0.001258  0.001189  0.000075
  8   -252.81905925  -0.0000014867  0.000179  0.000225  0.000405  0.000021
  9   -252.81905962  -0.0000003709  0.000027  0.000071  0.000105  0.000005
                 **** Energy Check signals convergence ****
              ***Rediagonalizing the Fockian in SOSCF/NRSCF***

               *****************************************************
               *                     SUCCESS                       *
               *           SCF CONVERGED AFTER  10 CYCLES          *
               *****************************************************

Old exchange energy                            =     -9.274180764 Eh
New exchange energy                            =     -9.274178725 Eh
Exchange energy change after final integration =      0.000002039 Eh
Total energy after final integration           =   -252.819057585 Eh
Final COS-X integration done in                =     0.257 sec

----------------
TOTAL SCF ENERGY
----------------

Total Energy       :         -252.81905759 Eh           -6879.55631 eV

Components:
Nuclear Repulsion  :          118.94592707 Eh            3236.68323 eV
Electronic Energy  :         -371.76498465 Eh          -10116.23953 eV
One Electron Energy:         -582.23235519 Eh          -15843.34784 eV
Two Electron Energy:          210.46737053 Eh            5727.10831 eV
Max COSX asymmetry :            0.00000419 Eh               0.00011 eV

Virial components:
Potential Energy   :         -503.73396891 Eh          -13707.29816 eV
Kinetic Energy     :          250.91491132 Eh            6827.74185 eV
Virial Ratio       :            2.00758881


DFT components:
N(Alpha)           :       15.999999790094 electrons
N(Beta)            :       15.999999790094 electrons
N(Total)           :       31.999999580188 electrons
E(XC)              :      -21.650965202487 Eh       
DFET-embed. en.    :        0.000000000000 Eh       

---------------
SCF CONVERGENCE
---------------

  Last Energy change         ...   -7.3003e-09  Tolerance :   1.0000e-08
  Last MAX-Density change    ...    2.6645e-15  Tolerance :   1.0000e-07
  Last RMS-Density change    ...    7.2207e-17  Tolerance :   5.0000e-09
  Last Orbital Gradient      ...    3.1149e-05  Tolerance :   1.0000e-05
  Last Orbital Rotation      ...    4.7170e-05  Tolerance :   1.0000e-05

             **** THE GBW FILE WAS UPDATED (C2_neg.gbw) ****
             **** DENSITY C2_neg.scfp WAS UPDATED ****
             **** ENERGY FILE WAS UPDATED (C2_neg.en.tmp) ****
             **** THE GBW FILE WAS UPDATED (C2_neg.gbw) ****
             **** DENSITY C2_neg.scfp WAS UPDATED ****
----------------
ORBITAL ENERGIES
----------------

  NO   OCC          E(Eh)            E(eV) 
   0   2.0000     -24.860111      -676.4780 
   1   2.0000     -19.240489      -523.5603 
   2   2.0000     -10.466495      -284.8078 
   3   2.0000     -10.312088      -280.6062 
   4   2.0000      -1.416129       -38.5348 
   5   2.0000      -1.133028       -30.8313 
   6   2.0000      -0.878261       -23.8987 
   7   2.0000      -0.758295       -20.6343 
   8   2.0000      -0.650242       -17.6940 
   9   2.0000      -0.645828       -17.5739 
  10   2.0000      -0.598369       -16.2824 
  11   2.0000      -0.541325       -14.7302 
  12   2.0000      -0.529274       -14.4023 
  13   2.0000      -0.494396       -13.4532 
  14   2.0000      -0.445195       -12.1144 
  15   2.0000      -0.383080       -10.4241 
  16   0.0000       0.068749         1.8708 
  17   0.0000       0.151476         4.1219 
  18   0.0000       0.211356         5.7513 
  19   0.0000       0.215463         5.8630 
  20   0.0000       0.262825         7.1518 
  21   0.0000       0.320421         8.7191 
  22   0.0000       0.387191        10.5360 
  23   0.0000       0.526517        14.3273 
  24   0.0000       0.548934        14.9373 
  25   0.0000       0.594364        16.1735 
  26   0.0000       0.603400        16.4193 
  27   0.0000       0.615426        16.7466 
  28   0.0000       0.683608        18.6019 
  29   0.0000       0.693992        18.8845 
  30   0.0000       0.744302        20.2535 
  31   0.0000       0.761672        20.7262 
  32   0.0000       0.769483        20.9387 
  33   0.0000       0.933605        25.4047 
  34   0.0000       1.015949        27.6454 
  35   0.0000       1.102284        29.9947 
  36   0.0000       1.118694        30.4412 
  37   0.0000       1.200747        32.6740 
  38   0.0000       1.249102        33.9898 
  39   0.0000       1.351604        36.7790 
  40   0.0000       1.395906        37.9845 
  41   0.0000       1.417458        38.5710 
  42   0.0000       1.602283        43.6003 
  43   0.0000       1.614604        43.9356 
  44   0.0000       1.651493        44.9394 
  45   0.0000       1.681576        45.7580 
  46   0.0000       1.789774        48.7022 
  47   0.0000       1.811995        49.3069 
  48   0.0000       1.885383        51.3039 
  49   0.0000       1.920102        52.2486 
  50   0.0000       1.999845        54.4185 
  51   0.0000       2.084003        56.7086 
  52   0.0000       2.113133        57.5013 
  53   0.0000       2.183882        59.4264 
  54   0.0000       2.297763        62.5253 
  55   0.0000       2.468294        67.1657 
  56   0.0000       2.563408        69.7539 
  57   0.0000       2.575761        70.0900 
  58   0.0000       2.757935        75.0472 
  59   0.0000       2.782846        75.7251 
  60   0.0000       2.883091        78.4529 
  61   0.0000       3.003548        81.7307 
  62   0.0000       3.007701        81.8437 
  63   0.0000       3.048409        82.9514 
  64   0.0000       3.114761        84.7570 
  65   0.0000       3.203151        87.1622 
  66   0.0000       3.288081        89.4732 
  67   0.0000       3.503890        95.3457 
  68   0.0000       3.528913        96.0266 
  69   0.0000       3.784744       102.9881 
  70   0.0000       4.017699       109.3272 

                    ********************************
                    * MULLIKEN POPULATION ANALYSIS *
                    ********************************

-----------------------
MULLIKEN ATOMIC CHARGES
-----------------------
   0 C :   -0.070623
   1 C :    0.224716
   2 O :   -0.271908
   3 F :   -0.084812
   4 H :    0.072763
   5 H :    0.067056
   6 H :    0.062809
Sum of atomic charges:   -0.0000000

--------------------------------
MULLIKEN REDUCED ORBITAL CHARGES
--------------------------------
  0 C s       :     3.001252  s :     3.001252
      pz      :     0.996312  p :     3.044935
      px      :     1.049676
      py      :     0.998947
      dz2     :     0.005761  d :     0.024436
      dxz     :     0.001308
      dyz     :     0.007292
      dx2y2   :     0.004300
      dxy     :     0.005775
  1 C s       :     3.099081  s :     3.099081
      pz      :     0.894257  p :     2.524811
      px      :     0.808230
      py      :     0.822323
      dz2     :     0.026116  d :     0.151392
      dxz     :     0.022286
      dyz     :     0.025311
      dx2y2   :     0.033532
      dxy     :     0.044147
  2 O s       :     3.781141  s :     3.781141
      pz      :     1.460208  p :     4.473821
      px      :     1.323776
      py      :     1.689837
      dz2     :     0.003213  d :     0.016946
      dxz     :     0.005284
      dyz     :     0.001692
      dx2y2   :     0.003986
      dxy     :     0.002771
  3 F s       :     3.860675  s :     3.860675
      pz      :     1.876368  p :     5.213605
      px      :     1.733047
      py      :     1.604190
      dz2     :     0.001367  d :     0.010532
      dxz     :     0.000861
      dyz     :     0.001707
      dx2y2   :     0.002724
      dxy     :     0.003872
  4 H s       :     0.902847  s :     0.902847
      pz      :     0.004299  p :     0.024390
      px      :     0.009942
      py      :     0.010148
  5 H s       :     0.906873  s :     0.906873
      pz      :     0.013610  p :     0.026071
      px      :     0.005766
      py      :     0.006695
  6 H s       :     0.911199  s :     0.911199
      pz      :     0.005557  p :     0.025992
      px      :     0.014028
      py      :     0.006406


                     *******************************
                     * LOEWDIN POPULATION ANALYSIS *
                     *******************************

----------------------
LOEWDIN ATOMIC CHARGES
----------------------
   0 C :   -0.081175
   1 C :    0.110868
   2 O :   -0.203833
   3 F :    0.037520
   4 H :    0.048215
   5 H :    0.045339
   6 H :    0.043065

-------------------------------
LOEWDIN REDUCED ORBITAL CHARGES
-------------------------------
  0 C s       :     2.832803  s :     2.832803
      pz      :     1.046858  p :     3.180361
      px      :     1.084012
      py      :     1.049491
      dz2     :     0.016474  d :     0.068012
      dxz     :     0.003298
      dyz     :     0.020807
      dx2y2   :     0.010856
      dxy     :     0.016577
  1 C s       :     2.872607  s :     2.872607
      pz      :     0.922009  p :     2.694780
      px      :     0.897717
      py      :     0.875054
      dz2     :     0.051223  d :     0.321745
      dxz     :     0.048975
      dyz     :     0.054154
      dx2y2   :     0.071245
      dxy     :     0.096148
  2 O s       :     3.587187  s :     3.587187
      pz      :     1.494145  p :     4.588628
      px      :     1.411044
      py      :     1.683439
      dz2     :     0.003826  d :     0.028017
      dxz     :     0.011141
      dyz     :     0.002210
      dx2y2   :     0.006915
      dxy     :     0.003925
  3 F s       :     3.683648  s :     3.683648
      pz      :     1.860041  p :     5.261222
      px      :     1.749897
      py      :     1.651285
      dz2     :     0.002586  d :     0.017610
      dxz     :     0.001237
      dyz     :     0.002452
      dx2y2   :     0.004082
      dxy     :     0.007252
  4 H s       :     0.881248  s :     0.881248
      pz      :     0.012938  p :     0.070537
      px      :     0.027025
      py      :     0.030574
  5 H s       :     0.882335  s :     0.882335
      pz      :     0.038608  p :     0.072326
      px      :     0.014968
      py      :     0.018750
  6 H s       :     0.884650  s :     0.884650
      pz      :     0.015349  p :     0.072285
      px      :     0.038846
      py      :     0.018089


                      *****************************
                      * MAYER POPULATION ANALYSIS *
                      *****************************

  NA   - Mulliken gross atomic population
  ZA   - Total nuclear charge
  QA   - Mulliken gross atomic charge
  VA   - Mayer's total valence
  BVA  - Mayer's bonded valence
  FA   - Mayer's free valence

  ATOM       NA         ZA         QA         VA         BVA        FA
  0 C      6.0706     6.0000    -0.0706     3.8970     3.8970     0.0000
  1 C      5.7753     6.0000     0.2247     4.3340     4.3340    -0.0000
  2 O      8.2719     8.0000    -0.2719     2.1779     2.1779    -0.0000
  3 F      9.0848     9.0000    -0.0848     1.2569     1.2569     0.0000
  4 H      0.9272     1.0000     0.0728     1.0125     1.0125     0.0000
  5 H      0.9329     1.0000     0.0671     0.9956     0.9956     0.0000
  6 H      0.9372     1.0000     0.0628     0.9948     0.9948     0.0000

  Mayer bond orders larger than 0.100000
B(  0-C ,  1-C ) :   1.0265 B(  0-C ,  4-H ) :   0.9714 B(  0-C ,  5-H ) :   0.9566 
B(  0-C ,  6-H ) :   0.9561 B(  1-C ,  2-O ) :   2.0813 B(  1-C ,  3-F ) :   1.1806 


-------
TIMINGS
-------

Total SCF time: 0 days 0 hours 0 min 2 sec 

Total time                  ....       2.755 sec
Sum of individual times     ....       2.616 sec  ( 95.0%)

Fock matrix formation       ....       2.072 sec  ( 75.2%)
  Split-RI-J                ....       0.290 sec  ( 14.0% of F)
  Chain of spheres X        ....       1.466 sec  ( 70.7% of F)
  XC integration            ....       0.289 sec  ( 13.9% of F)
    Basis function eval.    ....       0.089 sec  ( 30.8% of XC)
    Density eval.           ....       0.039 sec  ( 13.5% of XC)
    XC-Functional eval.     ....       0.051 sec  ( 17.7% of XC)
    XC-Potential eval.      ....       0.036 sec  ( 12.4% of XC)
Diagonalization             ....       0.022 sec  (  0.8%)
Density matrix formation    ....       0.002 sec  (  0.1%)
Population analysis         ....       0.004 sec  (  0.1%)
Initial guess               ....       0.018 sec  (  0.7%)
Orbital Transformation      ....       0.000 sec  (  0.0%)
Orbital Orthonormalization  ....       0.000 sec  (  0.0%)
DIIS solution               ....       0.022 sec  (  0.8%)
SOSCF solution              ....       0.015 sec  (  0.6%)
Grid generation             ....       0.461 sec  ( 16.7%)

Maximum memory used throughout the entire SCF-calculation: 45.1 MB


-------------------------------------------------------------------------------
                          DFT DISPERSION CORRECTION                            
                                                                               
                              DFTD3 V3.1  Rev 1                                
                              USING zero damping                               
-------------------------------------------------------------------------------
The omegaB97X-D3 functional is recognized. Fit by Chai et al.
Active option DFTDOPT                   ...         3   

molecular C6(AA) [au] = 427.234819 


            DFT-D V3
 parameters
 s6 scaling factor         :     1.0000 
 rs6 scaling factor        :     1.2810 
 s8 scaling factor         :     1.0000 
 rs8 scaling factor        :     1.0940 
 Damping factor alpha6     :    14.0000 
 Damping factor alpha8     :    16.0000 
 ad hoc parameters k1-k3   :    16.0000     1.3333    -4.0000 

 Edisp/kcal,au: -0.562924929124  -0.000897077881 
 E6   /kcal   :  -0.192459516 
 E8   /kcal   :  -0.370465414 
 % E8         :  65.810802550 

-------------------------   ----------------
Dispersion correction           -0.000897078
-------------------------   ----------------


-------------------------   --------------------
FINAL SINGLE POINT ENERGY      -252.819954662887
-------------------------   --------------------


                            ***************************************
                            *     ORCA property calculations      *
                            ***************************************

                                    ---------------------
                                    Active property flags
                                    ---------------------
   (+) Dipole Moment


------------------------------------------------------------------------------
                       ORCA ELECTRIC PROPERTIES CALCULATION
------------------------------------------------------------------------------

Dipole Moment Calculation                       ... on
Quadrupole Moment Calculation                   ... off
Polarizability Calculation                      ... off
GBWName                                         ... C2_neg.gbw
Electron density file                           ... C2_neg.scfp
The origin for moment calculation is the CENTER OF MASS  = (-0.833170, -0.376341 -9.857133)

-------------
DIPOLE MOMENT
-------------
                                X             Y             Z
Electronic contribution:     -0.41780      -4.28258      -2.78236
Nuclear contribution   :     -0.31181       4.56949       3.61460
                        -----------------------------------------
Total Dipole Moment    :     -0.72961       0.28692       0.83224
                        -----------------------------------------
Magnitude (a.u.)       :      1.14336
Magnitude (Debye)      :      2.90620



--------------------
Rotational spectrum 
--------------------
 
Rotational constants in cm-1:     0.370228     0.320104     0.177247 
Rotational constants in MHz : 11099.151631  9596.483000  5313.726171 

 Dipole components along the rotational axes: 
x,y,z [a.u.] :    -0.635893     0.950157    -0.011100 
x,y,z [Debye]:    -1.616311     2.415107    -0.028214 

 

Timings for individual modules:

Sum of individual times         ...        3.663 sec (=   0.061 min)
GTO integral calculation        ...        0.525 sec (=   0.009 min)  14.3 %
SCF iterations                  ...        3.139 sec (=   0.052 min)  85.7 %
                             ****ORCA TERMINATED NORMALLY****
TOTAL RUN TIME: 0 days 0 hours 0 minutes 4 seconds 176 msec
