
                                        *****************
                                        * O   R   C   A *
                                        *****************

                                            #,                                       
                                            ###                                      
                                            ####                                     
                                            #####                                    
                                            ######                                   
                                           ########,                                 
                                     ,,################,,,,,                         
                               ,,#################################,,                 
                          ,,##########################################,,             
                       ,#########################################, ''#####,          
                    ,#############################################,,   '####,        
                  ,##################################################,,,,####,       
                ,###########''''           ''''###############################       
              ,#####''   ,,,,##########,,,,          '''####'''          '####       
            ,##' ,,,,###########################,,,                        '##       
           ' ,,###''''                  '''############,,,                           
         ,,##''                                '''############,,,,        ,,,,,,###''
      ,#''                                            '''#######################'''  
     '                                                          ''''####''''         
             ,#######,   #######,   ,#######,      ##                                
            ,#'     '#,  ##    ##  ,#'     '#,    #''#        ######   ,####,        
            ##       ##  ##   ,#'  ##            #'  '#       #        #'  '#        
            ##       ##  #######   ##           ,######,      #####,   #    #        
            '#,     ,#'  ##    ##  '#,     ,#' ,#      #,         ##   #,  ,#        
             '#######'   ##     ##  '#######'  #'      '#     #####' # '####'        



                  #######################################################
                  #                        -***-                        #
                  #          Department of theory and spectroscopy      #
                  #    Directorship and core code : Frank Neese         #
                  #        Max Planck Institute fuer Kohlenforschung    #
                  #                Kaiser Wilhelm Platz 1               #
                  #                 D-45470 Muelheim/Ruhr               #
                  #                      Germany                        #
                  #                                                     #
                  #                  All rights reserved                #
                  #                        -***-                        #
                  #######################################################


                         Program Version 5.0.0 -  RELEASE  -
                                (SVN: $Rev: 19529$)
                ($Date: 2021-06-28 11:36:33 +0200 (Mo, 28 Jun 2021) $)


 With contributions from (in alphabetic order):
   Daniel Aravena         : Magnetic Suceptibility
   Michael Atanasov       : Ab Initio Ligand Field Theory (pilot matlab implementation)
   Alexander A. Auer      : GIAO ZORA, VPT2 properties, NMR spectrum
   Ute Becker             : Parallelization
   Giovanni Bistoni       : ED, misc. LED, open-shell LED, HFLD
   Martin Brehm           : Molecular dynamics
   Dmytro Bykov           : SCF Hessian
   Vijay G. Chilkuri      : MRCI spin determinant printing, contributions to CSF-ICE
   Dipayan Datta          : RHF DLPNO-CCSD density
   Achintya Kumar Dutta   : EOM-CC, STEOM-CC
   Dmitry Ganyushin       : Spin-Orbit,Spin-Spin,Magnetic field MRCI
   Miquel Garcia          : C-PCM Hessian, Gaussian charge scheme
   Yang Guo               : DLPNO-NEVPT2, F12-NEVPT2, CIM, IAO-localization
   Andreas Hansen         : Spin unrestricted coupled pair/coupled cluster methods
   Benjamin Helmich-Paris : MC-RPA, TRAH-SCF, COSX integrals
   Lee Huntington         : MR-EOM, pCC
   Robert Izsak           : Overlap fitted RIJCOSX, COSX-SCS-MP3, EOM
   Marcus Kettner         : VPT2
   Christian Kollmar      : KDIIS, OOCD, Brueckner-CCSD(T), CCSD density, CASPT2, CASPT2-K
   Simone Kossmann        : Meta GGA functionals, TD-DFT gradient, OOMP2, MP2 Hessian
   Martin Krupicka        : Initial AUTO-CI
   Lucas Lang             : DCDCAS
   Marvin Lechner         : AUTO-CI (C++ implementation), FIC-MRCC
   Dagmar Lenk            : GEPOL surface, SMD
   Dimitrios Liakos       : Extrapolation schemes; Compound Job, initial MDCI parallelization
   Dimitrios Manganas     : Further ROCIS development; embedding schemes
   Dimitrios Pantazis     : SARC Basis sets
   Anastasios Papadopoulos: AUTO-CI, single reference methods and gradients
   Taras Petrenko         : DFT Hessian,TD-DFT gradient, ASA, ECA, R-Raman, ABS, FL, XAS/XES, NRVS
   Peter Pinski           : DLPNO-MP2, DLPNO-MP2 Gradient
   Christoph Reimann      : Effective Core Potentials
   Marius Retegan         : Local ZFS, SOC
   Christoph Riplinger    : Optimizer, TS searches, QM/MM, DLPNO-CCSD(T), (RO)-DLPNO pert. Triples
   Tobias Risthaus        : Range-separated hybrids, TD-DFT gradient, RPA, STAB
   Michael Roemelt        : Original ROCIS implementation
   Masaaki Saitow         : Open-shell DLPNO-CCSD energy and density
   Barbara Sandhoefer     : DKH picture change effects
   Avijit Sen             : IP-ROCIS
   Kantharuban Sivalingam : CASSCF convergence, NEVPT2, FIC-MRCI
   Bernardo de Souza      : ESD, SOC TD-DFT
   Georgi Stoychev        : AutoAux, RI-MP2 NMR
   Willem Van den Heuvel  : Paramagnetic NMR
   Boris Wezisla          : Elementary symmetry handling
   Frank Wennmohs         : Technical directorship


 We gratefully acknowledge several colleagues who have allowed us to
 interface, adapt or use parts of their codes:
   Stefan Grimme, W. Hujo, H. Kruse, P. Pracht,  : VdW corrections, initial TS optimization,
                  C. Bannwarth, S. Ehlert          DFT functionals, gCP, sTDA/sTD-DF
   Ed Valeev, F. Pavosevic, A. Kumar             : LibInt (2-el integral package), F12 methods
   Garnet Chan, S. Sharma, J. Yang, R. Olivares  : DMRG
   Ulf Ekstrom                                   : XCFun DFT Library
   Mihaly Kallay                                 : mrcc  (arbitrary order and MRCC methods)
   Jiri Pittner, Ondrej Demel                    : Mk-CCSD
   Frank Weinhold                                : gennbo (NPA and NBO analysis)
   Christopher J. Cramer and Donald G. Truhlar   : smd solvation model
   Lars Goerigk                                  : TD-DFT with DH, B97 family of functionals
   V. Asgeirsson, H. Jonsson                     : NEB implementation
   FAccTs GmbH                                   : IRC, NEB, NEB-TS, DLPNO-Multilevel, CI-OPT
                                                   MM, QMMM, 2- and 3-layer-ONIOM, Crystal-QMMM,
                                                   LR-CPCM, SF, NACMEs, symmetry and pop. for TD-DFT,
                                                   nearIR, NL-DFT gradient (VV10), updates on ESD,
                                                   ML-optimized integration grids
   S Lehtola, MJT Oliveira, MAL Marques          : LibXC Library
   Liviu Ungur et al                             : ANISO software


 Your calculation uses the libint2 library for the computation of 2-el integrals
 For citations please refer to: http://libint.valeyev.net

 Your ORCA version has been built with support for libXC version: 5.1.0
 For citations please refer to: https://tddft.org/programs/libxc/

 This ORCA versions uses:
   CBLAS   interface :  Fast vector & matrix operations
   LAPACKE interface :  Fast linear algebra routines
   SCALAPACK package :  Parallel linear algebra routines
   Shared memory     :  Shared parallel matrices
   BLAS/LAPACK       :  OpenBLAS 0.3.15  USE64BITINT DYNAMIC_ARCH NO_AFFINITY Haswell SINGLE_THREADED
        Core in use  :  Haswell
   Copyright (c) 2011-2014, The OpenBLAS Project


XCFun DFT library Copyright 2009-2010 Ulf Ekstrom and contributors.
See http://admol.org/xcfun for more information.
This is free software; see the source code for copying conditions.
There is ABSOLUTELY NO WARRANTY; not even for MERCHANTABILITY or FITNESS FOR A PARTICULAR PURPOSE.
For details see the documentation.
Scientific users of this library should cite U. Ekstrom, L. Visscher, R. Bast, A. J. Thorvaldsen and K. Ruud;
J.Chem.Theor.Comp. 2010, DOI: 10.1021/ct100117s
XCFun Version 0.99 

================================================================================

----- Orbital basis set information -----
Your calculation utilizes the basis: def2-SVPD
   F. Weigend and R. Ahlrichs, Phys. Chem. Chem. Phys. 7, 3297 (2005).
   D. Rappoport and F. Furche, J. Chem. Phys. 133 134105 (2010).

----- AuxJ basis set information -----
Your calculation utilizes the auxiliary basis: def2/J
   F. Weigend, Phys. Chem. Chem. Phys. 8, 1057 (2006).

================================================================================
                                        WARNINGS
                       Please study these warnings very carefully!
================================================================================


INFO   : the flag for use of the SHARK integral package has been found!

================================================================================
                                       INPUT FILE
================================================================================
NAME = 14Feb_SVPD_LC_BLYP_C2_wt_wb97_typ1_pos.com
|  1> !LC-BLYP RIJCOSX def2-SVPD def2/J TightSCF 
|  2> *xyz 0 1
|  3> C          4.99986       -1.59613       -5.92488
|  4> N          5.28156       -1.97413       -4.53576
|  5> C          3.76678       -2.26611       -6.51175
|  6> C          2.49670       -1.84416       -5.73570
|  7> C          4.79250       -1.36132       -3.45730
|  8> C          3.93990       -0.37492       -3.55736
|  9> N          5.25986       -1.75422       -2.23913
| 10> H          5.92282       -2.52145       -2.18672
| 11> H          4.65468       -1.64040       -1.44202
| 12> H          5.70914       -2.87560       -4.38702
| 13> H          3.33010       -0.31764       -4.36125
| 14> H          3.69849        0.11447       -2.70833
| 15> H          4.84333       -0.51793       -5.94302
| 16> H          5.90170       -1.82250       -6.49647
| 17> H          3.88619       -3.35708       -6.53360
| 18> H          3.68560       -1.92217       -7.54713
| 19> H          1.64155       -2.32499       -6.16281
| 20> H          2.37707       -0.78268       -5.79763
| 21> H          2.59306       -2.13299       -4.70994
| 22> *
| 23> 
| 24> %MaxCore 64000
| 25> 
| 26> %pal nprocs 4
| 27> end  
| 28> 
| 29> %scf
| 30>   MaxIter 150
| 31> end
| 32> 
| 33> 
| 34>                          ****END OF INPUT****
================================================================================

                       ****************************
                       * Single Point Calculation *
                       ****************************

---------------------------------
CARTESIAN COORDINATES (ANGSTROEM)
---------------------------------
  C      4.999860   -1.596130   -5.924880
  N      5.281560   -1.974130   -4.535760
  C      3.766780   -2.266110   -6.511750
  C      2.496700   -1.844160   -5.735700
  C      4.792500   -1.361320   -3.457300
  C      3.939900   -0.374920   -3.557360
  N      5.259860   -1.754220   -2.239130
  H      5.922820   -2.521450   -2.186720
  H      4.654680   -1.640400   -1.442020
  H      5.709140   -2.875600   -4.387020
  H      3.330100   -0.317640   -4.361250
  H      3.698490    0.114470   -2.708330
  H      4.843330   -0.517930   -5.943020
  H      5.901700   -1.822500   -6.496470
  H      3.886190   -3.357080   -6.533600
  H      3.685600   -1.922170   -7.547130
  H      1.641550   -2.324990   -6.162810
  H      2.377070   -0.782680   -5.797630
  H      2.593060   -2.132990   -4.709940

----------------------------
CARTESIAN COORDINATES (A.U.)
----------------------------
  NO LB      ZA    FRAG     MASS         X           Y           Z
   0 C     6.0000    0    12.011    9.448366   -3.016249  -11.196401
   1 N     7.0000    0    14.007    9.980702   -3.730565   -8.571344
   2 C     6.0000    0    12.011    7.118183   -4.282327  -12.305424
   3 C     6.0000    0    12.011    4.718079   -3.484957  -10.838902
   4 C     6.0000    0    12.011    9.056512   -2.572522   -6.533350
   5 C     6.0000    0    12.011    7.445332   -0.708496   -6.722436
   6 N     7.0000    0    14.007    9.939695   -3.314995   -4.231342
   7 H     1.0000    0     1.008   11.192508   -4.764850   -4.132302
   8 H     1.0000    0     1.008    8.796070   -3.099907   -2.725023
   9 H     1.0000    0     1.008   10.788711   -5.434096   -8.290266
  10 H     1.0000    0     1.008    6.292977   -0.600253   -8.241568
  11 H     1.0000    0     1.008    6.989133    0.216317   -5.118002
  12 H     1.0000    0     1.008    9.152567   -0.978746  -11.230680
  13 H     1.0000    0     1.008   11.152597   -3.444026  -12.276549
  14 H     1.0000    0     1.008    7.343835   -6.343962  -12.346715
  15 H     1.0000    0     1.008    6.964775   -3.632375  -14.262009
  16 H     1.0000    0     1.008    3.102080   -4.393594  -11.646023
  17 H     1.0000    0     1.008    4.492011   -1.479051  -10.955933
  18 H     1.0000    0     1.008    4.900173   -4.030767   -8.900497

--------------------------------
INTERNAL COORDINATES (ANGSTROEM)
--------------------------------
 C      0   0   0     0.000000000000     0.00000000     0.00000000
 N      1   0   0     1.466933285600     0.00000000     0.00000000
 C      1   2   0     1.521110082703   114.04948771     0.00000000
 C      3   1   2     1.547061282367   110.60000472    62.81941014
 C      2   1   3     1.333338573394   125.24465126   271.38369046
 C      5   2   1     1.307640517726   121.59821647     3.37662360
 N      5   2   1     1.362620243685   117.69524840   186.46465187
 H      7   5   2     1.015334744112   119.20799220   357.06852641
 H      7   5   2     1.007264700513   117.95745335   207.37675318
 H      2   1   3     1.008759835095   116.82696572    77.45307476
 H      6   5   2     1.010631570109   119.80406451    27.35455603
 H      6   5   2     1.009273650255   117.21677800   187.25423597
 H      1   2   3     1.089654046246   107.35684638   119.90287312
 H      1   2   3     1.091454942084   106.48717401   235.80932251
 H      3   1   2     1.097702924976   110.93137330   298.25148283
 H      3   1   2     1.094027723780   106.66746513   181.39983442
 H      4   3   1     1.070000917523   109.47042451   179.99973760
 H      4   3   1     1.069993669234   109.47079675    59.99999653
 H      4   3   1     1.069996072937   109.47126304   299.99955031

---------------------------
INTERNAL COORDINATES (A.U.)
---------------------------
 C      0   0   0     0.000000000000     0.00000000     0.00000000
 N      1   0   0     2.772102166517     0.00000000     0.00000000
 C      1   2   0     2.874481475855   114.04948771     0.00000000
 C      3   1   2     2.923522136067   110.60000472    62.81941014
 C      2   1   3     2.519644747508   125.24465126   271.38369046
 C      5   2   1     2.471082460122   121.59821647     3.37662360
 N      5   2   1     2.574979085102   117.69524840   186.46465187
 H      7   5   2     1.918704600626   119.20799220   357.06852641
 H      7   5   2     1.903454428336   117.95745335   207.37675318
 H      2   1   3     1.906279823228   116.82696572    77.45307476
 H      6   5   2     1.909816889800   119.80406451    27.35455603
 H      6   5   2     1.907250793166   117.21677800   187.25423597
 H      1   2   3     2.059147728124   107.35684638   119.90287312
 H      1   2   3     2.062550928054   106.48717401   235.80932251
 H      3   1   2     2.074357904608   110.93137330   298.25148283
 H      3   1   2     2.067412780862   106.66746513   181.39983442
 H      4   3   1     2.022008697163   109.47042451   179.99973760
 H      4   3   1     2.021994999881   109.47079675    59.99999653
 H      4   3   1     2.021999542222   109.47126304   299.99955031

---------------------
BASIS SET INFORMATION
---------------------
There are 3 groups of distinct atoms

 Group   1 Type C   : 8s4p2d contracted to 4s2p2d pattern {5111/31/11}
 Group   2 Type N   : 8s4p2d contracted to 4s2p2d pattern {5111/31/11}
 Group   3 Type H   : 4s2p contracted to 2s2p pattern {31/11}

Atom   0C    basis set group =>   1
Atom   1N    basis set group =>   2
Atom   2C    basis set group =>   1
Atom   3C    basis set group =>   1
Atom   4C    basis set group =>   1
Atom   5C    basis set group =>   1
Atom   6N    basis set group =>   2
Atom   7H    basis set group =>   3
Atom   8H    basis set group =>   3
Atom   9H    basis set group =>   3
Atom  10H    basis set group =>   3
Atom  11H    basis set group =>   3
Atom  12H    basis set group =>   3
Atom  13H    basis set group =>   3
Atom  14H    basis set group =>   3
Atom  15H    basis set group =>   3
Atom  16H    basis set group =>   3
Atom  17H    basis set group =>   3
Atom  18H    basis set group =>   3
---------------------------------
AUXILIARY/J BASIS SET INFORMATION
---------------------------------
There are 3 groups of distinct atoms

 Group   1 Type C   : 12s5p4d2f1g contracted to 6s4p3d1f1g pattern {711111/2111/211/2/1}
 Group   2 Type N   : 12s5p4d2f1g contracted to 6s4p3d1f1g pattern {711111/2111/211/2/1}
 Group   3 Type H   : 5s2p1d contracted to 3s1p1d pattern {311/2/1}

Atom   0C    basis set group =>   1
Atom   1N    basis set group =>   2
Atom   2C    basis set group =>   1
Atom   3C    basis set group =>   1
Atom   4C    basis set group =>   1
Atom   5C    basis set group =>   1
Atom   6N    basis set group =>   2
Atom   7H    basis set group =>   3
Atom   8H    basis set group =>   3
Atom   9H    basis set group =>   3
Atom  10H    basis set group =>   3
Atom  11H    basis set group =>   3
Atom  12H    basis set group =>   3
Atom  13H    basis set group =>   3
Atom  14H    basis set group =>   3
Atom  15H    basis set group =>   3
Atom  16H    basis set group =>   3
Atom  17H    basis set group =>   3
Atom  18H    basis set group =>   3


           ************************************************************
           *        Program running with 4 parallel MPI-processes     *
           *              working on a common directory               *
           ************************************************************
------------------------------------------------------------------------------
                           ORCA GTO INTEGRAL CALCULATION
                           -- RI-GTO INTEGRALS CHOSEN --
------------------------------------------------------------------------------
------------------------------------------------------------------------------
                   ___                                                        
                  /   \      - P O W E R E D   B Y -                         
                 /     \                                                     
                 |  |  |   _    _      __       _____    __    __             
                 |  |  |  | |  | |    /  \     |  _  \  |  |  /  |          
                  \  \/   | |  | |   /    \    | | | |  |  | /  /          
                 / \  \   | |__| |  /  /\  \   | |_| |  |  |/  /          
                |  |  |   |  __  | /  /__\  \  |    /   |      \           
                |  |  |   | |  | | |   __   |  |    \   |  |\   \          
                \     /   | |  | | |  |  |  |  | |\  \  |  | \   \       
                 \___/    |_|  |_| |__|  |__|  |_| \__\ |__|  \__/        
                                                                              
                      - O R C A' S   B I G   F R I E N D -                    
                                      &                                       
                       - I N T E G R A L  F E E D E R -                       
                                                                              
 v1 FN, 2020, v2 2021                                                         
------------------------------------------------------------------------------


Reading SHARK input file 14Feb_SVPD_LC_BLYP_C2_wt_wb97_typ1_pos.SHARKINP.tmp ... ok
----------------------
SHARK INTEGRAL PACKAGE
----------------------

Number of atoms                             ...     19
Number of basis functions                   ...    236
Number of shells                            ...    104
Maximum angular momentum                    ...      2
Integral batch strategy                     ... SHARK/LIBINT Hybrid
RI-J (if used) integral strategy            ... SPLIT-RIJ (Revised 2003 algorithm where possible)
Printlevel                                  ...      1
Contraction scheme used                     ... SEGMENTED contraction
Coulomb Range Separation                    ... NOT USED
Exchange Range Separation                   ... Long Range
   Mu parameter                             ...  0.330000
   Scaling (regular/separated)              ...  0.000000  1.000000
Finite Nucleus Model                        ... NOT USED
Auxiliary Coulomb fitting basis             ... AVAILABLE
   # of basis functions in Aux-J            ...    475
   # of shells in Aux-J                     ...    165
   Maximum angular momentum in Aux-J        ...      4
Auxiliary J/K fitting basis                 ... NOT available
Auxiliary Correlation fitting basis         ... NOT available
Auxiliary 'external' fitting basis          ... NOT available
Integral threshold                          ...     2.500000e-11
Primitive cut-off                           ...     2.500000e-12
Primitive pair pre-selection threshold      ...     2.500000e-12

Calculating pre-screening integrals         ... done (  0.0 sec) Dimension = 104
Organizing shell pair data                  ... done (  0.0 sec)
Shell pair information
Total number of shell pairs                 ...      5460
Shell pairs after pre-screening             ...      5339
Total number of primitive shell pairs       ...     14662
Primitive shell pairs kept                  ...     11807
          la=0 lb=0:   1341 shell pairs
          la=1 lb=0:   1927 shell pairs
          la=1 lb=1:    722 shell pairs
          la=2 lb=0:    720 shell pairs
          la=2 lb=1:    524 shell pairs
          la=2 lb=2:    105 shell pairs

Calculating one electron integrals          ... done (  0.0 sec)
Calculating RI/J V-Matrix + Cholesky decomp.... done (  0.0 sec)
Calculating Nuclear repulsion               ... done (  0.0 sec) ENN=    325.550375095609 Eh

SHARK setup successfully completed in   0.2 seconds

Maximum memory used throughout the entire GTOINT-calculation: 10.5 MB


           ************************************************************
           *        Program running with 4 parallel MPI-processes     *
           *              working on a common directory               *
           ************************************************************
-------------------------------------------------------------------------------
                                 ORCA SCF
-------------------------------------------------------------------------------

------------
SCF SETTINGS
------------
Hamiltonian:
 Density Functional     Method          .... DFT(GTOs)
 Exchange Functional    Exchange        .... WB88
 Correlation Functional Correlation     .... LYP
 Gradients option       PostSCFGGA      .... off
   Density functional embedding theory  .... OFF
 Long-range corrected/Screened/Range-Separated Hybrid DFT is turned on
   Amount of maximum screened exact exchange              ....  1.000000
   Range separation parameter mu (erf(mu*r12)/r12)        ....  0.330000
 RI-approximation to the Coulomb term is turned on
   Number of AuxJ basis functions       .... 475
   RIJ-COSX (HFX calculated with COS-X)).... on


General Settings:
 Integral files         IntName         .... 14Feb_SVPD_LC_BLYP_C2_wt_wb97_typ1_pos
 Hartree-Fock type      HFTyp           .... RHF
 Total Charge           Charge          ....    0
 Multiplicity           Mult            ....    1
 Number of Electrons    NEL             ....   56
 Basis Dimension        Dim             ....  236
 Nuclear Repulsion      ENuc            ....    325.5503750956 Eh

Convergence Acceleration:
 DIIS                   CNVDIIS         .... on
   Start iteration      DIISMaxIt       ....    12
   Startup error        DIISStart       ....  0.200000
   # of expansion vecs  DIISMaxEq       ....     5
   Bias factor          DIISBfac        ....   1.050
   Max. coefficient     DIISMaxC        ....  10.000
 Trust-Rad. Augm. Hess. CNVTRAH         .... auto
   Auto Start mean grad. ratio tolernc. ....  1.125000
   Auto Start start iteration           ....    20
   Auto Start num. interpolation iter.  ....    10
   Max. Number of Micro iterations      ....    16
   Max. Number of Macro iterations      .... Maxiter - #DIIS iter
   Number of Davidson start vectors     ....     2
   Converg. threshold I  (grad. norm)   ....   1.000e-05
   Converg. threshold II (energy diff.) ....   1.000e-08
   Grad. Scal. Fac. for Micro threshold ....   0.100
   Minimum threshold for Micro iter.    ....   0.010
   NR start threshold (gradient norm)   ....   0.001
   Initial trust radius                 ....   0.400
   Minimum AH scaling param. (alpha)    ....   1.000
   Maximum AH scaling param. (alpha)    .... 1000.000
   Orbital update algorithm             .... Taylor
   White noise on init. David. guess    .... on
   Maximum white noise                  ....   0.010
   Quad. conv. algorithm                .... NR
 SOSCF                  CNVSOSCF        .... on
   Start iteration      SOSCFMaxIt      ....   150
   Startup grad/error   SOSCFStart      ....  0.003300
 Level Shifting         CNVShift        .... on
   Level shift para.    LevelShift      ....    0.2500
   Turn off err/grad.   ShiftErr        ....    0.0010
 Zerner damping         CNVZerner       .... off
 Static damping         CNVDamp         .... on
   Fraction old density DampFac         ....    0.7000
   Max. Damping (<1)    DampMax         ....    0.9800
   Min. Damping (>=0)   DampMin         ....    0.0000
   Turn off err/grad.   DampErr         ....    0.1000
 Fernandez-Rico         CNVRico         .... off

SCF Procedure:
 Maximum # iterations   MaxIter         ....   150
 SCF integral mode      SCFMode         .... Direct
   Integral package                     .... SHARK and LIBINT hybrid scheme
 Reset frequency        DirectResetFreq ....    20
 Integral Threshold     Thresh          ....  2.500e-11 Eh
 Primitive CutOff       TCut            ....  2.500e-12 Eh

Convergence Tolerance:
 Convergence Check Mode ConvCheckMode   .... Total+1el-Energy
 Convergence forced     ConvForced      .... 0
 Energy Change          TolE            ....  1.000e-08 Eh
 1-El. energy change                    ....  1.000e-05 Eh
 Orbital Gradient       TolG            ....  1.000e-05
 Orbital Rotation angle TolX            ....  1.000e-05
 DIIS Error             TolErr          ....  5.000e-07


Diagonalization of the overlap matrix:
Smallest eigenvalue                        ... 3.734e-05
Time for diagonalization                   ...    0.015 sec
Threshold for overlap eigenvalues          ... 1.000e-08
Number of eigenvalues below threshold      ... 0
Time for construction of square roots      ...    0.011 sec
Total time needed                          ...    0.027 sec

Time for model grid setup =    0.127 sec

------------------------------
INITIAL GUESS: MODEL POTENTIAL
------------------------------
Loading Hartree-Fock densities                     ... done
Calculating cut-offs                               ... done
Initializing the effective Hamiltonian             ... done
Setting up the integral package (SHARK)            ... done
Starting the Coulomb interaction                   ... done (   0.1 sec)
Reading the grid                                   ... done
Mapping shells                                     ... done
Starting the XC term evaluation                    ... done (   0.1 sec)
  promolecular density results
     # of electrons  =     55.990463693
     EX              =    -42.295116917
     EC              =     -1.847921063
     EX+EC           =    -44.143037981
Transforming the Hamiltonian                       ... done (   0.0 sec)
Diagonalizing the Hamiltonian                      ... done (   0.0 sec)
Back transforming the eigenvectors                 ... done (   0.0 sec)
Now organizing SCF variables                       ... done
                      ------------------
                      INITIAL GUESS DONE (   0.4 sec)
                      ------------------
-------------------
DFT GRID GENERATION
-------------------

General Integration Accuracy     IntAcc      ... 4.388
Radial Grid Type                 RadialGrid  ... OptM3 with GC (2021)
Angular Grid (max. ang.)         AngularGrid ... 4 (Lebedev-302)
Angular grid pruning method      GridPruning ... 4 (adaptive)
Weight generation scheme         WeightScheme... Becke
Basis function cutoff            BFCut       ... 1.0000e-11
Integration weight cutoff        WCut        ... 1.0000e-14
Angular grids for H and He will be reduced by one unit
Partially contracted basis set               ... off
Rotationally invariant grid construction     ... off

Total number of grid points                  ...    82567
Total number of batches                      ...     1298
Average number of points per batch           ...       63
Average number of grid points per atom       ...     4346
Time for grid setup =    0.526 sec

--------------------
COSX GRID GENERATION
--------------------

GRIDX 1
-------
General Integration Accuracy     IntAcc      ... 3.816
Radial Grid Type                 RadialGrid  ... OptM3 with GC (2021)
Angular Grid (max. ang.)         AngularGrid ... 1 (Lebedev-50)
Angular grid pruning method      GridPruning ... 4 (adaptive)
Weight generation scheme         WeightScheme... Becke
Basis function cutoff            BFCut       ... 1.0000e-11
Integration weight cutoff        WCut        ... 1.0000e-14
Angular grids for H and He will be reduced by one unit
Partially contracted basis set               ... on
Rotationally invariant grid construction     ... off

Total number of grid points                  ...    10305
Total number of batches                      ...      172
Average number of points per batch           ...       59
Average number of grid points per atom       ...      542
UseSFitting                                  ... on

GRIDX 2
-------
General Integration Accuracy     IntAcc      ... 4.020
Radial Grid Type                 RadialGrid  ... OptM3 with GC (2021)
Angular Grid (max. ang.)         AngularGrid ... 2 (Lebedev-110)
Angular grid pruning method      GridPruning ... 4 (adaptive)
Weight generation scheme         WeightScheme... Becke
Basis function cutoff            BFCut       ... 1.0000e-11
Integration weight cutoff        WCut        ... 1.0000e-14
Angular grids for H and He will be reduced by one unit
Partially contracted basis set               ... on
Rotationally invariant grid construction     ... off

Total number of grid points                  ...    22455
Total number of batches                      ...      362
Average number of points per batch           ...       62
Average number of grid points per atom       ...     1182
UseSFitting                                  ... on

GRIDX 3
-------
General Integration Accuracy     IntAcc      ... 4.338
Radial Grid Type                 RadialGrid  ... OptM3 with GC (2021)
Angular Grid (max. ang.)         AngularGrid ... 3 (Lebedev-194)
Angular grid pruning method      GridPruning ... 4 (adaptive)
Weight generation scheme         WeightScheme... Becke
Basis function cutoff            BFCut       ... 1.0000e-11
Integration weight cutoff        WCut        ... 1.0000e-14
Angular grids for H and He will be reduced by one unit
Partially contracted basis set               ... on
Rotationally invariant grid construction     ... off

Total number of grid points                  ...    51219
Total number of batches                      ...      810
Average number of points per batch           ...       63
Average number of grid points per atom       ...     2696
UseSFitting                                  ... on

Time for X-Grid setup             =    0.515 sec

--------------
SCF ITERATIONS
--------------
ITER       Energy         Delta-E        Max-DP      RMS-DP      [F,P]     Damp
               ***  Starting incremental Fock matrix formation  ***
  0   -305.8741145090   0.000000000000 0.19504077  0.00288472  0.2194590 0.7000
  1   -305.9950808956  -0.120966386598 0.20486029  0.00235454  0.1273834 0.7000
                               ***Turning on DIIS***
  2   -306.0564222127  -0.061341317036 0.45619345  0.00548942  0.0608320 0.0000
  3   -306.1533098504  -0.096887637759 0.16875396  0.00210567  0.0579675 0.0000
  4   -306.1700407300  -0.016730879605 0.02627511  0.00038604  0.0076849 0.0000
                      *** Initiating the SOSCF procedure ***
                           *** Shutting down DIIS ***
                      *** Re-Reading the Fockian *** 
                      *** Removing any level shift *** 
ITER      Energy       Delta-E        Grad      Rot      Max-DP    RMS-DP
  5   -306.17034200  -0.0003012743  0.001381  0.001381  0.006433  0.000156
               *** Restarting incremental Fock matrix formation ***
  6   -306.17039401  -0.0000520089  0.000563  0.001377  0.008616  0.000139
  7   -306.17040671  -0.0000126978  0.000521  0.001764  0.003679  0.000084
  8   -306.17041158  -0.0000048739  0.000055  0.000124  0.001077  0.000026
  9   -306.17041183  -0.0000002453  0.000036  0.000056  0.000501  0.000011
 10   -306.17041188  -0.0000000479  0.000011  0.000041  0.000122  0.000004
                  ***Gradient check signals convergence***
              ***Rediagonalizing the Fockian in SOSCF/NRSCF***

               *****************************************************
               *                     SUCCESS                       *
               *           SCF CONVERGED AFTER  11 CYCLES          *
               *****************************************************


----------------
TOTAL SCF ENERGY
----------------

Total Energy       :         -306.17041189 Eh           -8331.32046 eV

Components:
Nuclear Repulsion  :          325.55037510 Eh            8858.67607 eV
Electronic Energy  :         -631.72078698 Eh          -17189.99654 eV
One Electron Energy:        -1058.12686759 Eh          -28793.09588 eV
Two Electron Energy:          426.40608061 Eh           11603.09934 eV
Max COSX asymmetry :            0.00000613 Eh               0.00017 eV

Virial components:
Potential Energy   :         -609.70569861 Eh          -16590.93553 eV
Kinetic Energy     :          303.53528672 Eh            8259.61506 eV
Virial Ratio       :            2.00868145


DFT components:
N(Alpha)           :       28.000062838318 electrons
N(Beta)            :       28.000062838318 electrons
N(Total)           :       56.000125676636 electrons
E(XC)              :      -35.191958861410 Eh       
DFET-embed. en.    :        0.000000000000 Eh       

---------------
SCF CONVERGENCE
---------------

  Last Energy change         ...   -9.3469e-09  Tolerance :   1.0000e-08
  Last MAX-Density change    ...    1.2357e-04  Tolerance :   1.0000e-07
  Last RMS-Density change    ...    2.1341e-06  Tolerance :   5.0000e-09
  Last Orbital Gradient      ...    1.9803e-06  Tolerance :   1.0000e-05
  Last Orbital Rotation      ...    1.0009e-05  Tolerance :   1.0000e-05

             **** THE GBW FILE WAS UPDATED (14Feb_SVPD_LC_BLYP_C2_wt_wb97_typ1_pos.gbw) ****
             **** DENSITY 14Feb_SVPD_LC_BLYP_C2_wt_wb97_typ1_pos.scfp WAS UPDATED ****
             **** ENERGY FILE WAS UPDATED (14Feb_SVPD_LC_BLYP_C2_wt_wb97_typ1_pos.en.tmp) ****
             **** THE GBW FILE WAS UPDATED (14Feb_SVPD_LC_BLYP_C2_wt_wb97_typ1_pos.gbw) ****
             **** DENSITY 14Feb_SVPD_LC_BLYP_C2_wt_wb97_typ1_pos.scfp WAS UPDATED ****
----------------
ORBITAL ENERGIES
----------------

  NO   OCC          E(Eh)            E(eV) 
   0   2.0000     -14.190289      -386.1374 
   1   2.0000     -14.185697      -386.0124 
   2   2.0000     -10.131576      -275.6942 
   3   2.0000     -10.112815      -275.1837 
   4   2.0000     -10.082119      -274.3484 
   5   2.0000     -10.061815      -273.7959 
   6   2.0000      -9.997413      -272.0435 
   7   2.0000      -1.057789       -28.7839 
   8   2.0000      -0.974710       -26.5232 
   9   2.0000      -0.879698       -23.9378 
  10   2.0000      -0.826607       -22.4931 
  11   2.0000      -0.784293       -21.3417 
  12   2.0000      -0.710966       -19.3464 
  13   2.0000      -0.666833       -18.1454 
  14   2.0000      -0.643001       -17.4969 
  15   2.0000      -0.616966       -16.7885 
  16   2.0000      -0.571799       -15.5595 
  17   2.0000      -0.565946       -15.4002 
  18   2.0000      -0.537134       -14.6162 
  19   2.0000      -0.506825       -13.7914 
  20   2.0000      -0.494704       -13.4616 
  21   2.0000      -0.479223       -13.0403 
  22   2.0000      -0.477227       -12.9860 
  23   2.0000      -0.442925       -12.0526 
  24   2.0000      -0.439624       -11.9628 
  25   2.0000      -0.426107       -11.5950 
  26   2.0000      -0.349064        -9.4985 
  27   2.0000      -0.268050        -7.2940 
  28   0.0000       0.069857         1.9009 
  29   0.0000       0.091351         2.4858 
  30   0.0000       0.095375         2.5953 
  31   0.0000       0.107605         2.9281 
  32   0.0000       0.123597         3.3633 
  33   0.0000       0.135814         3.6957 
  34   0.0000       0.141424         3.8483 
  35   0.0000       0.145730         3.9655 
  36   0.0000       0.151720         4.1285 
  37   0.0000       0.171347         4.6626 
  38   0.0000       0.179185         4.8759 
  39   0.0000       0.195370         5.3163 
  40   0.0000       0.199344         5.4244 
  41   0.0000       0.212762         5.7896 
  42   0.0000       0.217108         5.9078 
  43   0.0000       0.228675         6.2226 
  44   0.0000       0.232484         6.3262 
  45   0.0000       0.233107         6.3432 
  46   0.0000       0.244539         6.6543 
  47   0.0000       0.259447         7.0599 
  48   0.0000       0.266823         7.2606 
  49   0.0000       0.277572         7.5531 
  50   0.0000       0.287344         7.8190 
  51   0.0000       0.298102         8.1118 
  52   0.0000       0.311261         8.4698 
  53   0.0000       0.317895         8.6504 
  54   0.0000       0.326852         8.8941 
  55   0.0000       0.336906         9.1677 
  56   0.0000       0.339919         9.2497 
  57   0.0000       0.344086         9.3631 
  58   0.0000       0.353345         9.6150 
  59   0.0000       0.360386         9.8066 
  60   0.0000       0.370027        10.0689 
  61   0.0000       0.380959        10.3664 
  62   0.0000       0.387430        10.5425 
  63   0.0000       0.390473        10.6253 
  64   0.0000       0.400373        10.8947 
  65   0.0000       0.403227        10.9724 
  66   0.0000       0.414369        11.2756 
  67   0.0000       0.418003        11.3744 
  68   0.0000       0.424008        11.5378 
  69   0.0000       0.428891        11.6707 
  70   0.0000       0.434273        11.8172 
  71   0.0000       0.437624        11.9084 
  72   0.0000       0.443708        12.0739 
  73   0.0000       0.446470        12.1491 
  74   0.0000       0.454731        12.3739 
  75   0.0000       0.464609        12.6426 
  76   0.0000       0.474501        12.9118 
  77   0.0000       0.486389        13.2353 
  78   0.0000       0.488688        13.2979 
  79   0.0000       0.491039        13.3619 
  80   0.0000       0.499516        13.5925 
  81   0.0000       0.511935        13.9305 
  82   0.0000       0.515846        14.0369 
  83   0.0000       0.526058        14.3148 
  84   0.0000       0.528704        14.3868 
  85   0.0000       0.531892        14.4735 
  86   0.0000       0.537906        14.6372 
  87   0.0000       0.545802        14.8520 
  88   0.0000       0.557611        15.1734 
  89   0.0000       0.568025        15.4567 
  90   0.0000       0.570698        15.5295 
  91   0.0000       0.573025        15.5928 
  92   0.0000       0.577881        15.7249 
  93   0.0000       0.585084        15.9210 
  94   0.0000       0.599853        16.3228 
  95   0.0000       0.605226        16.4690 
  96   0.0000       0.610478        16.6119 
  97   0.0000       0.619296        16.8519 
  98   0.0000       0.624606        16.9964 
  99   0.0000       0.632794        17.2192 
 100   0.0000       0.649226        17.6663 
 101   0.0000       0.651200        17.7201 
 102   0.0000       0.666246        18.1295 
 103   0.0000       0.674782        18.3617 
 104   0.0000       0.685525        18.6541 
 105   0.0000       0.691133        18.8067 
 106   0.0000       0.697200        18.9718 
 107   0.0000       0.708036        19.2666 
 108   0.0000       0.719617        19.5818 
 109   0.0000       0.719898        19.5894 
 110   0.0000       0.729898        19.8615 
 111   0.0000       0.742803        20.2127 
 112   0.0000       0.753082        20.4924 
 113   0.0000       0.764840        20.8123 
 114   0.0000       0.789623        21.4867 
 115   0.0000       0.796383        21.6707 
 116   0.0000       0.816168        22.2091 
 117   0.0000       0.819464        22.2987 
 118   0.0000       0.839176        22.8351 
 119   0.0000       0.848280        23.0829 
 120   0.0000       0.871109        23.7041 
 121   0.0000       0.876430        23.8489 
 122   0.0000       0.889207        24.1966 
 123   0.0000       0.904412        24.6103 
 124   0.0000       0.915394        24.9091 
 125   0.0000       0.980993        26.6942 
 126   0.0000       1.016094        27.6493 
 127   0.0000       1.023306        27.8456 
 128   0.0000       1.033138        28.1131 
 129   0.0000       1.059493        28.8303 
 130   0.0000       1.074647        29.2426 
 131   0.0000       1.081435        29.4273 
 132   0.0000       1.092125        29.7182 
 133   0.0000       1.109211        30.1832 
 134   0.0000       1.134137        30.8614 
 135   0.0000       1.137099        30.9420 
 136   0.0000       1.148734        31.2586 
 137   0.0000       1.155001        31.4292 
 138   0.0000       1.173768        31.9398 
 139   0.0000       1.180466        32.1221 
 140   0.0000       1.213038        33.0085 
 141   0.0000       1.218646        33.1610 
 142   0.0000       1.245292        33.8861 
 143   0.0000       1.251124        34.0448 
 144   0.0000       1.271998        34.6128 
 145   0.0000       1.284713        34.9588 
 146   0.0000       1.299427        35.3592 
 147   0.0000       1.314399        35.7666 
 148   0.0000       1.334085        36.3023 
 149   0.0000       1.357664        36.9439 
 150   0.0000       1.386989        37.7419 
 151   0.0000       1.395629        37.9770 
 152   0.0000       1.415186        38.5092 
 153   0.0000       1.445566        39.3358 
 154   0.0000       1.466734        39.9119 
 155   0.0000       1.479035        40.2466 
 156   0.0000       1.532514        41.7018 
 157   0.0000       1.552714        42.2515 
 158   0.0000       1.606241        43.7080 
 159   0.0000       1.632814        44.4311 
 160   0.0000       1.690415        45.9985 
 161   0.0000       1.725423        46.9512 
 162   0.0000       1.754748        47.7491 
 163   0.0000       1.758426        47.8492 
 164   0.0000       1.786508        48.6134 
 165   0.0000       1.797480        48.9119 
 166   0.0000       1.822378        49.5894 
 167   0.0000       1.832493        49.8647 
 168   0.0000       1.835814        49.9550 
 169   0.0000       1.876898        51.0730 
 170   0.0000       1.889935        51.4277 
 171   0.0000       1.913021        52.0560 
 172   0.0000       1.942506        52.8583 
 173   0.0000       1.954355        53.1807 
 174   0.0000       1.966791        53.5191 
 175   0.0000       1.978778        53.8453 
 176   0.0000       2.003415        54.5157 
 177   0.0000       2.025828        55.1256 
 178   0.0000       2.032203        55.2991 
 179   0.0000       2.055471        55.9322 
 180   0.0000       2.077887        56.5422 
 181   0.0000       2.092253        56.9331 
 182   0.0000       2.109182        57.3938 
 183   0.0000       2.121513        57.7293 
 184   0.0000       2.152789        58.5804 
 185   0.0000       2.161564        58.8191 
 186   0.0000       2.172916        59.1281 
 187   0.0000       2.185305        59.4652 
 188   0.0000       2.191450        59.6324 
 189   0.0000       2.203939        59.9722 
 190   0.0000       2.227212        60.6055 
 191   0.0000       2.240338        60.9627 
 192   0.0000       2.261330        61.5339 
 193   0.0000       2.278857        62.0108 
 194   0.0000       2.294080        62.4251 
 195   0.0000       2.327277        63.3284 
 196   0.0000       2.346749        63.8583 
 197   0.0000       2.361364        64.2560 
 198   0.0000       2.395353        65.1809 
 199   0.0000       2.401348        65.3440 
 200   0.0000       2.444800        66.5264 
 201   0.0000       2.463337        67.0308 
 202   0.0000       2.496692        67.9384 
 203   0.0000       2.553518        69.4847 
 204   0.0000       2.562154        69.7198 
 205   0.0000       2.566326        69.8333 
 206   0.0000       2.594820        70.6086 
 207   0.0000       2.618327        71.2483 
 208   0.0000       2.643783        71.9410 
 209   0.0000       2.694629        73.3246 
 210   0.0000       2.711712        73.7894 
 211   0.0000       2.736054        74.4518 
 212   0.0000       2.787940        75.8637 
 213   0.0000       2.805144        76.3318 
 214   0.0000       2.817625        76.6715 
 215   0.0000       2.819984        76.7357 
 216   0.0000       2.867943        78.0407 
 217   0.0000       2.885442        78.5169 
 218   0.0000       2.941308        80.0371 
 219   0.0000       2.960911        80.5705 
 220   0.0000       2.999035        81.6079 
 221   0.0000       3.092082        84.1398 
 222   0.0000       3.143564        85.5407 
 223   0.0000       3.170452        86.2724 
 224   0.0000       3.202914        87.1557 
 225   0.0000       3.259076        88.6840 
 226   0.0000       3.295320        89.6702 
 227   0.0000       3.300927        89.8228 
 228   0.0000       3.318877        90.3112 
 229   0.0000       3.357331        91.3576 
 230   0.0000       3.359537        91.4176 
 231   0.0000       3.439268        93.5872 
 232   0.0000       3.453216        93.9668 
 233   0.0000       3.500309        95.2482 
 234   0.0000       3.747370       101.9711 
 235   0.0000       3.821885       103.9988 

                    ********************************
                    * MULLIKEN POPULATION ANALYSIS *
                    ********************************

-----------------------
MULLIKEN ATOMIC CHARGES
-----------------------
   0 C :    0.782267
   1 N :   -0.277840
   2 C :    0.095598
   3 C :    0.656455
   4 C :    0.493467
   5 C :    0.989216
   6 N :    0.220772
   7 H :   -0.149008
   8 H :   -0.036009
   9 H :   -0.343921
  10 H :   -1.152887
  11 H :   -0.507127
  12 H :    0.052804
  13 H :   -0.481026
  14 H :   -0.219755
  15 H :   -0.097094
  16 H :   -0.516911
  17 H :    0.357861
  18 H :    0.133138
Sum of atomic charges:   -0.0000000

--------------------------------
MULLIKEN REDUCED ORBITAL CHARGES
--------------------------------
  0 C s       :     2.662270  s :     2.662270
      pz      :     0.812164  p :     2.429475
      px      :     0.751438
      py      :     0.865874
      dz2     :     0.025285  d :     0.125988
      dxz     :     0.061739
      dyz     :    -0.028811
      dx2y2   :     0.064135
      dxy     :     0.003639
  1 N s       :     3.454933  s :     3.454933
      pz      :     1.010816  p :     3.647997
      px      :     1.479368
      py      :     1.157812
      dz2     :     0.029796  d :     0.174911
      dxz     :     0.075827
      dyz     :     0.047106
      dx2y2   :     0.018598
      dxy     :     0.003583
  2 C s       :     2.720885  s :     2.720885
      pz      :     0.881889  p :     2.728476
      px      :     0.952147
      py      :     0.894440
      dz2     :     0.175560  d :     0.455041
      dxz     :     0.032737
      dyz     :     0.018999
      dx2y2   :     0.106892
      dxy     :     0.120852
  3 C s       :     2.594551  s :     2.594551
      pz      :     0.920199  p :     2.615016
      px      :     0.840453
      py      :     0.854365
      dz2     :     0.050749  d :     0.133978
      dxz     :     0.047858
      dyz     :     0.001753
      dx2y2   :     0.026440
      dxy     :     0.007178
  4 C s       :     2.666198  s :     2.666198
      pz      :     0.784657  p :     2.330232
      px      :     0.766379
      py      :     0.779196
      dz2     :    -0.006314  d :     0.510103
      dxz     :     0.162720
      dyz     :     0.177739
      dx2y2   :     0.132067
      dxy     :     0.043891
  5 C s       :     2.515156  s :     2.515156
      pz      :     0.370691  p :     2.368300
      px      :     0.964119
      py      :     1.033490
      dz2     :    -0.042842  d :     0.127327
      dxz     :     0.083032
      dyz     :     0.051881
      dx2y2   :     0.022412
      dxy     :     0.012844
  6 N s       :     3.185903  s :     3.185903
      pz      :     1.013482  p :     3.592314
      px      :     1.241925
      py      :     1.336908
      dz2     :    -0.004590  d :     0.001012
      dxz     :    -0.006631
      dyz     :     0.013522
      dx2y2   :     0.001970
      dxy     :    -0.003259
  7 H s       :     1.104174  s :     1.104174
      pz      :    -0.014619  p :     0.044834
      px      :     0.034135
      py      :     0.025318
  8 H s       :     1.009376  s :     1.009376
      pz      :    -0.005294  p :     0.026632
      px      :    -0.008941
      py      :     0.040867
  9 H s       :     1.303976  s :     1.303976
      pz      :    -0.015518  p :     0.039946
      px      :     0.044908
      py      :     0.010556
 10 H s       :     1.778616  s :     1.778616
      pz      :     0.247847  p :     0.374271
      px      :     0.092157
      py      :     0.034267
 11 H s       :     1.454737  s :     1.454737
      pz      :    -0.015399  p :     0.052390
      px      :     0.038215
      py      :     0.029574
 12 H s       :     0.972564  s :     0.972564
      pz      :     0.008383  p :    -0.025369
      px      :    -0.071271
      py      :     0.037519
 13 H s       :     1.471612  s :     1.471612
      pz      :     0.012577  p :     0.009414
      px      :     0.031327
      py      :    -0.034490
 14 H s       :     1.214354  s :     1.214354
      pz      :    -0.031000  p :     0.005402
      px      :    -0.019763
      py      :     0.056164
 15 H s       :     1.117389  s :     1.117389
      pz      :     0.062195  p :    -0.020294
      px      :    -0.036899
      py      :    -0.045589
 16 H s       :     1.526424  s :     1.526424
      pz      :    -0.008784  p :    -0.009513
      px      :     0.022159
      py      :    -0.022888
 17 H s       :     0.647463  s :     0.647463
      pz      :     0.000712  p :    -0.005323
      px      :    -0.009562
      py      :     0.003528
 18 H s       :     0.853031  s :     0.853031
      pz      :     0.019354  p :     0.013831
      px      :     0.011091
      py      :    -0.016614


                     *******************************
                     * LOEWDIN POPULATION ANALYSIS *
                     *******************************

----------------------
LOEWDIN ATOMIC CHARGES
----------------------
   0 C :    0.029558
   1 N :    0.005348
   2 C :   -0.059297
   3 C :    0.110954
   4 C :   -0.246855
   5 C :    0.157751
   6 N :    0.198343
   7 H :   -0.016109
   8 H :   -0.006129
   9 H :    0.018262
  10 H :   -0.146094
  11 H :   -0.082685
  12 H :    0.028120
  13 H :    0.021583
  14 H :    0.022325
  15 H :    0.022637
  16 H :   -0.017513
  17 H :   -0.014322
  18 H :   -0.025875

-------------------------------
LOEWDIN REDUCED ORBITAL CHARGES
-------------------------------
  0 C s       :     2.666527  s :     2.666527
      pz      :     0.789828  p :     2.608930
      px      :     0.905468
      py      :     0.913635
      dz2     :     0.153456  d :     0.694985
      dxz     :     0.207702
      dyz     :     0.107215
      dx2y2   :     0.146746
      dxy     :     0.079866
  1 N s       :     2.900118  s :     2.900118
      pz      :     1.049672  p :     3.492330
      px      :     1.304386
      py      :     1.138272
      dz2     :     0.191737  d :     0.602204
      dxz     :     0.142751
      dyz     :     0.151296
      dx2y2   :     0.063284
      dxy     :     0.053135
  2 C s       :     2.699409  s :     2.699409
      pz      :     0.905789  p :     2.713822
      px      :     0.890726
      py      :     0.917307
      dz2     :     0.161068  d :     0.646066
      dxz     :     0.116633
      dyz     :     0.049640
      dx2y2   :     0.189846
      dxy     :     0.128880
  3 C s       :     2.692231  s :     2.692231
      pz      :     0.929671  p :     2.756885
      px      :     0.903476
      py      :     0.923737
      dz2     :     0.107492  d :     0.439931
      dxz     :     0.093301
      dyz     :     0.052367
      dx2y2   :     0.094927
      dxy     :     0.091845
  4 C s       :     2.631582  s :     2.631582
      pz      :     0.834581  p :     2.513688
      px      :     0.825501
      py      :     0.853607
      dz2     :     0.220560  d :     1.101585
      dxz     :     0.247905
      dyz     :     0.255083
      dx2y2   :     0.241302
      dxy     :     0.136736
  5 C s       :     2.709876  s :     2.709876
      pz      :     0.913474  p :     2.776726
      px      :     0.927356
      py      :     0.935896
      dz2     :     0.057242  d :     0.355647
      dxz     :     0.082949
      dyz     :     0.077291
      dx2y2   :     0.066004
      dxy     :     0.072161
  6 N s       :     2.935595  s :     2.935595
      pz      :     1.070096  p :     3.532792
      px      :     1.211526
      py      :     1.251169
      dz2     :     0.099439  d :     0.333270
      dxz     :     0.093745
      dyz     :     0.064641
      dx2y2   :     0.029361
      dxy     :     0.046084
  7 H s       :     0.662807  s :     0.662807
      pz      :     0.077289  p :     0.353301
      px      :     0.127357
      py      :     0.148655
  8 H s       :     0.655340  s :     0.655340
      pz      :     0.116867  p :     0.350789
      px      :     0.122609
      py      :     0.111312
  9 H s       :     0.653430  s :     0.653430
      pz      :     0.078005  p :     0.328308
      px      :     0.113852
      py      :     0.136451
 10 H s       :     0.719130  s :     0.719130
      pz      :     0.176141  p :     0.426964
      px      :     0.129322
      py      :     0.121501
 11 H s       :     0.762441  s :     0.762441
      pz      :     0.122949  p :     0.320244
      px      :     0.092996
      py      :     0.104298
 12 H s       :     0.701865  s :     0.701865
      pz      :     0.070614  p :     0.270015
      px      :     0.075142
      py      :     0.124259
 13 H s       :     0.738203  s :     0.738203
      pz      :     0.071505  p :     0.240214
      px      :     0.099683
      py      :     0.069026
 14 H s       :     0.733284  s :     0.733284
      pz      :     0.066595  p :     0.244391
      px      :     0.058341
      py      :     0.119454
 15 H s       :     0.724817  s :     0.724817
      pz      :     0.115037  p :     0.252546
      px      :     0.061474
      py      :     0.076036
 16 H s       :     0.744508  s :     0.744508
      pz      :     0.083058  p :     0.273005
      px      :     0.104453
      py      :     0.085493
 17 H s       :     0.712471  s :     0.712471
      pz      :     0.087470  p :     0.301851
      px      :     0.079430
      py      :     0.134951
 18 H s       :     0.707584  s :     0.707584
      pz      :     0.140635  p :     0.318291
      px      :     0.087327
      py      :     0.090330


                      *****************************
                      * MAYER POPULATION ANALYSIS *
                      *****************************

  NA   - Mulliken gross atomic population
  ZA   - Total nuclear charge
  QA   - Mulliken gross atomic charge
  VA   - Mayer's total valence
  BVA  - Mayer's bonded valence
  FA   - Mayer's free valence

  ATOM       NA         ZA         QA         VA         BVA        FA
  0 C      5.2177     6.0000     0.7823     3.8443     3.8443     0.0000
  1 N      7.2778     7.0000    -0.2778     4.3028     4.3028     0.0000
  2 C      5.9044     6.0000     0.0956     4.8952     4.8952     0.0000
  3 C      5.3435     6.0000     0.6565     4.1990     4.1990    -0.0000
  4 C      5.5065     6.0000     0.4935     3.8073     3.8073    -0.0000
  5 C      5.0108     6.0000     0.9892     3.0907     3.0907    -0.0000
  6 N      6.7792     7.0000     0.2208     3.6710     3.6710    -0.0000
  7 H      1.1490     1.0000    -0.1490     0.9542     0.9542    -0.0000
  8 H      1.0360     1.0000    -0.0360     0.8418     0.8418    -0.0000
  9 H      1.3439     1.0000    -0.3439     0.8683     0.8683     0.0000
 10 H      2.1529     1.0000    -1.1529     0.9641     0.9641    -0.0000
 11 H      1.5071     1.0000    -0.5071     0.8531     0.8531    -0.0000
 12 H      0.9472     1.0000     0.0528     0.8702     0.8702     0.0000
 13 H      1.4810     1.0000    -0.4810     0.8084     0.8084     0.0000
 14 H      1.2198     1.0000    -0.2198     0.9684     0.9684     0.0000
 15 H      1.0971     1.0000    -0.0971     1.0096     1.0096    -0.0000
 16 H      1.5169     1.0000    -0.5169     0.7814     0.7814     0.0000
 17 H      0.6421     1.0000     0.3579     0.6634     0.6634    -0.0000
 18 H      0.8669     1.0000     0.1331     0.8877     0.8877    -0.0000

  Mayer bond orders larger than 0.100000
B(  0-C ,  1-N ) :   1.0186 B(  0-C ,  2-C ) :   1.0776 B(  0-C ,  4-C ) :  -0.1137 
B(  0-C ,  9-H ) :  -0.1991 B(  0-C , 12-H ) :   0.6779 B(  0-C , 13-H ) :   0.9027 
B(  0-C , 14-H ) :   0.1419 B(  0-C , 15-H ) :   0.1267 B(  1-N ,  4-C ) :   1.0317 
B(  1-N ,  5-C ) :   0.3511 B(  1-N ,  6-N ) :   0.1375 B(  1-N ,  9-H ) :   1.3371 
B(  1-N , 12-H ) :   0.1634 B(  1-N , 13-H ) :   0.1256 B(  2-C ,  3-C ) :   1.2788 
B(  2-C , 12-H ) :   0.1594 B(  2-C , 14-H ) :   0.9063 B(  2-C , 15-H ) :   0.8353 
B(  2-C , 16-H ) :   0.2060 B(  2-C , 17-H ) :   0.1444 B(  2-C , 18-H ) :   0.1671 
B(  3-C , 10-H ) :   0.3200 B(  3-C , 15-H ) :   0.1182 B(  3-C , 16-H ) :   0.9005 
B(  3-C , 17-H ) :   0.6123 B(  3-C , 18-H ) :   0.8068 B(  4-C ,  5-C ) :   1.7239 
B(  4-C ,  6-N ) :   0.9205 B(  4-C ,  9-H ) :  -0.2563 B(  4-C , 11-H ) :   0.4217 
B(  5-C ,  6-N ) :   0.3222 B(  5-C , 10-H ) :   0.1858 B(  5-C , 11-H ) :   0.4318 
B(  6-N ,  7-H ) :   1.0321 B(  6-N ,  8-H ) :   1.0718 B(  6-N , 11-H ) :   0.1952 
B(  7-H ,  8-H ) :  -0.1479 B( 10-H , 12-H ) :   0.1093 B( 10-H , 17-H ) :   0.1865 
B( 12-H , 13-H ) :  -0.1962 B( 16-H , 17-H ) :  -0.2092 B( 16-H , 18-H ) :  -0.1115 


-------
TIMINGS
-------

Total SCF time: 0 days 0 hours 0 min 37 sec 

Total time                  ....      37.401 sec
Sum of individual times     ....      37.188 sec  ( 99.4%)

Fock matrix formation       ....      35.605 sec  ( 95.2%)
  Split-RI-J                ....       1.537 sec  (  4.3% of F)
  Chain of spheres X        ....      28.716 sec  ( 80.7% of F)
  XC integration            ....       5.216 sec  ( 14.6% of F)
    Basis function eval.    ....       1.561 sec  ( 29.9% of XC)
    Density eval.           ....       1.302 sec  ( 25.0% of XC)
    XC-Functional eval.     ....       0.357 sec  (  6.8% of XC)
    XC-Potential eval.      ....       1.607 sec  ( 30.8% of XC)
Diagonalization             ....       0.071 sec  (  0.2%)
Density matrix formation    ....       0.005 sec  (  0.0%)
Population analysis         ....       0.010 sec  (  0.0%)
Initial guess               ....       0.237 sec  (  0.6%)
Orbital Transformation      ....       0.000 sec  (  0.0%)
Orbital Orthonormalization  ....       0.000 sec  (  0.0%)
DIIS solution               ....       0.040 sec  (  0.1%)
SOSCF solution              ....       0.051 sec  (  0.1%)
Grid generation             ....       1.168 sec  (  3.1%)

Maximum memory used throughout the entire SCF-calculation: 31.2 MB

-------------------------   --------------------
FINAL SINGLE POINT ENERGY      -306.170411887438
-------------------------   --------------------


                            ***************************************
                            *     ORCA property calculations      *
                            ***************************************

                                    ---------------------
                                    Active property flags
                                    ---------------------
   (+) Dipole Moment


------------------------------------------------------------------------------
                       ORCA ELECTRIC PROPERTIES CALCULATION
------------------------------------------------------------------------------

Dipole Moment Calculation                       ... on
Quadrupole Moment Calculation                   ... off
Polarizability Calculation                      ... off
GBWName                                         ... 14Feb_SVPD_LC_BLYP_C2_wt_wb97_typ1_pos.gbw
Electron density file                           ... 14Feb_SVPD_LC_BLYP_C2_wt_wb97_typ1_pos.scfp
The origin for moment calculation is the CENTER OF MASS  = ( 8.234165, -3.054018 -8.605955)

-------------
DIPOLE MOMENT
-------------
                                X             Y             Z
Electronic contribution:      4.03707      -0.36027       3.35536
Nuclear contribution   :     -3.78417      -0.66655      -3.38995
                        -----------------------------------------
Total Dipole Moment    :      0.25291      -1.02681      -0.03459
                        -----------------------------------------
Magnitude (a.u.)       :      1.05807
Magnitude (Debye)      :      2.68940



--------------------
Rotational spectrum 
--------------------
 
Rotational constants in cm-1:     0.157710     0.057795     0.049101 
Rotational constants in MHz :  4728.033540  1732.635996  1472.015132 

 Dipole components along the rotational axes: 
x,y,z [a.u.] :    -0.076466     0.630238    -0.846440 
x,y,z [Debye]:    -0.194361     1.601938    -2.151480 

 

Timings for individual modules:

Sum of individual times         ...       38.072 sec (=   0.635 min)
GTO integral calculation        ...        0.432 sec (=   0.007 min)   1.1 %
SCF iterations                  ...       37.639 sec (=   0.627 min)  98.9 %
                             ****ORCA TERMINATED NORMALLY****
TOTAL RUN TIME: 0 days 0 hours 0 minutes 38 seconds 421 msec
