
                                        *****************
                                        * O   R   C   A *
                                        *****************

                                            #,                                       
                                            ###                                      
                                            ####                                     
                                            #####                                    
                                            ######                                   
                                           ########,                                 
                                     ,,################,,,,,                         
                               ,,#################################,,                 
                          ,,##########################################,,             
                       ,#########################################, ''#####,          
                    ,#############################################,,   '####,        
                  ,##################################################,,,,####,       
                ,###########''''           ''''###############################       
              ,#####''   ,,,,##########,,,,          '''####'''          '####       
            ,##' ,,,,###########################,,,                        '##       
           ' ,,###''''                  '''############,,,                           
         ,,##''                                '''############,,,,        ,,,,,,###''
      ,#''                                            '''#######################'''  
     '                                                          ''''####''''         
             ,#######,   #######,   ,#######,      ##                                
            ,#'     '#,  ##    ##  ,#'     '#,    #''#        ######   ,####,        
            ##       ##  ##   ,#'  ##            #'  '#       #        #'  '#        
            ##       ##  #######   ##           ,######,      #####,   #    #        
            '#,     ,#'  ##    ##  '#,     ,#' ,#      #,         ##   #,  ,#        
             '#######'   ##     ##  '#######'  #'      '#     #####' # '####'        



                  #######################################################
                  #                        -***-                        #
                  #          Department of theory and spectroscopy      #
                  #    Directorship and core code : Frank Neese         #
                  #        Max Planck Institute fuer Kohlenforschung    #
                  #                Kaiser Wilhelm Platz 1               #
                  #                 D-45470 Muelheim/Ruhr               #
                  #                      Germany                        #
                  #                                                     #
                  #                  All rights reserved                #
                  #                        -***-                        #
                  #######################################################


                         Program Version 5.0.0 -  RELEASE  -
                                (SVN: $Rev: 19529$)
                ($Date: 2021-06-28 11:36:33 +0200 (Mo, 28 Jun 2021) $)


 With contributions from (in alphabetic order):
   Daniel Aravena         : Magnetic Suceptibility
   Michael Atanasov       : Ab Initio Ligand Field Theory (pilot matlab implementation)
   Alexander A. Auer      : GIAO ZORA, VPT2 properties, NMR spectrum
   Ute Becker             : Parallelization
   Giovanni Bistoni       : ED, misc. LED, open-shell LED, HFLD
   Martin Brehm           : Molecular dynamics
   Dmytro Bykov           : SCF Hessian
   Vijay G. Chilkuri      : MRCI spin determinant printing, contributions to CSF-ICE
   Dipayan Datta          : RHF DLPNO-CCSD density
   Achintya Kumar Dutta   : EOM-CC, STEOM-CC
   Dmitry Ganyushin       : Spin-Orbit,Spin-Spin,Magnetic field MRCI
   Miquel Garcia          : C-PCM Hessian, Gaussian charge scheme
   Yang Guo               : DLPNO-NEVPT2, F12-NEVPT2, CIM, IAO-localization
   Andreas Hansen         : Spin unrestricted coupled pair/coupled cluster methods
   Benjamin Helmich-Paris : MC-RPA, TRAH-SCF, COSX integrals
   Lee Huntington         : MR-EOM, pCC
   Robert Izsak           : Overlap fitted RIJCOSX, COSX-SCS-MP3, EOM
   Marcus Kettner         : VPT2
   Christian Kollmar      : KDIIS, OOCD, Brueckner-CCSD(T), CCSD density, CASPT2, CASPT2-K
   Simone Kossmann        : Meta GGA functionals, TD-DFT gradient, OOMP2, MP2 Hessian
   Martin Krupicka        : Initial AUTO-CI
   Lucas Lang             : DCDCAS
   Marvin Lechner         : AUTO-CI (C++ implementation), FIC-MRCC
   Dagmar Lenk            : GEPOL surface, SMD
   Dimitrios Liakos       : Extrapolation schemes; Compound Job, initial MDCI parallelization
   Dimitrios Manganas     : Further ROCIS development; embedding schemes
   Dimitrios Pantazis     : SARC Basis sets
   Anastasios Papadopoulos: AUTO-CI, single reference methods and gradients
   Taras Petrenko         : DFT Hessian,TD-DFT gradient, ASA, ECA, R-Raman, ABS, FL, XAS/XES, NRVS
   Peter Pinski           : DLPNO-MP2, DLPNO-MP2 Gradient
   Christoph Reimann      : Effective Core Potentials
   Marius Retegan         : Local ZFS, SOC
   Christoph Riplinger    : Optimizer, TS searches, QM/MM, DLPNO-CCSD(T), (RO)-DLPNO pert. Triples
   Tobias Risthaus        : Range-separated hybrids, TD-DFT gradient, RPA, STAB
   Michael Roemelt        : Original ROCIS implementation
   Masaaki Saitow         : Open-shell DLPNO-CCSD energy and density
   Barbara Sandhoefer     : DKH picture change effects
   Avijit Sen             : IP-ROCIS
   Kantharuban Sivalingam : CASSCF convergence, NEVPT2, FIC-MRCI
   Bernardo de Souza      : ESD, SOC TD-DFT
   Georgi Stoychev        : AutoAux, RI-MP2 NMR
   Willem Van den Heuvel  : Paramagnetic NMR
   Boris Wezisla          : Elementary symmetry handling
   Frank Wennmohs         : Technical directorship


 We gratefully acknowledge several colleagues who have allowed us to
 interface, adapt or use parts of their codes:
   Stefan Grimme, W. Hujo, H. Kruse, P. Pracht,  : VdW corrections, initial TS optimization,
                  C. Bannwarth, S. Ehlert          DFT functionals, gCP, sTDA/sTD-DF
   Ed Valeev, F. Pavosevic, A. Kumar             : LibInt (2-el integral package), F12 methods
   Garnet Chan, S. Sharma, J. Yang, R. Olivares  : DMRG
   Ulf Ekstrom                                   : XCFun DFT Library
   Mihaly Kallay                                 : mrcc  (arbitrary order and MRCC methods)
   Jiri Pittner, Ondrej Demel                    : Mk-CCSD
   Frank Weinhold                                : gennbo (NPA and NBO analysis)
   Christopher J. Cramer and Donald G. Truhlar   : smd solvation model
   Lars Goerigk                                  : TD-DFT with DH, B97 family of functionals
   V. Asgeirsson, H. Jonsson                     : NEB implementation
   FAccTs GmbH                                   : IRC, NEB, NEB-TS, DLPNO-Multilevel, CI-OPT
                                                   MM, QMMM, 2- and 3-layer-ONIOM, Crystal-QMMM,
                                                   LR-CPCM, SF, NACMEs, symmetry and pop. for TD-DFT,
                                                   nearIR, NL-DFT gradient (VV10), updates on ESD,
                                                   ML-optimized integration grids
   S Lehtola, MJT Oliveira, MAL Marques          : LibXC Library
   Liviu Ungur et al                             : ANISO software


 Your calculation uses the libint2 library for the computation of 2-el integrals
 For citations please refer to: http://libint.valeyev.net

 Your ORCA version has been built with support for libXC version: 5.1.0
 For citations please refer to: https://tddft.org/programs/libxc/

 This ORCA versions uses:
   CBLAS   interface :  Fast vector & matrix operations
   LAPACKE interface :  Fast linear algebra routines
   SCALAPACK package :  Parallel linear algebra routines
   Shared memory     :  Shared parallel matrices
   BLAS/LAPACK       :  OpenBLAS 0.3.15  USE64BITINT DYNAMIC_ARCH NO_AFFINITY Haswell SINGLE_THREADED
        Core in use  :  Haswell
   Copyright (c) 2011-2014, The OpenBLAS Project


Your calculation utilizes the atom-pairwise dispersion correction
with the Becke-Johnson damping scheme (D3BJ)
Cite in your paper:
S.Grimme, S.Ehrlich, L.Goerigk, J Comput Chem, (2011), 32, 1456–1465 
S.Grimme, J.Antony, S.Ehrlich and H.Krieg, J.Chem.Phys., 132, (2010), 154104 
   

================================================================================

----- Orbital basis set information -----
Your calculation utilizes the basis: def2-TZVP
   F. Weigend and R. Ahlrichs, Phys. Chem. Chem. Phys. 7, 3297 (2005).

----- AuxJ basis set information -----
Your calculation utilizes the auxiliary basis: def2/J
   F. Weigend, Phys. Chem. Chem. Phys. 8, 1057 (2006).

================================================================================
                                        WARNINGS
                       Please study these warnings very carefully!
================================================================================



WARNING: Found flag for RIJCOSX approximation but no HF exchange needed!
  ===> : RIJCOSX  will be disabled and Split-RI-J is turned on

INFO   : the flag for use of the SHARK integral package has been found!

================================================================================
                                       INPUT FILE
================================================================================
NAME = TZVP_TPSS_A_wt_dlpno_neg.com
|  1> !TPSS D3BJ RIJCOSX def2-TZVP def2/J TightSCF
|  2> *xyz -1 1 
|  3> C         -0.72184       -0.99951       -3.43931
|  4> C          0.28725       -1.71177       -2.52740
|  5> H          1.13178       -2.06738       -3.15940
|  6> H         -0.20414       -2.63733       -2.17048
|  7> O          0.71050       -0.92751       -1.48177
|  8> H         -1.01315       -1.65739       -4.23129
|  9> H         -0.27123       -0.12142       -3.85259
| 10> H         -1.58442       -0.72333       -2.86958
| 11> *
| 12> %MaxCore 64000
| 13> 
| 14> %pal nprocs 4
| 15> end  
| 16> 
| 17> %scf
| 18>   MaxIter 150
| 19> end
| 20> 
| 21> 
| 22>                          ****END OF INPUT****
================================================================================

                       ****************************
                       * Single Point Calculation *
                       ****************************

---------------------------------
CARTESIAN COORDINATES (ANGSTROEM)
---------------------------------
  C     -0.721840   -0.999510   -3.439310
  C      0.287250   -1.711770   -2.527400
  H      1.131780   -2.067380   -3.159400
  H     -0.204140   -2.637330   -2.170480
  O      0.710500   -0.927510   -1.481770
  H     -1.013150   -1.657390   -4.231290
  H     -0.271230   -0.121420   -3.852590
  H     -1.584420   -0.723330   -2.869580

----------------------------
CARTESIAN COORDINATES (A.U.)
----------------------------
  NO LB      ZA    FRAG     MASS         X           Y           Z
   0 C     6.0000    0    12.011   -1.364080   -1.888800   -6.499354
   1 C     6.0000    0    12.011    0.542824   -3.234777   -4.776094
   2 H     1.0000    0     1.008    2.138754   -3.906782   -5.970401
   3 H     1.0000    0     1.008   -0.385769   -4.983831   -4.101613
   4 O     8.0000    0    15.999    1.342650   -1.752740   -2.800139
   5 H     1.0000    0     1.008   -1.914576   -3.132013   -7.995979
   6 H     1.0000    0     1.008   -0.512550   -0.229451   -7.280340
   7 H     1.0000    0     1.008   -2.994120   -1.366896   -5.422720

--------------------------------
INTERNAL COORDINATES (ANGSTROEM)
--------------------------------
 C      0   0   0     0.000000000000     0.00000000     0.00000000
 C      1   0   0     1.535303482638     0.00000000     0.00000000
 H      2   1   0     1.113154703085   108.03691238     0.00000000
 H      2   1   3     1.107030863210   106.71603084   247.95688852
 O      2   1   3     1.373880055536   112.93635469   124.93097711
 H      1   2   3     1.069999967710   109.47119555    55.06927945
 H      1   2   3     1.069996158217   109.47147566   295.06890445
 H      1   2   3     1.070005570873   109.47106927   175.06881874

---------------------------
INTERNAL COORDINATES (A.U.)
---------------------------
 C      0   0   0     0.000000000000     0.00000000     0.00000000
 C      1   0   0     2.901303114641     0.00000000     0.00000000
 H      2   1   0     2.103557533517   108.03691238     0.00000000
 H      2   1   3     2.091985153266   106.71603084   247.95688852
 O      2   1   3     2.596257045820   112.93635469   124.93097711
 H      1   2   3     2.022006902277   109.47119555    55.06927945
 H      1   2   3     2.021999703379   109.47147566   295.06890445
 H      1   2   3     2.022017490721   109.47106927   175.06881874

---------------------
BASIS SET INFORMATION
---------------------
There are 3 groups of distinct atoms

 Group   1 Type C   : 11s6p2d1f contracted to 5s3p2d1f pattern {62111/411/11/1}
 Group   2 Type H   : 5s1p contracted to 3s1p pattern {311/1}
 Group   3 Type O   : 11s6p2d1f contracted to 5s3p2d1f pattern {62111/411/11/1}

Atom   0C    basis set group =>   1
Atom   1C    basis set group =>   1
Atom   2H    basis set group =>   2
Atom   3H    basis set group =>   2
Atom   4O    basis set group =>   3
Atom   5H    basis set group =>   2
Atom   6H    basis set group =>   2
Atom   7H    basis set group =>   2
---------------------------------
AUXILIARY/J BASIS SET INFORMATION
---------------------------------
There are 3 groups of distinct atoms

 Group   1 Type C   : 12s5p4d2f1g contracted to 6s4p3d1f1g pattern {711111/2111/211/2/1}
 Group   2 Type H   : 5s2p1d contracted to 3s1p1d pattern {311/2/1}
 Group   3 Type O   : 12s5p4d2f1g contracted to 6s4p3d1f1g pattern {711111/2111/211/2/1}

Atom   0C    basis set group =>   1
Atom   1C    basis set group =>   1
Atom   2H    basis set group =>   2
Atom   3H    basis set group =>   2
Atom   4O    basis set group =>   3
Atom   5H    basis set group =>   2
Atom   6H    basis set group =>   2
Atom   7H    basis set group =>   2


           ************************************************************
           *        Program running with 4 parallel MPI-processes     *
           *              working on a common directory               *
           ************************************************************
------------------------------------------------------------------------------
                           ORCA GTO INTEGRAL CALCULATION
                           -- RI-GTO INTEGRALS CHOSEN --
------------------------------------------------------------------------------
------------------------------------------------------------------------------
                   ___                                                        
                  /   \      - P O W E R E D   B Y -                         
                 /     \                                                     
                 |  |  |   _    _      __       _____    __    __             
                 |  |  |  | |  | |    /  \     |  _  \  |  |  /  |          
                  \  \/   | |  | |   /    \    | | | |  |  | /  /          
                 / \  \   | |__| |  /  /\  \   | |_| |  |  |/  /          
                |  |  |   |  __  | /  /__\  \  |    /   |      \           
                |  |  |   | |  | | |   __   |  |    \   |  |\   \          
                \     /   | |  | | |  |  |  |  | |\  \  |  | \   \       
                 \___/    |_|  |_| |__|  |__|  |_| \__\ |__|  \__/        
                                                                              
                      - O R C A' S   B I G   F R I E N D -                    
                                      &                                       
                       - I N T E G R A L  F E E D E R -                       
                                                                              
 v1 FN, 2020, v2 2021                                                         
------------------------------------------------------------------------------


Reading SHARK input file TZVP_TPSS_A_wt_dlpno_neg.SHARKINP.tmp ... ok
----------------------
SHARK INTEGRAL PACKAGE
----------------------

Number of atoms                             ...      8
Number of basis functions                   ...    123
Number of shells                            ...     53
Maximum angular momentum                    ...      3
Integral batch strategy                     ... SHARK/LIBINT Hybrid
RI-J (if used) integral strategy            ... SPLIT-RIJ (Revised 2003 algorithm where possible)
Printlevel                                  ...      1
Contraction scheme used                     ... SEGMENTED contraction
Coulomb Range Separation                    ... NOT USED
Exchange Range Separation                   ... NOT USED
Finite Nucleus Model                        ... NOT USED
Auxiliary Coulomb fitting basis             ... AVAILABLE
   # of basis functions in Aux-J            ...    202
   # of shells in Aux-J                     ...     70
   Maximum angular momentum in Aux-J        ...      4
Auxiliary J/K fitting basis                 ... NOT available
Auxiliary Correlation fitting basis         ... NOT available
Auxiliary 'external' fitting basis          ... NOT available
Integral threshold                          ...     2.500000e-11
Primitive cut-off                           ...     2.500000e-12
Primitive pair pre-selection threshold      ...     2.500000e-12

Calculating pre-screening integrals         ... done (  0.1 sec) Dimension = 53
Organizing shell pair data                  ... done (  0.0 sec)
Shell pair information
Total number of shell pairs                 ...      1431
Shell pairs after pre-screening             ...      1417
Total number of primitive shell pairs       ...      4176
Primitive shell pairs kept                  ...      3523
          la=0 lb=0:    455 shell pairs
          la=1 lb=0:    418 shell pairs
          la=1 lb=1:    105 shell pairs
          la=2 lb=0:    178 shell pairs
          la=2 lb=1:     84 shell pairs
          la=2 lb=2:     21 shell pairs
          la=3 lb=0:     90 shell pairs
          la=3 lb=1:     42 shell pairs
          la=3 lb=2:     18 shell pairs
          la=3 lb=3:      6 shell pairs

Calculating one electron integrals          ... done (  0.0 sec)
Calculating RI/J V-Matrix + Cholesky decomp.... done (  0.0 sec)
Calculating Nuclear repulsion               ... done (  0.0 sec) ENN=     74.329912540916 Eh

SHARK setup successfully completed in   0.2 seconds

Maximum memory used throughout the entire GTOINT-calculation: 13.8 MB


           ************************************************************
           *        Program running with 4 parallel MPI-processes     *
           *              working on a common directory               *
           ************************************************************
-------------------------------------------------------------------------------
                                 ORCA SCF
-------------------------------------------------------------------------------

------------
SCF SETTINGS
------------
Hamiltonian:
 Density Functional     Method          .... DFT(GTOs)
 Exchange Functional    Exchange        .... TPSS
 Correlation Functional Correlation     .... TPSS
 LDA part of GGA corr.  LDAOpt          .... PW91-LDA
 Gradients option       PostSCFGGA      .... off
   Density functional embedding theory  .... OFF
   NL short-range parameter             ....  5.000000
 RI-approximation to the Coulomb term is turned on
   Number of AuxJ basis functions       .... 202


General Settings:
 Integral files         IntName         .... TZVP_TPSS_A_wt_dlpno_neg
 Hartree-Fock type      HFTyp           .... RHF
 Total Charge           Charge          ....   -1
 Multiplicity           Mult            ....    1
 Number of Electrons    NEL             ....   26
 Basis Dimension        Dim             ....  123
 Nuclear Repulsion      ENuc            ....     74.3299125409 Eh

Convergence Acceleration:
 DIIS                   CNVDIIS         .... on
   Start iteration      DIISMaxIt       ....    12
   Startup error        DIISStart       ....  0.200000
   # of expansion vecs  DIISMaxEq       ....     5
   Bias factor          DIISBfac        ....   1.050
   Max. coefficient     DIISMaxC        ....  10.000
 Trust-Rad. Augm. Hess. CNVTRAH         .... auto
   Auto Start mean grad. ratio tolernc. ....  1.125000
   Auto Start start iteration           ....    20
   Auto Start num. interpolation iter.  ....    10
   Max. Number of Micro iterations      ....    16
   Max. Number of Macro iterations      .... Maxiter - #DIIS iter
   Number of Davidson start vectors     ....     2
   Converg. threshold I  (grad. norm)   ....   1.000e-05
   Converg. threshold II (energy diff.) ....   1.000e-08
   Grad. Scal. Fac. for Micro threshold ....   0.100
   Minimum threshold for Micro iter.    ....   0.010
   NR start threshold (gradient norm)   ....   0.001
   Initial trust radius                 ....   0.400
   Minimum AH scaling param. (alpha)    ....   1.000
   Maximum AH scaling param. (alpha)    .... 1000.000
   Orbital update algorithm             .... Taylor
   White noise on init. David. guess    .... on
   Maximum white noise                  ....   0.010
   Quad. conv. algorithm                .... NR
 SOSCF                  CNVSOSCF        .... on
   Start iteration      SOSCFMaxIt      ....   150
   Startup grad/error   SOSCFStart      ....  0.003300
 Level Shifting         CNVShift        .... on
   Level shift para.    LevelShift      ....    0.2500
   Turn off err/grad.   ShiftErr        ....    0.0010
 Zerner damping         CNVZerner       .... off
 Static damping         CNVDamp         .... on
   Fraction old density DampFac         ....    0.7000
   Max. Damping (<1)    DampMax         ....    0.9800
   Min. Damping (>=0)   DampMin         ....    0.0000
   Turn off err/grad.   DampErr         ....    0.1000
 Fernandez-Rico         CNVRico         .... off

SCF Procedure:
 Maximum # iterations   MaxIter         ....   150
 SCF integral mode      SCFMode         .... Direct
   Integral package                     .... SHARK and LIBINT hybrid scheme
 Reset frequency        DirectResetFreq ....    20
 Integral Threshold     Thresh          ....  2.500e-11 Eh
 Primitive CutOff       TCut            ....  2.500e-12 Eh

Convergence Tolerance:
 Convergence Check Mode ConvCheckMode   .... Total+1el-Energy
 Convergence forced     ConvForced      .... 0
 Energy Change          TolE            ....  1.000e-08 Eh
 1-El. energy change                    ....  1.000e-05 Eh
 Orbital Gradient       TolG            ....  1.000e-05
 Orbital Rotation angle TolX            ....  1.000e-05
 DIIS Error             TolErr          ....  5.000e-07


Diagonalization of the overlap matrix:
Smallest eigenvalue                        ... 5.691e-04
Time for diagonalization                   ...    0.005 sec
Threshold for overlap eigenvalues          ... 1.000e-08
Number of eigenvalues below threshold      ... 0
Time for construction of square roots      ...    0.004 sec
Total time needed                          ...    0.009 sec

Time for model grid setup =    0.037 sec

------------------------------
INITIAL GUESS: MODEL POTENTIAL
------------------------------
Loading Hartree-Fock densities                     ... done
Calculating cut-offs                               ... done
Initializing the effective Hamiltonian             ... done
Setting up the integral package (SHARK)            ... done
Starting the Coulomb interaction                   ... done (   0.0 sec)
Reading the grid                                   ... done
Mapping shells                                     ... done
Starting the XC term evaluation                    ... done (   0.0 sec)
  promolecular density results
     # of electrons  =     24.997847006
     EX              =    -19.793376299
     EC              =     -0.801228492
     EX+EC           =    -20.594604791
Transforming the Hamiltonian                       ... done (   0.0 sec)
Diagonalizing the Hamiltonian                      ... done (   0.0 sec)
Back transforming the eigenvectors                 ... done (   0.0 sec)
Now organizing SCF variables                       ... done
                      ------------------
                      INITIAL GUESS DONE (   0.1 sec)
                      ------------------
-------------------
DFT GRID GENERATION
-------------------

General Integration Accuracy     IntAcc      ... 4.388
Radial Grid Type                 RadialGrid  ... OptM3 with GC (2021)
Angular Grid (max. ang.)         AngularGrid ... 4 (Lebedev-302)
Angular grid pruning method      GridPruning ... 4 (adaptive)
Weight generation scheme         WeightScheme... Becke
Basis function cutoff            BFCut       ... 1.0000e-11
Integration weight cutoff        WCut        ... 1.0000e-14
Angular grids for H and He will be reduced by one unit
Partially contracted basis set               ... off
Rotationally invariant grid construction     ... off

Total number of grid points                  ...    34556
Total number of batches                      ...      544
Average number of points per batch           ...       63
Average number of grid points per atom       ...     4320
Time for grid setup =    0.198 sec

--------------
SCF ITERATIONS
--------------
ITER       Energy         Delta-E        Max-DP      RMS-DP      [F,P]     Damp
               ***  Starting incremental Fock matrix formation  ***
  0   -154.2085696118   0.000000000000 3.94840337  0.04175154  0.3906222 0.7000
  1   -154.3633155790  -0.154745967205 2.38267764  0.02523844  0.0960016 0.7000
                               ***Turning on DIIS***
  2   -154.3947908054  -0.031475226403 0.71186316  0.01069877  0.0419462 0.0000
  3   -154.4807307245  -0.085939919077 2.66692960  0.02778903  0.0662101 0.0000
  4   -154.4937865454  -0.013055820887 0.71659305  0.00758969  0.0661798 0.0000
  5   -154.4988660920  -0.005079546619 0.25262740  0.00272652  0.0228369 0.0000
  6   -154.4997473964  -0.000881304434 0.09532439  0.00108078  0.0111247 0.0000
                      *** Initiating the SOSCF procedure ***
                           *** Shutting down DIIS ***
                      *** Re-Reading the Fockian *** 
                      *** Removing any level shift *** 
ITER      Energy       Delta-E        Grad      Rot      Max-DP    RMS-DP
  7   -154.49994541  -0.0001980127  0.001052  0.001052  0.058617  0.000659
               *** Restarting incremental Fock matrix formation ***
  8   -154.49996815  -0.0000227375  0.000621  0.004936  0.094154  0.001055
  9   -154.49997624  -0.0000080977  0.000252  0.001605  0.031699  0.000346
 10   -154.49997500   0.0000012470  0.000371  0.001702  0.033602  0.000365
 11   -154.49997722  -0.0000022274  0.000102  0.000304  0.001414  0.000039
 12   -154.49997699   0.0000002380  0.000152  0.000178  0.002998  0.000041
 13   -154.49997745  -0.0000004613  0.000007  0.000012  0.000074  0.000001
 14   -154.49997745   0.0000000009  0.000009  0.000008  0.000243  0.000003
                  ***Gradient check signals convergence***
              ***Rediagonalizing the Fockian in SOSCF/NRSCF***

               *****************************************************
               *                     SUCCESS                       *
               *           SCF CONVERGED AFTER  15 CYCLES          *
               *****************************************************


----------------
TOTAL SCF ENERGY
----------------

Total Energy       :         -154.49997745 Eh           -4204.15812 eV

Components:
Nuclear Repulsion  :           74.32991254 Eh            2022.61975 eV
Electronic Energy  :         -228.82988999 Eh           -6226.77787 eV
One Electron Energy:         -362.90753041 Eh           -9875.21595 eV
Two Electron Energy:          134.07764042 Eh            3648.43808 eV

Virial components:
Potential Energy   :         -308.53712693 Eh           -8395.72205 eV
Kinetic Energy     :          154.03714948 Eh            4191.56393 eV
Virial Ratio       :            2.00300465


DFT components:
N(Alpha)           :       12.999982442000 electrons
N(Beta)            :       12.999982442000 electrons
N(Total)           :       25.999964884001 electrons
E(X)               :      -20.755304827117 Eh       
E(C)               :       -0.838896285970 Eh       
E(XC)              :      -21.594201113086 Eh       
DFET-embed. en.    :        0.000000000000 Eh       

---------------
SCF CONVERGENCE
---------------

  Last Energy change         ...   -1.9940e-09  Tolerance :   1.0000e-08
  Last MAX-Density change    ...    5.1205e-05  Tolerance :   1.0000e-07
  Last RMS-Density change    ...    6.1474e-07  Tolerance :   5.0000e-09
  Last Orbital Gradient      ...    1.0158e-06  Tolerance :   1.0000e-05
  Last Orbital Rotation      ...    3.2357e-06  Tolerance :   1.0000e-05

             **** THE GBW FILE WAS UPDATED (TZVP_TPSS_A_wt_dlpno_neg.gbw) ****
             **** DENSITY TZVP_TPSS_A_wt_dlpno_neg.scfp WAS UPDATED ****
             **** ENERGY FILE WAS UPDATED (TZVP_TPSS_A_wt_dlpno_neg.en.tmp) ****
             **** THE GBW FILE WAS UPDATED (TZVP_TPSS_A_wt_dlpno_neg.gbw) ****
             **** DENSITY TZVP_TPSS_A_wt_dlpno_neg.scfp WAS UPDATED ****
----------------
ORBITAL ENERGIES
----------------

  NO   OCC          E(Eh)            E(eV) 
   0   2.0000     -18.532941      -504.3070 
   1   2.0000      -9.787700      -266.3369 
   2   2.0000      -9.768255      -265.8077 
   3   2.0000      -0.599670       -16.3178 
   4   2.0000      -0.464252       -12.6329 
   5   2.0000      -0.317003        -8.6261 
   6   2.0000      -0.201636        -5.4868 
   7   2.0000      -0.180714        -4.9175 
   8   2.0000      -0.125418        -3.4128 
   9   2.0000      -0.111444        -3.0326 
  10   2.0000      -0.056773        -1.5449 
  11   2.0000       0.083413         2.2698 
  12   2.0000       0.086256         2.3471 
  13   0.0000       0.208889         5.6842 
  14   0.0000       0.243856         6.6357 
  15   0.0000       0.267734         7.2854 
  16   0.0000       0.271216         7.3802 
  17   0.0000       0.303996         8.2722 
  18   0.0000       0.334808         9.1106 
  19   0.0000       0.341230         9.2854 
  20   0.0000       0.378090        10.2884 
  21   0.0000       0.397773        10.8240 
  22   0.0000       0.453939        12.3523 
  23   0.0000       0.487481        13.2650 
  24   0.0000       0.546224        14.8635 
  25   0.0000       0.558908        15.2086 
  26   0.0000       0.577152        15.7051 
  27   0.0000       0.583826        15.8867 
  28   0.0000       0.602311        16.3897 
  29   0.0000       0.614932        16.7332 
  30   0.0000       0.657620        17.8947 
  31   0.0000       0.659696        17.9512 
  32   0.0000       0.722533        19.6611 
  33   0.0000       0.732671        19.9370 
  34   0.0000       0.785965        21.3872 
  35   0.0000       0.788804        21.4644 
  36   0.0000       0.886787        24.1307 
  37   0.0000       0.906601        24.6699 
  38   0.0000       1.004922        27.3453 
  39   0.0000       1.031232        28.0613 
  40   0.0000       1.061889        28.8955 
  41   0.0000       1.114070        30.3154 
  42   0.0000       1.191206        32.4144 
  43   0.0000       1.240394        33.7528 
  44   0.0000       1.252892        34.0929 
  45   0.0000       1.294602        35.2279 
  46   0.0000       1.334653        36.3177 
  47   0.0000       1.639406        44.6105 
  48   0.0000       1.660388        45.1815 
  49   0.0000       1.681847        45.7654 
  50   0.0000       1.715126        46.6710 
  51   0.0000       1.720258        46.8106 
  52   0.0000       1.722029        46.8588 
  53   0.0000       1.736369        47.2490 
  54   0.0000       1.843740        50.1707 
  55   0.0000       1.848860        50.3100 
  56   0.0000       1.871880        50.9365 
  57   0.0000       1.967372        53.5349 
  58   0.0000       2.000762        54.4435 
  59   0.0000       2.028103        55.1875 
  60   0.0000       2.071478        56.3678 
  61   0.0000       2.113927        57.5229 
  62   0.0000       2.211758        60.1850 
  63   0.0000       2.222328        60.4726 
  64   0.0000       2.279642        62.0322 
  65   0.0000       2.449500        66.6543 
  66   0.0000       2.471821        67.2617 
  67   0.0000       2.536849        69.0312 
  68   0.0000       2.547529        69.3218 
  69   0.0000       2.579086        70.1805 
  70   0.0000       2.603736        70.8513 
  71   0.0000       2.650365        72.1201 
  72   0.0000       2.706267        73.6413 
  73   0.0000       2.765085        75.2418 
  74   0.0000       2.779235        75.6268 
  75   0.0000       2.785789        75.8052 
  76   0.0000       2.852408        77.6180 
  77   0.0000       2.868849        78.0653 
  78   0.0000       2.947262        80.1991 
  79   0.0000       3.058079        83.2146 
  80   0.0000       3.098742        84.3210 
  81   0.0000       3.116107        84.7936 
  82   0.0000       3.207891        87.2912 
  83   0.0000       3.219077        87.5955 
  84   0.0000       3.221129        87.6514 
  85   0.0000       3.292018        89.5804 
  86   0.0000       3.308248        90.0220 
  87   0.0000       3.342160        90.9448 
  88   0.0000       3.461931        94.2039 
  89   0.0000       3.463369        94.2431 
  90   0.0000       3.540122        96.3316 
  91   0.0000       3.555968        96.7628 
  92   0.0000       3.562108        96.9299 
  93   0.0000       3.753582       102.1402 
  94   0.0000       3.761620       102.3589 
  95   0.0000       3.792161       103.1899 
  96   0.0000       3.982040       108.3568 
  97   0.0000       4.008649       109.0809 
  98   0.0000       4.093737       111.3963 
  99   0.0000       4.111276       111.8735 
 100   0.0000       4.179122       113.7197 
 101   0.0000       4.464874       121.4954 
 102   0.0000       4.502272       122.5131 
 103   0.0000       4.661202       126.8378 
 104   0.0000       4.690482       127.6345 
 105   0.0000       4.800327       130.6235 
 106   0.0000       4.805835       130.7734 
 107   0.0000       4.949541       134.6839 
 108   0.0000       5.508008       149.8805 
 109   0.0000       5.519542       150.1944 
 110   0.0000       5.707908       155.3201 
 111   0.0000       5.718136       155.5984 
 112   0.0000       6.120537       166.5483 
 113   0.0000       6.160212       167.6279 
 114   0.0000       6.233577       169.6242 
 115   0.0000       6.629987       180.4111 
 116   0.0000       6.646807       180.8688 
 117   0.0000       7.057052       192.0321 
 118   0.0000       7.112228       193.5336 
 119   0.0000       7.216241       196.3639 
 120   0.0000      22.513133       612.6135 
 121   0.0000      22.644185       616.1796 
 122   0.0000      43.888476      1194.2661 

                    ********************************
                    * MULLIKEN POPULATION ANALYSIS *
                    ********************************

-----------------------
MULLIKEN ATOMIC CHARGES
-----------------------
   0 C :   -0.090809
   1 C :    0.054037
   2 H :   -0.084381
   3 H :   -0.082384
   4 O :   -0.759325
   5 H :   -0.058959
   6 H :    0.009451
   7 H :    0.012370
Sum of atomic charges:   -1.0000000

--------------------------------
MULLIKEN REDUCED ORBITAL CHARGES
--------------------------------
  0 C s       :     2.968787  s :     2.968787
      pz      :     1.004378  p :     3.051545
      px      :     1.034762
      py      :     1.012405
      dz2     :     0.010388  d :     0.065922
      dxz     :     0.009720
      dyz     :     0.019723
      dx2y2   :     0.015080
      dxy     :     0.011010
      f0      :     0.000423  f :     0.004555
      f+1     :     0.000545
      f-1     :     0.000505
      f+2     :     0.001078
      f-2     :     0.001064
      f+3     :     0.000618
      f-3     :     0.000322
  1 C s       :     3.144684  s :     3.144684
      pz      :     0.834250  p :     2.638419
      px      :     0.919256
      py      :     0.884913
      dz2     :     0.041243  d :     0.151369
      dxz     :     0.040190
      dyz     :     0.021746
      dx2y2   :     0.021616
      dxy     :     0.026574
      f0      :     0.002162  f :     0.011490
      f+1     :     0.001343
      f-1     :     0.001545
      f+2     :     0.002621
      f-2     :     0.002043
      f+3     :     0.000760
      f-3     :     0.001015
  2 H s       :     1.065473  s :     1.065473
      pz      :     0.006172  p :     0.018908
      px      :     0.007820
      py      :     0.004916
  3 H s       :     1.063237  s :     1.063237
      pz      :     0.004629  p :     0.019147
      px      :     0.005267
      py      :     0.009251
  4 O s       :     3.871706  s :     3.871706
      pz      :     1.520099  p :     4.864065
      px      :     1.743664
      py      :     1.600302
      dz2     :     0.005298  d :     0.022225
      dxz     :     0.004354
      dyz     :     0.007472
      dx2y2   :     0.002309
      dxy     :     0.002792
      f0      :     0.000169  f :     0.001328
      f+1     :     0.000168
      f-1     :     0.000371
      f+2     :     0.000228
      f-2     :     0.000276
      f+3     :     0.000068
      f-3     :     0.000048
  5 H s       :     1.037969  s :     1.037969
      pz      :     0.008713  p :     0.020990
      px      :     0.005755
      py      :     0.006522
  6 H s       :     0.969975  s :     0.969975
      pz      :     0.005528  p :     0.020574
      px      :     0.005769
      py      :     0.009278
  7 H s       :     0.967109  s :     0.967109
      pz      :     0.006481  p :     0.020521
      px      :     0.008565
      py      :     0.005476


                     *******************************
                     * LOEWDIN POPULATION ANALYSIS *
                     *******************************

----------------------
LOEWDIN ATOMIC CHARGES
----------------------
   0 C :   -0.358961
   1 C :   -0.547764
   2 H :    0.046156
   3 H :    0.047677
   4 O :   -0.413906
   5 H :    0.064206
   6 H :    0.080840
   7 H :    0.081750

-------------------------------
LOEWDIN REDUCED ORBITAL CHARGES
-------------------------------
  0 C s       :     2.854538  s :     2.854538
      pz      :     1.058495  p :     3.201518
      px      :     1.075739
      py      :     1.067285
      dz2     :     0.036206  d :     0.276917
      dxz     :     0.063193
      dyz     :     0.073330
      dx2y2   :     0.054508
      dxy     :     0.049680
      f0      :     0.003993  f :     0.025987
      f+1     :     0.003437
      f-1     :     0.003585
      f+2     :     0.004355
      f-2     :     0.003467
      f+3     :     0.004561
      f-3     :     0.002590
  1 C s       :     2.820530  s :     2.820530
      pz      :     0.970904  p :     2.955940
      px      :     1.007104
      py      :     0.977932
      dz2     :     0.144479  d :     0.693671
      dxz     :     0.180944
      dyz     :     0.142682
      dx2y2   :     0.095913
      dxy     :     0.129653
      f0      :     0.017156  f :     0.077622
      f+1     :     0.007938
      f-1     :     0.012729
      f+2     :     0.014310
      f-2     :     0.011240
      f+3     :     0.006452
      f-3     :     0.007798
  2 H s       :     0.898629  s :     0.898629
      pz      :     0.018968  p :     0.055215
      px      :     0.022771
      py      :     0.013475
  3 H s       :     0.896198  s :     0.896198
      pz      :     0.012675  p :     0.056125
      px      :     0.016619
      py      :     0.026831
  4 O s       :     3.518353  s :     3.518353
      pz      :     1.541587  p :     4.839371
      px      :     1.688155
      py      :     1.609630
      dz2     :     0.012580  d :     0.052323
      dxz     :     0.010567
      dyz     :     0.016893
      dx2y2   :     0.005629
      dxy     :     0.006655
      f0      :     0.000524  f :     0.003859
      f+1     :     0.000483
      f-1     :     0.001043
      f+2     :     0.000674
      f-2     :     0.000785
      f+3     :     0.000215
      f-3     :     0.000134
  5 H s       :     0.870135  s :     0.870135
      pz      :     0.026613  p :     0.065658
      px      :     0.017244
      py      :     0.021801
  6 H s       :     0.855008  s :     0.855008
      pz      :     0.016592  p :     0.064151
      px      :     0.018646
      py      :     0.028914
  7 H s       :     0.854168  s :     0.854168
      pz      :     0.020839  p :     0.064083
      px      :     0.026989
      py      :     0.016254


                      *****************************
                      * MAYER POPULATION ANALYSIS *
                      *****************************

  NA   - Mulliken gross atomic population
  ZA   - Total nuclear charge
  QA   - Mulliken gross atomic charge
  VA   - Mayer's total valence
  BVA  - Mayer's bonded valence
  FA   - Mayer's free valence

  ATOM       NA         ZA         QA         VA         BVA        FA
  0 C      6.0908     6.0000    -0.0908     3.3084     3.3084     0.0000
  1 C      5.9460     6.0000     0.0540     4.3526     4.3526     0.0000
  2 H      1.0844     1.0000    -0.0844     0.8956     0.8956    -0.0000
  3 H      1.0824     1.0000    -0.0824     0.8957     0.8957     0.0000
  4 O      8.7593     8.0000    -0.7593     1.6597     1.6597     0.0000
  5 H      1.0590     1.0000    -0.0590     1.0639     1.0639     0.0000
  6 H      0.9905     1.0000     0.0095     1.0549     1.0549     0.0000
  7 H      0.9876     1.0000     0.0124     1.0531     1.0531     0.0000

  Mayer bond orders larger than 0.100000
B(  0-C ,  1-C ) :   0.8967 B(  0-C ,  4-O ) :  -0.3250 B(  0-C ,  5-H ) :   0.8947 
B(  0-C ,  6-H ) :   0.9521 B(  0-C ,  7-H ) :   0.9546 B(  1-C ,  2-H ) :   0.9035 
B(  1-C ,  3-H ) :   0.9050 B(  1-C ,  4-O ) :   1.6334 B(  4-O ,  5-H ) :   0.1344 


-------
TIMINGS
-------

Total SCF time: 0 days 0 hours 0 min 4 sec 

Total time                  ....       4.023 sec
Sum of individual times     ....       3.880 sec  ( 96.4%)

Fock matrix formation       ....       3.501 sec  ( 87.0%)
  Split-RI-J                ....       0.466 sec  ( 13.3% of F)
  XC integration            ....       3.006 sec  ( 85.9% of F)
    Basis function eval.    ....       0.532 sec  ( 17.7% of XC)
    Density eval.           ....       0.876 sec  ( 29.1% of XC)
    XC-Functional eval.     ....       0.324 sec  ( 10.8% of XC)
    XC-Potential eval.      ....       1.095 sec  ( 36.4% of XC)
Diagonalization             ....       0.033 sec  (  0.8%)
Density matrix formation    ....       0.003 sec  (  0.1%)
Population analysis         ....       0.005 sec  (  0.1%)
Initial guess               ....       0.053 sec  (  1.3%)
Orbital Transformation      ....       0.000 sec  (  0.0%)
Orbital Orthonormalization  ....       0.000 sec  (  0.0%)
DIIS solution               ....       0.026 sec  (  0.6%)
SOSCF solution              ....       0.024 sec  (  0.6%)
Grid generation             ....       0.234 sec  (  5.8%)

Maximum memory used throughout the entire SCF-calculation: 12.8 MB


-------------------------------------------------------------------------------
                          DFT DISPERSION CORRECTION                            
                                                                               
                              DFTD3 V3.1  Rev 1                                
                          USING Becke-Johnson damping                          
-------------------------------------------------------------------------------
The TPSS functional is recognized
Active option DFTDOPT                   ...         4   

molecular C6(AA) [au] = 434.692306 


            DFT-D V3
 parameters
 s6 scaling factor         :     1.0000 
 a1 scaling factor         :     0.4535 
 s8 scaling factor         :     1.9435 
 a2 scaling factor         :     4.4752 
 ad hoc parameters k1-k3   :    16.0000     1.3333    -4.0000 

 Edisp/kcal,au: -2.858027288933  -0.004554555911 
 E6   /kcal   :  -1.524691432 
 E8   /kcal   :  -1.333335857 
 % E8         :  46.652313719 

-------------------------   ----------------
Dispersion correction           -0.004554556
-------------------------   ----------------


-------------------------   --------------------
FINAL SINGLE POINT ENERGY      -154.504532004954
-------------------------   --------------------


                            ***************************************
                            *     ORCA property calculations      *
                            ***************************************

                                    ---------------------
                                    Active property flags
                                    ---------------------
   (+) Dipole Moment


------------------------------------------------------------------------------
                       ORCA ELECTRIC PROPERTIES CALCULATION
------------------------------------------------------------------------------

Dipole Moment Calculation                       ... on
Quadrupole Moment Calculation                   ... off
Polarizability Calculation                      ... off
GBWName                                         ... TZVP_TPSS_A_wt_dlpno_neg.gbw
Electron density file                           ... TZVP_TPSS_A_wt_dlpno_neg.scfp
The origin for moment calculation is the CENTER OF MASS  = ( 0.175747, -2.292654 -4.688002)

-------------
DIPOLE MOMENT
-------------
                                X             Y             Z
Electronic contribution:      1.57244       0.85187       2.59945
Nuclear contribution   :     -2.24828      -1.06600      -3.62481
                        -----------------------------------------
Total Dipole Moment    :     -0.67584      -0.21413      -1.02536
                        -----------------------------------------
Magnitude (a.u.)       :      1.24658
Magnitude (Debye)      :      3.16856



--------------------
Rotational spectrum 
--------------------
 
Rotational constants in cm-1:     1.278116     0.325414     0.286672 
Rotational constants in MHz : 38316.964654  9755.653004  8594.216906 

 Dipole components along the rotational axes: 
x,y,z [a.u.] :    -1.227716    -0.216002     0.004904 
x,y,z [Debye]:    -3.120607    -0.549034     0.012464 

 

Timings for individual modules:

Sum of individual times         ...        7.936 sec (=   0.132 min)
GTO integral calculation        ...        2.253 sec (=   0.038 min)  28.4 %
SCF iterations                  ...        5.683 sec (=   0.095 min)  71.6 %
                             ****ORCA TERMINATED NORMALLY****
TOTAL RUN TIME: 0 days 0 hours 0 minutes 8 seconds 444 msec
