
                                        *****************
                                        * O   R   C   A *
                                        *****************

                                            #,                                       
                                            ###                                      
                                            ####                                     
                                            #####                                    
                                            ######                                   
                                           ########,                                 
                                     ,,################,,,,,                         
                               ,,#################################,,                 
                          ,,##########################################,,             
                       ,#########################################, ''#####,          
                    ,#############################################,,   '####,        
                  ,##################################################,,,,####,       
                ,###########''''           ''''###############################       
              ,#####''   ,,,,##########,,,,          '''####'''          '####       
            ,##' ,,,,###########################,,,                        '##       
           ' ,,###''''                  '''############,,,                           
         ,,##''                                '''############,,,,        ,,,,,,###''
      ,#''                                            '''#######################'''  
     '                                                          ''''####''''         
             ,#######,   #######,   ,#######,      ##                                
            ,#'     '#,  ##    ##  ,#'     '#,    #''#        ######   ,####,        
            ##       ##  ##   ,#'  ##            #'  '#       #        #'  '#        
            ##       ##  #######   ##           ,######,      #####,   #    #        
            '#,     ,#'  ##    ##  '#,     ,#' ,#      #,         ##   #,  ,#        
             '#######'   ##     ##  '#######'  #'      '#     #####' # '####'        



                  #######################################################
                  #                        -***-                        #
                  #          Department of theory and spectroscopy      #
                  #    Directorship and core code : Frank Neese         #
                  #        Max Planck Institute fuer Kohlenforschung    #
                  #                Kaiser Wilhelm Platz 1               #
                  #                 D-45470 Muelheim/Ruhr               #
                  #                      Germany                        #
                  #                                                     #
                  #                  All rights reserved                #
                  #                        -***-                        #
                  #######################################################


                         Program Version 5.0.0 -  RELEASE  -
                                (SVN: $Rev: 19529$)
                ($Date: 2021-06-28 11:36:33 +0200 (Mo, 28 Jun 2021) $)


 With contributions from (in alphabetic order):
   Daniel Aravena         : Magnetic Suceptibility
   Michael Atanasov       : Ab Initio Ligand Field Theory (pilot matlab implementation)
   Alexander A. Auer      : GIAO ZORA, VPT2 properties, NMR spectrum
   Ute Becker             : Parallelization
   Giovanni Bistoni       : ED, misc. LED, open-shell LED, HFLD
   Martin Brehm           : Molecular dynamics
   Dmytro Bykov           : SCF Hessian
   Vijay G. Chilkuri      : MRCI spin determinant printing, contributions to CSF-ICE
   Dipayan Datta          : RHF DLPNO-CCSD density
   Achintya Kumar Dutta   : EOM-CC, STEOM-CC
   Dmitry Ganyushin       : Spin-Orbit,Spin-Spin,Magnetic field MRCI
   Miquel Garcia          : C-PCM Hessian, Gaussian charge scheme
   Yang Guo               : DLPNO-NEVPT2, F12-NEVPT2, CIM, IAO-localization
   Andreas Hansen         : Spin unrestricted coupled pair/coupled cluster methods
   Benjamin Helmich-Paris : MC-RPA, TRAH-SCF, COSX integrals
   Lee Huntington         : MR-EOM, pCC
   Robert Izsak           : Overlap fitted RIJCOSX, COSX-SCS-MP3, EOM
   Marcus Kettner         : VPT2
   Christian Kollmar      : KDIIS, OOCD, Brueckner-CCSD(T), CCSD density, CASPT2, CASPT2-K
   Simone Kossmann        : Meta GGA functionals, TD-DFT gradient, OOMP2, MP2 Hessian
   Martin Krupicka        : Initial AUTO-CI
   Lucas Lang             : DCDCAS
   Marvin Lechner         : AUTO-CI (C++ implementation), FIC-MRCC
   Dagmar Lenk            : GEPOL surface, SMD
   Dimitrios Liakos       : Extrapolation schemes; Compound Job, initial MDCI parallelization
   Dimitrios Manganas     : Further ROCIS development; embedding schemes
   Dimitrios Pantazis     : SARC Basis sets
   Anastasios Papadopoulos: AUTO-CI, single reference methods and gradients
   Taras Petrenko         : DFT Hessian,TD-DFT gradient, ASA, ECA, R-Raman, ABS, FL, XAS/XES, NRVS
   Peter Pinski           : DLPNO-MP2, DLPNO-MP2 Gradient
   Christoph Reimann      : Effective Core Potentials
   Marius Retegan         : Local ZFS, SOC
   Christoph Riplinger    : Optimizer, TS searches, QM/MM, DLPNO-CCSD(T), (RO)-DLPNO pert. Triples
   Tobias Risthaus        : Range-separated hybrids, TD-DFT gradient, RPA, STAB
   Michael Roemelt        : Original ROCIS implementation
   Masaaki Saitow         : Open-shell DLPNO-CCSD energy and density
   Barbara Sandhoefer     : DKH picture change effects
   Avijit Sen             : IP-ROCIS
   Kantharuban Sivalingam : CASSCF convergence, NEVPT2, FIC-MRCI
   Bernardo de Souza      : ESD, SOC TD-DFT
   Georgi Stoychev        : AutoAux, RI-MP2 NMR
   Willem Van den Heuvel  : Paramagnetic NMR
   Boris Wezisla          : Elementary symmetry handling
   Frank Wennmohs         : Technical directorship


 We gratefully acknowledge several colleagues who have allowed us to
 interface, adapt or use parts of their codes:
   Stefan Grimme, W. Hujo, H. Kruse, P. Pracht,  : VdW corrections, initial TS optimization,
                  C. Bannwarth, S. Ehlert          DFT functionals, gCP, sTDA/sTD-DF
   Ed Valeev, F. Pavosevic, A. Kumar             : LibInt (2-el integral package), F12 methods
   Garnet Chan, S. Sharma, J. Yang, R. Olivares  : DMRG
   Ulf Ekstrom                                   : XCFun DFT Library
   Mihaly Kallay                                 : mrcc  (arbitrary order and MRCC methods)
   Jiri Pittner, Ondrej Demel                    : Mk-CCSD
   Frank Weinhold                                : gennbo (NPA and NBO analysis)
   Christopher J. Cramer and Donald G. Truhlar   : smd solvation model
   Lars Goerigk                                  : TD-DFT with DH, B97 family of functionals
   V. Asgeirsson, H. Jonsson                     : NEB implementation
   FAccTs GmbH                                   : IRC, NEB, NEB-TS, DLPNO-Multilevel, CI-OPT
                                                   MM, QMMM, 2- and 3-layer-ONIOM, Crystal-QMMM,
                                                   LR-CPCM, SF, NACMEs, symmetry and pop. for TD-DFT,
                                                   nearIR, NL-DFT gradient (VV10), updates on ESD,
                                                   ML-optimized integration grids
   S Lehtola, MJT Oliveira, MAL Marques          : LibXC Library
   Liviu Ungur et al                             : ANISO software


 Your calculation uses the libint2 library for the computation of 2-el integrals
 For citations please refer to: http://libint.valeyev.net

 Your ORCA version has been built with support for libXC version: 5.1.0
 For citations please refer to: https://tddft.org/programs/libxc/

 This ORCA versions uses:
   CBLAS   interface :  Fast vector & matrix operations
   LAPACKE interface :  Fast linear algebra routines
   SCALAPACK package :  Parallel linear algebra routines
   Shared memory     :  Shared parallel matrices
   BLAS/LAPACK       :  OpenBLAS 0.3.15  USE64BITINT DYNAMIC_ARCH NO_AFFINITY Haswell SINGLE_THREADED
        Core in use  :  Haswell
   Copyright (c) 2011-2014, The OpenBLAS Project


Your calculation utilizes the atom-pairwise dispersion correction
with the zero-damping scheme (D30)
Cite in your paper:
S.Grimme, J.Antony, S.Ehrlich and H.Krieg, J.Chem.Phys., 132, (2010), 154104 
   

XCFun DFT library Copyright 2009-2010 Ulf Ekstrom and contributors.
See http://admol.org/xcfun for more information.
This is free software; see the source code for copying conditions.
There is ABSOLUTELY NO WARRANTY; not even for MERCHANTABILITY or FITNESS FOR A PARTICULAR PURPOSE.
For details see the documentation.
Scientific users of this library should cite U. Ekstrom, L. Visscher, R. Bast, A. J. Thorvaldsen and K. Ruud;
J.Chem.Theor.Comp. 2010, DOI: 10.1021/ct100117s
XCFun Version 0.99 

================================================================================

----- Orbital basis set information -----
Your calculation utilizes the basis: def2-TZVP
   F. Weigend and R. Ahlrichs, Phys. Chem. Chem. Phys. 7, 3297 (2005).

----- AuxJ basis set information -----
Your calculation utilizes the auxiliary basis: def2/J
   F. Weigend, Phys. Chem. Chem. Phys. 8, 1057 (2006).

================================================================================
                                        WARNINGS
                       Please study these warnings very carefully!
================================================================================


INFO   : the flag for use of the SHARK integral package has been found!

================================================================================
                                       INPUT FILE
================================================================================
NAME = TZVP_wB97XD3_C1_wt_dlpno_pos.com
|  1> !wB97X-D3 RIJCOSX def2-TZVP def2/J TightSCF
|  2> *xyz 0 1
|  3> C          4.60295       -2.44010        2.63478
|  4> C          3.86085       -1.59157        3.62289
|  5> C          2.75650       -2.04616        4.16633
|  6> N          4.25433       -0.36291        3.86046
|  7> H          3.56526        0.31099        4.16898
|  8> H          5.05429       -0.01606        3.33784
|  9> H          2.43970       -2.97389        3.89740
| 10> H          2.06687       -1.41253        4.54981
| 11> C          3.74469       -2.58056        1.36188
| 12> H          5.56156       -1.97135        2.40708
| 13> H          4.81050       -3.42255        3.06310
| 14> H          4.26314       -3.18477        0.64702
| 15> H          3.56325       -1.61180        0.94535
| 16> H          2.81197       -3.04259        1.60980
| 17> *
| 18> 
| 19> %MaxCore 64000
| 20> 
| 21> %pal nprocs 4
| 22> end  
| 23> 
| 24> %scf
| 25>   MaxIter 150
| 26> end
| 27> 
| 28> 
| 29>                          ****END OF INPUT****
================================================================================

                       ****************************
                       * Single Point Calculation *
                       ****************************

---------------------------------
CARTESIAN COORDINATES (ANGSTROEM)
---------------------------------
  C      4.602950   -2.440100    2.634780
  C      3.860850   -1.591570    3.622890
  C      2.756500   -2.046160    4.166330
  N      4.254330   -0.362910    3.860460
  H      3.565260    0.310990    4.168980
  H      5.054290   -0.016060    3.337840
  H      2.439700   -2.973890    3.897400
  H      2.066870   -1.412530    4.549810
  C      3.744690   -2.580560    1.361880
  H      5.561560   -1.971350    2.407080
  H      4.810500   -3.422550    3.063100
  H      4.263140   -3.184770    0.647020
  H      3.563250   -1.611800    0.945350
  H      2.811970   -3.042590    1.609800

----------------------------
CARTESIAN COORDINATES (A.U.)
----------------------------
  NO LB      ZA    FRAG     MASS         X           Y           Z
   0 C     6.0000    0    12.011    8.698315   -4.611121    4.979013
   1 C     6.0000    0    12.011    7.295949   -3.007631    6.846270
   2 C     6.0000    0    12.011    5.209030   -3.866682    7.873223
   3 N     7.0000    0    14.007    8.039519   -0.685801    7.295212
   4 H     1.0000    0     1.008    6.737365    0.587686    7.878230
   5 H     1.0000    0     1.008    9.551224   -0.030349    6.307603
   6 H     1.0000    0     1.008    4.610365   -5.619838    7.365019
   7 H     1.0000    0     1.008    3.905818   -2.669295    8.597895
   8 C     6.0000    0    12.011    7.076439   -4.876552    2.573580
   9 H     1.0000    0     1.008   10.509825   -3.725312    4.548722
  10 H     1.0000    0     1.008    9.090528   -6.467682    5.788420
  11 H     1.0000    0     1.008    8.056167   -6.018343    1.222691
  12 H     1.0000    0     1.008    6.733567   -3.045861    1.786453
  13 H     1.0000    0     1.008    5.313853   -5.749662    3.042081

--------------------------------
INTERNAL COORDINATES (ANGSTROEM)
--------------------------------
 C      0   0   0     0.000000000000     0.00000000     0.00000000
 C      1   0   0     1.499025331007     0.00000000     0.00000000
 C      2   1   0     1.312085372299   119.57568677     0.00000000
 N      2   1   3     1.311819885083   120.06976995   185.44522009
 H      4   2   1     1.011999637006   118.33788111   152.74542731
 H      4   2   1     1.016549353696   117.54916055     1.38543617
 H      3   2   1     1.016547361317   117.96438387     0.26480118
 H      3   2   1     1.011994774789   120.90287833   202.77321355
 C      1   2   3     1.541626948778   108.67692307    67.43020295
 H      1   2   3     1.091103562729   109.22734322   188.48329293
 H      1   2   3     1.091669834428   110.17664154   306.40853300
 H      9   1   2     1.069992965491   109.47138286   180.00040466
 H      9   1   2     1.070006379467   109.47127510    59.99973159
 H      9   1   2     1.070001236308   109.47078048   300.00038812

---------------------------
INTERNAL COORDINATES (A.U.)
---------------------------
 C      0   0   0     0.000000000000     0.00000000     0.00000000
 C      1   0   0     2.832747343413     0.00000000     0.00000000
 C      2   1   0     2.479482017968   119.57568677     0.00000000
 N      2   1   3     2.478980319840   120.06976995   185.44522009
 H      4   2   1     1.912402161569   118.33788111   152.74542731
 H      4   2   1     1.920999880100   117.54916055     1.38543617
 H      3   2   1     1.920996115049   117.96438387     0.26480118
 H      3   2   1     1.912392973310   120.90287833   202.77321355
 C      1   2   3     2.913252733864   108.67692307    67.43020295
 H      1   2   3     2.061886917304   109.22734322   188.48329293
 H      1   2   3     2.062957015732   110.17664154   306.40853300
 H      9   1   2     2.021993670000   109.47138286   180.00040466
 H      9   1   2     2.022019018741   109.47127510    59.99973159
 H      9   1   2     2.022009299579   109.47078048   300.00038812

---------------------
BASIS SET INFORMATION
---------------------
There are 3 groups of distinct atoms

 Group   1 Type C   : 11s6p2d1f contracted to 5s3p2d1f pattern {62111/411/11/1}
 Group   2 Type N   : 11s6p2d1f contracted to 5s3p2d1f pattern {62111/411/11/1}
 Group   3 Type H   : 5s1p contracted to 3s1p pattern {311/1}

Atom   0C    basis set group =>   1
Atom   1C    basis set group =>   1
Atom   2C    basis set group =>   1
Atom   3N    basis set group =>   2
Atom   4H    basis set group =>   3
Atom   5H    basis set group =>   3
Atom   6H    basis set group =>   3
Atom   7H    basis set group =>   3
Atom   8C    basis set group =>   1
Atom   9H    basis set group =>   3
Atom  10H    basis set group =>   3
Atom  11H    basis set group =>   3
Atom  12H    basis set group =>   3
Atom  13H    basis set group =>   3
---------------------------------
AUXILIARY/J BASIS SET INFORMATION
---------------------------------
There are 3 groups of distinct atoms

 Group   1 Type C   : 12s5p4d2f1g contracted to 6s4p3d1f1g pattern {711111/2111/211/2/1}
 Group   2 Type N   : 12s5p4d2f1g contracted to 6s4p3d1f1g pattern {711111/2111/211/2/1}
 Group   3 Type H   : 5s2p1d contracted to 3s1p1d pattern {311/2/1}

Atom   0C    basis set group =>   1
Atom   1C    basis set group =>   1
Atom   2C    basis set group =>   1
Atom   3N    basis set group =>   2
Atom   4H    basis set group =>   3
Atom   5H    basis set group =>   3
Atom   6H    basis set group =>   3
Atom   7H    basis set group =>   3
Atom   8C    basis set group =>   1
Atom   9H    basis set group =>   3
Atom  10H    basis set group =>   3
Atom  11H    basis set group =>   3
Atom  12H    basis set group =>   3
Atom  13H    basis set group =>   3


           ************************************************************
           *        Program running with 4 parallel MPI-processes     *
           *              working on a common directory               *
           ************************************************************
------------------------------------------------------------------------------
                           ORCA GTO INTEGRAL CALCULATION
                           -- RI-GTO INTEGRALS CHOSEN --
------------------------------------------------------------------------------
------------------------------------------------------------------------------
                   ___                                                        
                  /   \      - P O W E R E D   B Y -                         
                 /     \                                                     
                 |  |  |   _    _      __       _____    __    __             
                 |  |  |  | |  | |    /  \     |  _  \  |  |  /  |          
                  \  \/   | |  | |   /    \    | | | |  |  | /  /          
                 / \  \   | |__| |  /  /\  \   | |_| |  |  |/  /          
                |  |  |   |  __  | /  /__\  \  |    /   |      \           
                |  |  |   | |  | | |   __   |  |    \   |  |\   \          
                \     /   | |  | | |  |  |  |  | |\  \  |  | \   \       
                 \___/    |_|  |_| |__|  |__|  |_| \__\ |__|  \__/        
                                                                              
                      - O R C A' S   B I G   F R I E N D -                    
                                      &                                       
                       - I N T E G R A L  F E E D E R -                       
                                                                              
 v1 FN, 2020, v2 2021                                                         
------------------------------------------------------------------------------


Reading SHARK input file TZVP_wB97XD3_C1_wt_dlpno_pos.SHARKINP.tmp ... ok
----------------------
SHARK INTEGRAL PACKAGE
----------------------

Number of atoms                             ...     14
Number of basis functions                   ...    209
Number of shells                            ...     91
Maximum angular momentum                    ...      3
Integral batch strategy                     ... SHARK/LIBINT Hybrid
RI-J (if used) integral strategy            ... SPLIT-RIJ (Revised 2003 algorithm where possible)
Printlevel                                  ...      1
Contraction scheme used                     ... SEGMENTED contraction
Coulomb Range Separation                    ... NOT USED
Exchange Range Separation                   ... Long Range
   Mu parameter                             ...  0.250000
   Scaling (regular/separated)              ...  0.195728  0.804272
Finite Nucleus Model                        ... NOT USED
Auxiliary Coulomb fitting basis             ... AVAILABLE
   # of basis functions in Aux-J            ...    344
   # of shells in Aux-J                     ...    120
   Maximum angular momentum in Aux-J        ...      4
Auxiliary J/K fitting basis                 ... NOT available
Auxiliary Correlation fitting basis         ... NOT available
Auxiliary 'external' fitting basis          ... NOT available
Integral threshold                          ...     2.500000e-11
Primitive cut-off                           ...     2.500000e-12
Primitive pair pre-selection threshold      ...     2.500000e-12

Calculating pre-screening integrals         ... done (  0.1 sec) Dimension = 91
Organizing shell pair data                  ... done (  0.0 sec)
Shell pair information
Total number of shell pairs                 ...      4186
Shell pairs after pre-screening             ...      4053
Total number of primitive shell pairs       ...     12072
Primitive shell pairs kept                  ...      9357
          la=0 lb=0:   1299 shell pairs
          la=1 lb=0:   1212 shell pairs
          la=1 lb=1:    297 shell pairs
          la=2 lb=0:    509 shell pairs
          la=2 lb=1:    239 shell pairs
          la=2 lb=2:     55 shell pairs
          la=3 lb=0:    257 shell pairs
          la=3 lb=1:    120 shell pairs
          la=3 lb=2:     50 shell pairs
          la=3 lb=3:     15 shell pairs

Calculating one electron integrals          ... done (  0.0 sec)
Calculating RI/J V-Matrix + Cholesky decomp.... done (  0.0 sec)
Calculating Nuclear repulsion               ... done (  0.0 sec) ENN=    182.329948325271 Eh

SHARK setup successfully completed in   0.2 seconds

Maximum memory used throughout the entire GTOINT-calculation: 13.9 MB


           ************************************************************
           *        Program running with 4 parallel MPI-processes     *
           *              working on a common directory               *
           ************************************************************
-------------------------------------------------------------------------------
                                 ORCA SCF
-------------------------------------------------------------------------------

------------
SCF SETTINGS
------------
Hamiltonian:
 Density Functional     Method          .... DFT(GTOs)
 Exchange Functional    Exchange        .... WB97X-D3
 Correlation Functional Correlation     .... WB97X-D3
 Gradients option       PostSCFGGA      .... off
 Hybrid DFT is turned on
   Fraction HF Exchange ScalHFX         ....  0.195728
   Scaling of DF-GGA-X  ScalDFX         ....  0.000000
   Scaling of DF-GGA-C  ScalDFC         ....  1.000000
   Scaling of DF-LDA-C  ScalLDAC        ....  1.000000
   Perturbative correction              ....  0.000000
   Density functional embedding theory  .... OFF
 Long-range corrected/Screened/Range-Separated Hybrid DFT is turned on
   Amount of maximum screened exact exchange              ....  0.804272
   Range separation parameter mu (erf(mu*r12)/r12)        ....  0.250000
 RI-approximation to the Coulomb term is turned on
   Number of AuxJ basis functions       .... 344
   RIJ-COSX (HFX calculated with COS-X)).... on


General Settings:
 Integral files         IntName         .... TZVP_wB97XD3_C1_wt_dlpno_pos
 Hartree-Fock type      HFTyp           .... RHF
 Total Charge           Charge          ....    0
 Multiplicity           Mult            ....    1
 Number of Electrons    NEL             ....   40
 Basis Dimension        Dim             ....  209
 Nuclear Repulsion      ENuc            ....    182.3299483253 Eh

Convergence Acceleration:
 DIIS                   CNVDIIS         .... on
   Start iteration      DIISMaxIt       ....    12
   Startup error        DIISStart       ....  0.200000
   # of expansion vecs  DIISMaxEq       ....     5
   Bias factor          DIISBfac        ....   1.050
   Max. coefficient     DIISMaxC        ....  10.000
 Trust-Rad. Augm. Hess. CNVTRAH         .... auto
   Auto Start mean grad. ratio tolernc. ....  1.125000
   Auto Start start iteration           ....    20
   Auto Start num. interpolation iter.  ....    10
   Max. Number of Micro iterations      ....    16
   Max. Number of Macro iterations      .... Maxiter - #DIIS iter
   Number of Davidson start vectors     ....     2
   Converg. threshold I  (grad. norm)   ....   1.000e-05
   Converg. threshold II (energy diff.) ....   1.000e-08
   Grad. Scal. Fac. for Micro threshold ....   0.100
   Minimum threshold for Micro iter.    ....   0.010
   NR start threshold (gradient norm)   ....   0.001
   Initial trust radius                 ....   0.400
   Minimum AH scaling param. (alpha)    ....   1.000
   Maximum AH scaling param. (alpha)    .... 1000.000
   Orbital update algorithm             .... Taylor
   White noise on init. David. guess    .... on
   Maximum white noise                  ....   0.010
   Quad. conv. algorithm                .... NR
 SOSCF                  CNVSOSCF        .... on
   Start iteration      SOSCFMaxIt      ....   150
   Startup grad/error   SOSCFStart      ....  0.003300
 Level Shifting         CNVShift        .... on
   Level shift para.    LevelShift      ....    0.2500
   Turn off err/grad.   ShiftErr        ....    0.0010
 Zerner damping         CNVZerner       .... off
 Static damping         CNVDamp         .... on
   Fraction old density DampFac         ....    0.7000
   Max. Damping (<1)    DampMax         ....    0.9800
   Min. Damping (>=0)   DampMin         ....    0.0000
   Turn off err/grad.   DampErr         ....    0.1000
 Fernandez-Rico         CNVRico         .... off

SCF Procedure:
 Maximum # iterations   MaxIter         ....   150
 SCF integral mode      SCFMode         .... Direct
   Integral package                     .... SHARK and LIBINT hybrid scheme
 Reset frequency        DirectResetFreq ....    20
 Integral Threshold     Thresh          ....  2.500e-11 Eh
 Primitive CutOff       TCut            ....  2.500e-12 Eh

Convergence Tolerance:
 Convergence Check Mode ConvCheckMode   .... Total+1el-Energy
 Convergence forced     ConvForced      .... 0
 Energy Change          TolE            ....  1.000e-08 Eh
 1-El. energy change                    ....  1.000e-05 Eh
 Orbital Gradient       TolG            ....  1.000e-05
 Orbital Rotation angle TolX            ....  1.000e-05
 DIIS Error             TolErr          ....  5.000e-07


Diagonalization of the overlap matrix:
Smallest eigenvalue                        ... 1.148e-04
Time for diagonalization                   ...    0.009 sec
Threshold for overlap eigenvalues          ... 1.000e-08
Number of eigenvalues below threshold      ... 0
Time for construction of square roots      ...    0.007 sec
Total time needed                          ...    0.017 sec

Time for model grid setup =    0.088 sec

------------------------------
INITIAL GUESS: MODEL POTENTIAL
------------------------------
Loading Hartree-Fock densities                     ... done
Calculating cut-offs                               ... done
Initializing the effective Hamiltonian             ... done
Setting up the integral package (SHARK)            ... done
Starting the Coulomb interaction                   ... done (   0.1 sec)
Reading the grid                                   ... done
Mapping shells                                     ... done
Starting the XC term evaluation                    ... done (   0.1 sec)
  promolecular density results
     # of electrons  =     39.995332461
     EX              =    -29.713637019
     EC              =     -1.300195146
     EX+EC           =    -31.013832164
Transforming the Hamiltonian                       ... done (   0.0 sec)
Diagonalizing the Hamiltonian                      ... done (   0.0 sec)
Back transforming the eigenvectors                 ... done (   0.0 sec)
Now organizing SCF variables                       ... done
                      ------------------
                      INITIAL GUESS DONE (   0.3 sec)
                      ------------------
-------------------
DFT GRID GENERATION
-------------------

General Integration Accuracy     IntAcc      ... 4.388
Radial Grid Type                 RadialGrid  ... OptM3 with GC (2021)
Angular Grid (max. ang.)         AngularGrid ... 4 (Lebedev-302)
Angular grid pruning method      GridPruning ... 4 (adaptive)
Weight generation scheme         WeightScheme... Becke
Basis function cutoff            BFCut       ... 1.0000e-11
Integration weight cutoff        WCut        ... 1.0000e-14
Angular grids for H and He will be reduced by one unit
Partially contracted basis set               ... off
Rotationally invariant grid construction     ... off

Total number of grid points                  ...    59201
Total number of batches                      ...      934
Average number of points per batch           ...       63
Average number of grid points per atom       ...     4229
Time for grid setup =    0.381 sec

--------------------
COSX GRID GENERATION
--------------------

GRIDX 1
-------
General Integration Accuracy     IntAcc      ... 3.816
Radial Grid Type                 RadialGrid  ... OptM3 with GC (2021)
Angular Grid (max. ang.)         AngularGrid ... 1 (Lebedev-50)
Angular grid pruning method      GridPruning ... 4 (adaptive)
Weight generation scheme         WeightScheme... Becke
Basis function cutoff            BFCut       ... 1.0000e-11
Integration weight cutoff        WCut        ... 1.0000e-14
Angular grids for H and He will be reduced by one unit
Partially contracted basis set               ... on
Rotationally invariant grid construction     ... off

Total number of grid points                  ...     7623
Total number of batches                      ...      128
Average number of points per batch           ...       59
Average number of grid points per atom       ...      544
UseSFitting                                  ... on

GRIDX 2
-------
General Integration Accuracy     IntAcc      ... 4.020
Radial Grid Type                 RadialGrid  ... OptM3 with GC (2021)
Angular Grid (max. ang.)         AngularGrid ... 2 (Lebedev-110)
Angular grid pruning method      GridPruning ... 4 (adaptive)
Weight generation scheme         WeightScheme... Becke
Basis function cutoff            BFCut       ... 1.0000e-11
Integration weight cutoff        WCut        ... 1.0000e-14
Angular grids for H and He will be reduced by one unit
Partially contracted basis set               ... on
Rotationally invariant grid construction     ... off

Total number of grid points                  ...    15942
Total number of batches                      ...      258
Average number of points per batch           ...       61
Average number of grid points per atom       ...     1139
UseSFitting                                  ... on

GRIDX 3
-------
General Integration Accuracy     IntAcc      ... 4.338
Radial Grid Type                 RadialGrid  ... OptM3 with GC (2021)
Angular Grid (max. ang.)         AngularGrid ... 3 (Lebedev-194)
Angular grid pruning method      GridPruning ... 4 (adaptive)
Weight generation scheme         WeightScheme... Becke
Basis function cutoff            BFCut       ... 1.0000e-11
Integration weight cutoff        WCut        ... 1.0000e-14
Angular grids for H and He will be reduced by one unit
Partially contracted basis set               ... on
Rotationally invariant grid construction     ... off

Total number of grid points                  ...    34926
Total number of batches                      ...      551
Average number of points per batch           ...       63
Average number of grid points per atom       ...     2495
UseSFitting                                  ... on

Time for X-Grid setup             =    0.366 sec

--------------
SCF ITERATIONS
--------------
ITER       Energy         Delta-E        Max-DP      RMS-DP      [F,P]     Damp
               ***  Starting incremental Fock matrix formation  ***
  0   -212.3253604661   0.000000000000 0.04312567  0.00105398  0.2271976 0.7000
  1   -212.4270617605  -0.101701294332 0.03099060  0.00084352  0.1330724 0.7000
                               ***Turning on DIIS***
  2   -212.4794235558  -0.052361795297 0.06100911  0.00172670  0.0671766 0.0000
  3   -212.5611552065  -0.081731650761 0.02252643  0.00052558  0.0553711 0.0000
  4   -212.5744511309  -0.013295924316 0.00457758  0.00015068  0.0100615 0.0000
                      *** Initiating the SOSCF procedure ***
                           *** Shutting down DIIS ***
                      *** Re-Reading the Fockian *** 
                      *** Removing any level shift *** 
ITER      Energy       Delta-E        Grad      Rot      Max-DP    RMS-DP
  5   -212.57483857  -0.0003874386  0.001069  0.001069  0.001947  0.000061
               *** Restarting incremental Fock matrix formation ***
  6   -212.57487816  -0.0000395912  0.000336  0.000850  0.001274  0.000041
  7   -212.57488452  -0.0000063611  0.000436  0.001291  0.000857  0.000024
  8   -212.57488690  -0.0000023743  0.000043  0.000057  0.000220  0.000008
  9   -212.57488700  -0.0000001035  0.000026  0.000034  0.000076  0.000002
 10   -212.57488703  -0.0000000285  0.000008  0.000027  0.000023  0.000001
 11   -212.57488703   0.0000000002  0.000003  0.000011  0.000008  0.000000
                  ***Gradient check signals convergence***
              ***Rediagonalizing the Fockian in SOSCF/NRSCF***

               *****************************************************
               *                     SUCCESS                       *
               *           SCF CONVERGED AFTER  12 CYCLES          *
               *****************************************************

Old exchange energy                            =    -10.283101471 Eh
New exchange energy                            =    -10.283112062 Eh
Exchange energy change after final integration =     -0.000010591 Eh
Total energy after final integration           =   -212.574897612 Eh
Final COS-X integration done in                =     5.491 sec

----------------
TOTAL SCF ENERGY
----------------

Total Energy       :         -212.57489761 Eh           -5784.45704 eV

Components:
Nuclear Repulsion  :          182.32994833 Eh            4961.45013 eV
Electronic Energy  :         -394.90484594 Eh          -10745.90717 eV
One Electron Energy:         -646.33292205 Eh          -17587.61295 eV
Two Electron Energy:          251.42807611 Eh            6841.70578 eV
Max COSX asymmetry :            0.00000195 Eh               0.00005 eV

Virial components:
Potential Energy   :         -424.68842143 Eh          -11556.35946 eV
Kinetic Energy     :          212.11352381 Eh            5771.90242 eV
Virial Ratio       :            2.00217513


DFT components:
N(Alpha)           :       20.000049972995 electrons
N(Beta)            :       20.000049972995 electrons
N(Total)           :       40.000099945989 electrons
E(XC)              :      -21.829309035028 Eh       
DFET-embed. en.    :        0.000000000000 Eh       

---------------
SCF CONVERGENCE
---------------

  Last Energy change         ...    6.6671e-09  Tolerance :   1.0000e-08
  Last MAX-Density change    ...    2.3315e-15  Tolerance :   1.0000e-07
  Last RMS-Density change    ...    1.9298e-17  Tolerance :   5.0000e-09
  Last Orbital Gradient      ...    1.6271e-06  Tolerance :   1.0000e-05
  Last Orbital Rotation      ...    2.9341e-06  Tolerance :   1.0000e-05

             **** THE GBW FILE WAS UPDATED (TZVP_wB97XD3_C1_wt_dlpno_pos.gbw) ****
             **** DENSITY TZVP_wB97XD3_C1_wt_dlpno_pos.scfp WAS UPDATED ****
             **** ENERGY FILE WAS UPDATED (TZVP_wB97XD3_C1_wt_dlpno_pos.en.tmp) ****
             **** THE GBW FILE WAS UPDATED (TZVP_wB97XD3_C1_wt_dlpno_pos.gbw) ****
             **** DENSITY TZVP_wB97XD3_C1_wt_dlpno_pos.scfp WAS UPDATED ****
----------------
ORBITAL ENERGIES
----------------

  NO   OCC          E(Eh)            E(eV) 
   0   2.0000     -14.420044      -392.3894 
   1   2.0000     -10.293236      -280.0932 
   2   2.0000     -10.277291      -279.6593 
   3   2.0000     -10.258750      -279.1548 
   4   2.0000     -10.199051      -277.5303 
   5   2.0000      -1.050209       -28.5777 
   6   2.0000      -0.898713       -24.4552 
   7   2.0000      -0.826191       -22.4818 
   8   2.0000      -0.751749       -20.4561 
   9   2.0000      -0.667546       -18.1648 
  10   2.0000      -0.626104       -17.0372 
  11   2.0000      -0.584400       -15.9023 
  12   2.0000      -0.548988       -14.9387 
  13   2.0000      -0.511207       -13.9107 
  14   2.0000      -0.485440       -13.2095 
  15   2.0000      -0.474239       -12.9047 
  16   2.0000      -0.447752       -12.1840 
  17   2.0000      -0.436579       -11.8799 
  18   2.0000      -0.423307       -11.5188 
  19   2.0000      -0.276792        -7.5319 
  20   0.0000       0.107929         2.9369 
  21   0.0000       0.118389         3.2215 
  22   0.0000       0.151755         4.1295 
  23   0.0000       0.157271         4.2796 
  24   0.0000       0.170094         4.6285 
  25   0.0000       0.183589         4.9957 
  26   0.0000       0.201685         5.4881 
  27   0.0000       0.213644         5.8136 
  28   0.0000       0.231242         6.2924 
  29   0.0000       0.243116         6.6155 
  30   0.0000       0.257509         7.0072 
  31   0.0000       0.263700         7.1756 
  32   0.0000       0.282914         7.6985 
  33   0.0000       0.307128         8.3574 
  34   0.0000       0.324785         8.8379 
  35   0.0000       0.340053         9.2533 
  36   0.0000       0.347700         9.4614 
  37   0.0000       0.376568        10.2469 
  38   0.0000       0.387666        10.5489 
  39   0.0000       0.413955        11.2643 
  40   0.0000       0.429243        11.6803 
  41   0.0000       0.440485        11.9862 
  42   0.0000       0.457362        12.4455 
  43   0.0000       0.482525        13.1302 
  44   0.0000       0.485528        13.2119 
  45   0.0000       0.493894        13.4395 
  46   0.0000       0.510934        13.9032 
  47   0.0000       0.519892        14.1470 
  48   0.0000       0.529048        14.3961 
  49   0.0000       0.539234        14.6733 
  50   0.0000       0.546608        14.8740 
  51   0.0000       0.552694        15.0396 
  52   0.0000       0.580670        15.8008 
  53   0.0000       0.593773        16.1574 
  54   0.0000       0.604061        16.4373 
  55   0.0000       0.626870        17.0580 
  56   0.0000       0.635757        17.2998 
  57   0.0000       0.675935        18.3931 
  58   0.0000       0.701755        19.0957 
  59   0.0000       0.709693        19.3117 
  60   0.0000       0.714822        19.4513 
  61   0.0000       0.752209        20.4686 
  62   0.0000       0.772102        21.0100 
  63   0.0000       0.800244        21.7758 
  64   0.0000       0.886816        24.1315 
  65   0.0000       0.910751        24.7828 
  66   0.0000       0.946637        25.7593 
  67   0.0000       0.967553        26.3284 
  68   0.0000       1.008617        27.4459 
  69   0.0000       1.023049        27.8386 
  70   0.0000       1.052588        28.6424 
  71   0.0000       1.099003        29.9054 
  72   0.0000       1.111058        30.2334 
  73   0.0000       1.127316        30.6758 
  74   0.0000       1.164827        31.6966 
  75   0.0000       1.181167        32.1412 
  76   0.0000       1.184361        32.2281 
  77   0.0000       1.211239        32.9595 
  78   0.0000       1.264680        34.4137 
  79   0.0000       1.282598        34.9013 
  80   0.0000       1.320581        35.9348 
  81   0.0000       1.335516        36.3413 
  82   0.0000       1.415857        38.5274 
  83   0.0000       1.457194        39.6523 
  84   0.0000       1.502567        40.8869 
  85   0.0000       1.528770        41.6000 
  86   0.0000       1.566075        42.6151 
  87   0.0000       1.598752        43.5043 
  88   0.0000       1.602040        43.5937 
  89   0.0000       1.624645        44.2088 
  90   0.0000       1.635812        44.5127 
  91   0.0000       1.664535        45.2943 
  92   0.0000       1.683411        45.8080 
  93   0.0000       1.691586        46.0304 
  94   0.0000       1.701529        46.3010 
  95   0.0000       1.708284        46.4848 
  96   0.0000       1.755415        47.7673 
  97   0.0000       1.772110        48.2216 
  98   0.0000       1.787785        48.6481 
  99   0.0000       1.803501        49.0758 
 100   0.0000       1.844074        50.1798 
 101   0.0000       1.879168        51.1347 
 102   0.0000       1.908569        51.9348 
 103   0.0000       1.934513        52.6408 
 104   0.0000       1.972927        53.6861 
 105   0.0000       1.988176        54.1010 
 106   0.0000       2.017360        54.8951 
 107   0.0000       2.048345        55.7383 
 108   0.0000       2.060229        56.0617 
 109   0.0000       2.113079        57.4998 
 110   0.0000       2.124464        57.8096 
 111   0.0000       2.202871        59.9432 
 112   0.0000       2.235841        60.8403 
 113   0.0000       2.263681        61.5979 
 114   0.0000       2.293873        62.4195 
 115   0.0000       2.302724        62.6603 
 116   0.0000       2.394238        65.1505 
 117   0.0000       2.408551        65.5400 
 118   0.0000       2.416962        65.7689 
 119   0.0000       2.450423        66.6794 
 120   0.0000       2.461687        66.9859 
 121   0.0000       2.476571        67.3909 
 122   0.0000       2.513168        68.3868 
 123   0.0000       2.530699        68.8638 
 124   0.0000       2.553724        69.4904 
 125   0.0000       2.608769        70.9882 
 126   0.0000       2.641245        71.8719 
 127   0.0000       2.652401        72.1755 
 128   0.0000       2.687071        73.1189 
 129   0.0000       2.701936        73.5234 
 130   0.0000       2.715177        73.8837 
 131   0.0000       2.727203        74.2110 
 132   0.0000       2.753526        74.9273 
 133   0.0000       2.771442        75.4148 
 134   0.0000       2.790046        75.9210 
 135   0.0000       2.812501        76.5320 
 136   0.0000       2.867444        78.0271 
 137   0.0000       2.898366        78.8685 
 138   0.0000       2.937415        79.9311 
 139   0.0000       2.962277        80.6077 
 140   0.0000       2.975776        80.9750 
 141   0.0000       3.030568        82.4659 
 142   0.0000       3.051772        83.0429 
 143   0.0000       3.120344        84.9089 
 144   0.0000       3.154271        85.8321 
 145   0.0000       3.167196        86.1838 
 146   0.0000       3.178281        86.4854 
 147   0.0000       3.188787        86.7713 
 148   0.0000       3.212400        87.4138 
 149   0.0000       3.242269        88.2266 
 150   0.0000       3.275483        89.1304 
 151   0.0000       3.312159        90.1284 
 152   0.0000       3.321878        90.3929 
 153   0.0000       3.350033        91.1590 
 154   0.0000       3.361920        91.4825 
 155   0.0000       3.396163        92.4143 
 156   0.0000       3.408046        92.7376 
 157   0.0000       3.442993        93.6886 
 158   0.0000       3.488319        94.9220 
 159   0.0000       3.500356        95.2495 
 160   0.0000       3.520579        95.7998 
 161   0.0000       3.557720        96.8105 
 162   0.0000       3.566802        97.0576 
 163   0.0000       3.595069        97.8268 
 164   0.0000       3.615394        98.3799 
 165   0.0000       3.634911        98.9110 
 166   0.0000       3.715802       101.1121 
 167   0.0000       3.748474       102.0012 
 168   0.0000       3.768336       102.5416 
 169   0.0000       3.826922       104.1358 
 170   0.0000       3.845333       104.6368 
 171   0.0000       3.915702       106.5517 
 172   0.0000       3.965450       107.9054 
 173   0.0000       3.982162       108.3601 
 174   0.0000       4.041163       109.9656 
 175   0.0000       4.058439       110.4358 
 176   0.0000       4.129928       112.3811 
 177   0.0000       4.142157       112.7138 
 178   0.0000       4.239969       115.3754 
 179   0.0000       4.362839       118.7189 
 180   0.0000       4.363539       118.7379 
 181   0.0000       4.428581       120.5078 
 182   0.0000       4.459326       121.3444 
 183   0.0000       4.506945       122.6402 
 184   0.0000       4.552879       123.8901 
 185   0.0000       4.582651       124.7003 
 186   0.0000       4.626020       125.8804 
 187   0.0000       4.690026       127.6221 
 188   0.0000       4.734230       128.8250 
 189   0.0000       4.768789       129.7653 
 190   0.0000       4.818814       131.1266 
 191   0.0000       4.873565       132.6164 
 192   0.0000       4.908721       133.5731 
 193   0.0000       4.975649       135.3943 
 194   0.0000       5.031628       136.9175 
 195   0.0000       5.046520       137.3228 
 196   0.0000       5.111569       139.0929 
 197   0.0000       5.355818       145.7392 
 198   0.0000       5.360636       145.8703 
 199   0.0000       5.417216       147.4099 
 200   0.0000       5.456049       148.4666 
 201   0.0000       5.617505       152.8601 
 202   0.0000       5.854533       159.3099 
 203   0.0000       6.085958       165.6073 
 204   0.0000      22.485867       611.8715 
 205   0.0000      22.597938       614.9212 
 206   0.0000      22.707460       617.9014 
 207   0.0000      23.378396       636.1585 
 208   0.0000      32.146192       874.7423 

                    ********************************
                    * MULLIKEN POPULATION ANALYSIS *
                    ********************************

-----------------------
MULLIKEN ATOMIC CHARGES
-----------------------
   0 C :   -0.200292
   1 C :    0.222048
   2 C :   -0.424343
   3 N :   -0.486914
   4 H :    0.243146
   5 H :    0.233550
   6 H :    0.092170
   7 H :    0.089366
   8 C :   -0.315127
   9 H :    0.083741
  10 H :    0.125023
  11 H :    0.110705
  12 H :    0.108542
  13 H :    0.118386
Sum of atomic charges:   -0.0000000

--------------------------------
MULLIKEN REDUCED ORBITAL CHARGES
--------------------------------
  0 C s       :     3.211818  s :     3.211818
      pz      :     0.923986  p :     2.895370
      px      :     0.953714
      py      :     1.017669
      dz2     :     0.024647  d :     0.087807
      dxz     :     0.014316
      dyz     :     0.022182
      dx2y2   :     0.014594
      dxy     :     0.012068
      f0      :     0.000956  f :     0.005298
      f+1     :     0.000912
      f-1     :     0.000541
      f+2     :     0.001138
      f-2     :     0.000988
      f+3     :     0.000162
      f-3     :     0.000600
  1 C s       :     3.077802  s :     3.077802
      pz      :     0.815898  p :     2.522144
      px      :     0.914098
      py      :     0.792148
      dz2     :     0.023412  d :     0.163581
      dxz     :     0.030829
      dyz     :     0.044681
      dx2y2   :     0.031385
      dxy     :     0.033274
      f0      :     0.001358  f :     0.014424
      f+1     :     0.002021
      f-1     :     0.001630
      f+2     :     0.002470
      f-2     :     0.001684
      f+3     :     0.002961
      f-3     :     0.002300
  2 C s       :     3.244309  s :     3.244309
      pz      :     1.176055  p :     3.136173
      px      :     0.928623
      py      :     1.031495
      dz2     :     0.009126  d :     0.038878
      dxz     :     0.008377
      dyz     :     0.004743
      dx2y2   :     0.006631
      dxy     :     0.010001
      f0      :     0.000496  f :     0.004984
      f+1     :     0.001473
      f-1     :     0.000193
      f+2     :     0.000492
      f-2     :     0.000875
      f+3     :     0.000894
      f-3     :     0.000561
  3 N s       :     3.458853  s :     3.458853
      pz      :     1.604930  p :     3.983813
      px      :     1.248936
      py      :     1.129946
      dz2     :     0.003612  d :     0.040796
      dxz     :     0.005709
      dyz     :     0.009860
      dx2y2   :     0.007623
      dxy     :     0.013992
      f0      :     0.000621  f :     0.003453
      f+1     :     0.000284
      f-1     :     0.000425
      f+2     :     0.000525
      f-2     :     0.000554
      f+3     :     0.000420
      f-3     :     0.000625
  4 H s       :     0.720666  s :     0.720666
      pz      :     0.012265  p :     0.036188
      px      :     0.012406
      py      :     0.011517
  5 H s       :     0.729662  s :     0.729662
      pz      :     0.014127  p :     0.036788
      px      :     0.015727
      py      :     0.006935
  6 H s       :     0.882078  s :     0.882078
      pz      :     0.007680  p :     0.025752
      px      :     0.005619
      py      :     0.012452
  7 H s       :     0.885470  s :     0.885470
      pz      :     0.008707  p :     0.025164
      px      :     0.008913
      py      :     0.007545
  8 C s       :     3.238481  s :     3.238481
      pz      :     0.963850  p :     3.023524
      px      :     1.009911
      py      :     1.049763
      dz2     :     0.010275  d :     0.050096
      dxz     :     0.009671
      dyz     :     0.014655
      dx2y2   :     0.007240
      dxy     :     0.008255
      f0      :     0.000539  f :     0.003027
      f+1     :     0.000574
      f-1     :     0.000262
      f+2     :     0.000573
      f-2     :     0.000759
      f+3     :     0.000003
      f-3     :     0.000317
  9 H s       :     0.894304  s :     0.894304
      pz      :     0.004654  p :     0.021955
      px      :     0.011932
      py      :     0.005369
 10 H s       :     0.853329  s :     0.853329
      pz      :     0.005660  p :     0.021648
      px      :     0.004519
      py      :     0.011469
 11 H s       :     0.867393  s :     0.867393
      pz      :     0.008648  p :     0.021901
      px      :     0.006165
      py      :     0.007089
 12 H s       :     0.869459  s :     0.869459
      pz      :     0.006023  p :     0.021999
      px      :     0.004812
      py      :     0.011164
 13 H s       :     0.859060  s :     0.859060
      pz      :     0.005003  p :     0.022554
      px      :     0.011629
      py      :     0.005921


                     *******************************
                     * LOEWDIN POPULATION ANALYSIS *
                     *******************************

----------------------
LOEWDIN ATOMIC CHARGES
----------------------
   0 C :   -0.233776
   1 C :   -0.372777
   2 C :   -0.277059
   3 N :   -0.003457
   4 H :    0.175695
   5 H :    0.169715
   6 H :    0.106240
   7 H :    0.098060
   8 C :   -0.285378
   9 H :    0.130405
  10 H :    0.146057
  11 H :    0.111754
  12 H :    0.116261
  13 H :    0.118260

-------------------------------
LOEWDIN REDUCED ORBITAL CHARGES
-------------------------------
  0 C s       :     2.768376  s :     2.768376
      pz      :     1.010780  p :     3.046772
      px      :     1.011010
      py      :     1.024982
      dz2     :     0.089593  d :     0.379709
      dxz     :     0.076632
      dyz     :     0.082027
      dx2y2   :     0.070366
      dxy     :     0.061092
      f0      :     0.007891  f :     0.038919
      f+1     :     0.005923
      f-1     :     0.004617
      f+2     :     0.006880
      f-2     :     0.006131
      f+3     :     0.002393
      f-3     :     0.005084
  1 C s       :     2.709825  s :     2.709825
      pz      :     0.892767  p :     2.845268
      px      :     1.012604
      py      :     0.939898
      dz2     :     0.098831  d :     0.722079
      dxz     :     0.111116
      dyz     :     0.169792
      dx2y2   :     0.174612
      dxy     :     0.167727
      f0      :     0.009716  f :     0.095605
      f+1     :     0.009653
      f-1     :     0.012479
      f+2     :     0.017553
      f-2     :     0.008463
      f+3     :     0.019624
      f-3     :     0.018117
  2 C s       :     2.798554  s :     2.798554
      pz      :     1.101869  p :     3.211505
      px      :     1.072302
      py      :     1.037335
      dz2     :     0.021310  d :     0.235774
      dxz     :     0.048803
      dyz     :     0.022209
      dx2y2   :     0.056196
      dxy     :     0.087257
      f0      :     0.003628  f :     0.031226
      f+1     :     0.004562
      f-1     :     0.001553
      f+2     :     0.005610
      f-2     :     0.004674
      f+3     :     0.006289
      f-3     :     0.004909
  3 N s       :     2.965793  s :     2.965793
      pz      :     1.454126  p :     3.859647
      px      :     1.219702
      py      :     1.185819
      dz2     :     0.008754  d :     0.165384
      dxz     :     0.015518
      dyz     :     0.040214
      dx2y2   :     0.034760
      dxy     :     0.066137
      f0      :     0.001787  f :     0.012633
      f+1     :     0.000359
      f-1     :     0.001632
      f+2     :     0.002584
      f-2     :     0.001241
      f+3     :     0.002043
      f-3     :     0.002988
  4 H s       :     0.717778  s :     0.717778
      pz      :     0.035126  p :     0.106527
      px      :     0.039891
      py      :     0.031510
  5 H s       :     0.723834  s :     0.723834
      pz      :     0.042526  p :     0.106451
      px      :     0.045010
      py      :     0.018914
  6 H s       :     0.818940  s :     0.818940
      pz      :     0.024122  p :     0.074820
      px      :     0.017461
      py      :     0.033237
  7 H s       :     0.825821  s :     0.825821
      pz      :     0.025928  p :     0.076119
      px      :     0.025197
      py      :     0.024994
  8 C s       :     2.820061  s :     2.820061
      pz      :     1.038702  p :     3.182082
      px      :     1.068764
      py      :     1.074617
      dz2     :     0.052340  d :     0.258388
      dxz     :     0.054910
      dyz     :     0.070126
      dx2y2   :     0.038999
      dxy     :     0.042013
      f0      :     0.005601  f :     0.024847
      f+1     :     0.003956
      f-1     :     0.002844
      f+2     :     0.003357
      f-2     :     0.004554
      f+3     :     0.001492
      f-3     :     0.003043
  9 H s       :     0.811315  s :     0.811315
      pz      :     0.013842  p :     0.058280
      px      :     0.027883
      py      :     0.016555
 10 H s       :     0.795250  s :     0.795250
      pz      :     0.015970  p :     0.058693
      px      :     0.013040
      py      :     0.029683
 11 H s       :     0.823931  s :     0.823931
      pz      :     0.023331  p :     0.064315
      px      :     0.019656
      py      :     0.021328
 12 H s       :     0.819472  s :     0.819472
      pz      :     0.016968  p :     0.064267
      px      :     0.015061
      py      :     0.032238
 13 H s       :     0.816686  s :     0.816686
      pz      :     0.015359  p :     0.065055
      px      :     0.031562
      py      :     0.018133


                      *****************************
                      * MAYER POPULATION ANALYSIS *
                      *****************************

  NA   - Mulliken gross atomic population
  ZA   - Total nuclear charge
  QA   - Mulliken gross atomic charge
  VA   - Mayer's total valence
  BVA  - Mayer's bonded valence
  FA   - Mayer's free valence

  ATOM       NA         ZA         QA         VA         BVA        FA
  0 C      6.2003     6.0000    -0.2003     3.9197     3.9197    -0.0000
  1 C      5.7780     6.0000     0.2220     3.8071     3.8071     0.0000
  2 C      6.4243     6.0000    -0.4243     3.8662     3.8662    -0.0000
  3 N      7.4869     7.0000    -0.4869     3.0902     3.0902     0.0000
  4 H      0.7569     1.0000     0.2431     0.9485     0.9485    -0.0000
  5 H      0.7665     1.0000     0.2335     0.9521     0.9521    -0.0000
  6 H      0.9078     1.0000     0.0922     0.9966     0.9966    -0.0000
  7 H      0.9106     1.0000     0.0894     0.9927     0.9927    -0.0000
  8 C      6.3151     6.0000    -0.3151     3.8924     3.8924    -0.0000
  9 H      0.9163     1.0000     0.0837     0.9779     0.9779     0.0000
 10 H      0.8750     1.0000     0.1250     0.9760     0.9760    -0.0000
 11 H      0.8893     1.0000     0.1107     0.9733     0.9733     0.0000
 12 H      0.8915     1.0000     0.1085     0.9765     0.9765     0.0000
 13 H      0.8816     1.0000     0.1184     0.9826     0.9826    -0.0000

  Mayer bond orders larger than 0.100000
B(  0-C ,  1-C ) :   0.9394 B(  0-C ,  8-C ) :   0.9596 B(  0-C ,  9-H ) :   0.9857 
B(  0-C , 10-H ) :   0.9877 B(  1-C ,  2-C ) :   1.7598 B(  1-C ,  3-N ) :   1.1496 
B(  2-C ,  6-H ) :   1.0070 B(  2-C ,  7-H ) :   0.9950 B(  3-N ,  4-H ) :   0.9178 
B(  3-N ,  5-H ) :   0.9248 B(  8-C , 11-H ) :   0.9783 B(  8-C , 12-H ) :   0.9762 
B(  8-C , 13-H ) :   0.9794 

-------
TIMINGS
-------

Total SCF time: 0 days 0 hours 0 min 36 sec 

Total time                  ....      36.851 sec
Sum of individual times     ....      36.650 sec  ( 99.5%)

Fock matrix formation       ....      35.470 sec  ( 96.3%)
  Split-RI-J                ....       1.603 sec  (  4.5% of F)
  Chain of spheres X        ....      30.114 sec  ( 84.9% of F)
  XC integration            ....       3.703 sec  ( 10.4% of F)
    Basis function eval.    ....       1.188 sec  ( 32.1% of XC)
    Density eval.           ....       0.860 sec  ( 23.2% of XC)
    XC-Functional eval.     ....       0.314 sec  (  8.5% of XC)
    XC-Potential eval.      ....       1.054 sec  ( 28.5% of XC)
Diagonalization             ....       0.066 sec  (  0.2%)
Density matrix formation    ....       0.006 sec  (  0.0%)
Population analysis         ....       0.010 sec  (  0.0%)
Initial guess               ....       0.173 sec  (  0.5%)
Orbital Transformation      ....       0.000 sec  (  0.0%)
Orbital Orthonormalization  ....       0.000 sec  (  0.0%)
DIIS solution               ....       0.036 sec  (  0.1%)
SOSCF solution              ....       0.054 sec  (  0.1%)
Grid generation             ....       0.834 sec  (  2.3%)

Maximum memory used throughout the entire SCF-calculation: 69.8 MB


-------------------------------------------------------------------------------
                          DFT DISPERSION CORRECTION                            
                                                                               
                              DFTD3 V3.1  Rev 1                                
                              USING zero damping                               
-------------------------------------------------------------------------------
The omegaB97X-D3 functional is recognized. Fit by Chai et al.
Active option DFTDOPT                   ...         3   

molecular C6(AA) [au] = 1467.947967 


            DFT-D V3
 parameters
 s6 scaling factor         :     1.0000 
 rs6 scaling factor        :     1.2810 
 s8 scaling factor         :     1.0000 
 rs8 scaling factor        :     1.0940 
 Damping factor alpha6     :    14.0000 
 Damping factor alpha8     :    16.0000 
 ad hoc parameters k1-k3   :    16.0000     1.3333    -4.0000 

 Edisp/kcal,au: -1.898658300865  -0.003025704275 
 E6   /kcal   :  -0.767473314 
 E8   /kcal   :  -1.131184987 
 % E8         :  59.578123500 

-------------------------   ----------------
Dispersion correction           -0.003025704
-------------------------   ----------------


-------------------------   --------------------
FINAL SINGLE POINT ENERGY      -212.577923316430
-------------------------   --------------------


                            ***************************************
                            *     ORCA property calculations      *
                            ***************************************

                                    ---------------------
                                    Active property flags
                                    ---------------------
   (+) Dipole Moment


------------------------------------------------------------------------------
                       ORCA ELECTRIC PROPERTIES CALCULATION
------------------------------------------------------------------------------

Dipole Moment Calculation                       ... on
Quadrupole Moment Calculation                   ... off
Polarizability Calculation                      ... off
GBWName                                         ... TZVP_wB97XD3_C1_wt_dlpno_pos.gbw
Electron density file                           ... TZVP_wB97XD3_C1_wt_dlpno_pos.scfp
The origin for moment calculation is the CENTER OF MASS  = ( 7.273346, -3.362209  5.857507)

-------------
DIPOLE MOMENT
-------------
                                X             Y             Z
Electronic contribution:      0.82634       1.79948       2.52390
Nuclear contribution   :     -0.47010      -1.22282      -3.06417
                        -----------------------------------------
Total Dipole Moment    :      0.35624       0.57666      -0.54026
                        -----------------------------------------
Magnitude (a.u.)       :      0.86679
Magnitude (Debye)      :      2.20321



--------------------
Rotational spectrum 
--------------------
 
Rotational constants in cm-1:     0.271862     0.131962     0.105499 
Rotational constants in MHz :  8150.219120  3956.123671  3162.785522 

 Dipole components along the rotational axes: 
x,y,z [a.u.] :    -0.135544     0.755324     0.403041 
x,y,z [Debye]:    -0.344525     1.919880     1.024449 

 

Timings for individual modules:

Sum of individual times         ...       41.124 sec (=   0.685 min)
GTO integral calculation        ...        2.357 sec (=   0.039 min)   5.7 %
SCF iterations                  ...       38.767 sec (=   0.646 min)  94.3 %
                             ****ORCA TERMINATED NORMALLY****
TOTAL RUN TIME: 0 days 0 hours 0 minutes 41 seconds 624 msec
