
                                        *****************
                                        * O   R   C   A *
                                        *****************

                                            #,                                       
                                            ###                                      
                                            ####                                     
                                            #####                                    
                                            ######                                   
                                           ########,                                 
                                     ,,################,,,,,                         
                               ,,#################################,,                 
                          ,,##########################################,,             
                       ,#########################################, ''#####,          
                    ,#############################################,,   '####,        
                  ,##################################################,,,,####,       
                ,###########''''           ''''###############################       
              ,#####''   ,,,,##########,,,,          '''####'''          '####       
            ,##' ,,,,###########################,,,                        '##       
           ' ,,###''''                  '''############,,,                           
         ,,##''                                '''############,,,,        ,,,,,,###''
      ,#''                                            '''#######################'''  
     '                                                          ''''####''''         
             ,#######,   #######,   ,#######,      ##                                
            ,#'     '#,  ##    ##  ,#'     '#,    #''#        ######   ,####,        
            ##       ##  ##   ,#'  ##            #'  '#       #        #'  '#        
            ##       ##  #######   ##           ,######,      #####,   #    #        
            '#,     ,#'  ##    ##  '#,     ,#' ,#      #,         ##   #,  ,#        
             '#######'   ##     ##  '#######'  #'      '#     #####' # '####'        



                  #######################################################
                  #                        -***-                        #
                  #          Department of theory and spectroscopy      #
                  #    Directorship and core code : Frank Neese         #
                  #        Max Planck Institute fuer Kohlenforschung    #
                  #                Kaiser Wilhelm Platz 1               #
                  #                 D-45470 Muelheim/Ruhr               #
                  #                      Germany                        #
                  #                                                     #
                  #                  All rights reserved                #
                  #                        -***-                        #
                  #######################################################


                         Program Version 5.0.0 -  RELEASE  -
                                (SVN: $Rev: 19529$)
                ($Date: 2021-06-28 11:36:33 +0200 (Mo, 28 Jun 2021) $)


 With contributions from (in alphabetic order):
   Daniel Aravena         : Magnetic Suceptibility
   Michael Atanasov       : Ab Initio Ligand Field Theory (pilot matlab implementation)
   Alexander A. Auer      : GIAO ZORA, VPT2 properties, NMR spectrum
   Ute Becker             : Parallelization
   Giovanni Bistoni       : ED, misc. LED, open-shell LED, HFLD
   Martin Brehm           : Molecular dynamics
   Dmytro Bykov           : SCF Hessian
   Vijay G. Chilkuri      : MRCI spin determinant printing, contributions to CSF-ICE
   Dipayan Datta          : RHF DLPNO-CCSD density
   Achintya Kumar Dutta   : EOM-CC, STEOM-CC
   Dmitry Ganyushin       : Spin-Orbit,Spin-Spin,Magnetic field MRCI
   Miquel Garcia          : C-PCM Hessian, Gaussian charge scheme
   Yang Guo               : DLPNO-NEVPT2, F12-NEVPT2, CIM, IAO-localization
   Andreas Hansen         : Spin unrestricted coupled pair/coupled cluster methods
   Benjamin Helmich-Paris : MC-RPA, TRAH-SCF, COSX integrals
   Lee Huntington         : MR-EOM, pCC
   Robert Izsak           : Overlap fitted RIJCOSX, COSX-SCS-MP3, EOM
   Marcus Kettner         : VPT2
   Christian Kollmar      : KDIIS, OOCD, Brueckner-CCSD(T), CCSD density, CASPT2, CASPT2-K
   Simone Kossmann        : Meta GGA functionals, TD-DFT gradient, OOMP2, MP2 Hessian
   Martin Krupicka        : Initial AUTO-CI
   Lucas Lang             : DCDCAS
   Marvin Lechner         : AUTO-CI (C++ implementation), FIC-MRCC
   Dagmar Lenk            : GEPOL surface, SMD
   Dimitrios Liakos       : Extrapolation schemes; Compound Job, initial MDCI parallelization
   Dimitrios Manganas     : Further ROCIS development; embedding schemes
   Dimitrios Pantazis     : SARC Basis sets
   Anastasios Papadopoulos: AUTO-CI, single reference methods and gradients
   Taras Petrenko         : DFT Hessian,TD-DFT gradient, ASA, ECA, R-Raman, ABS, FL, XAS/XES, NRVS
   Peter Pinski           : DLPNO-MP2, DLPNO-MP2 Gradient
   Christoph Reimann      : Effective Core Potentials
   Marius Retegan         : Local ZFS, SOC
   Christoph Riplinger    : Optimizer, TS searches, QM/MM, DLPNO-CCSD(T), (RO)-DLPNO pert. Triples
   Tobias Risthaus        : Range-separated hybrids, TD-DFT gradient, RPA, STAB
   Michael Roemelt        : Original ROCIS implementation
   Masaaki Saitow         : Open-shell DLPNO-CCSD energy and density
   Barbara Sandhoefer     : DKH picture change effects
   Avijit Sen             : IP-ROCIS
   Kantharuban Sivalingam : CASSCF convergence, NEVPT2, FIC-MRCI
   Bernardo de Souza      : ESD, SOC TD-DFT
   Georgi Stoychev        : AutoAux, RI-MP2 NMR
   Willem Van den Heuvel  : Paramagnetic NMR
   Boris Wezisla          : Elementary symmetry handling
   Frank Wennmohs         : Technical directorship


 We gratefully acknowledge several colleagues who have allowed us to
 interface, adapt or use parts of their codes:
   Stefan Grimme, W. Hujo, H. Kruse, P. Pracht,  : VdW corrections, initial TS optimization,
                  C. Bannwarth, S. Ehlert          DFT functionals, gCP, sTDA/sTD-DF
   Ed Valeev, F. Pavosevic, A. Kumar             : LibInt (2-el integral package), F12 methods
   Garnet Chan, S. Sharma, J. Yang, R. Olivares  : DMRG
   Ulf Ekstrom                                   : XCFun DFT Library
   Mihaly Kallay                                 : mrcc  (arbitrary order and MRCC methods)
   Jiri Pittner, Ondrej Demel                    : Mk-CCSD
   Frank Weinhold                                : gennbo (NPA and NBO analysis)
   Christopher J. Cramer and Donald G. Truhlar   : smd solvation model
   Lars Goerigk                                  : TD-DFT with DH, B97 family of functionals
   V. Asgeirsson, H. Jonsson                     : NEB implementation
   FAccTs GmbH                                   : IRC, NEB, NEB-TS, DLPNO-Multilevel, CI-OPT
                                                   MM, QMMM, 2- and 3-layer-ONIOM, Crystal-QMMM,
                                                   LR-CPCM, SF, NACMEs, symmetry and pop. for TD-DFT,
                                                   nearIR, NL-DFT gradient (VV10), updates on ESD,
                                                   ML-optimized integration grids
   S Lehtola, MJT Oliveira, MAL Marques          : LibXC Library
   Liviu Ungur et al                             : ANISO software


 Your calculation uses the libint2 library for the computation of 2-el integrals
 For citations please refer to: http://libint.valeyev.net

 Your ORCA version has been built with support for libXC version: 5.1.0
 For citations please refer to: https://tddft.org/programs/libxc/

 This ORCA versions uses:
   CBLAS   interface :  Fast vector & matrix operations
   LAPACKE interface :  Fast linear algebra routines
   SCALAPACK package :  Parallel linear algebra routines
   Shared memory     :  Shared parallel matrices
   BLAS/LAPACK       :  OpenBLAS 0.3.15  USE64BITINT DYNAMIC_ARCH NO_AFFINITY Haswell SINGLE_THREADED
        Core in use  :  Haswell
   Copyright (c) 2011-2014, The OpenBLAS Project


Your calculation utilizes the atom-pairwise dispersion correction
with the Becke-Johnson damping scheme (D3BJ)
Cite in your paper:
S.Grimme, S.Ehrlich, L.Goerigk, J Comput Chem, (2011), 32, 1456–1465 
S.Grimme, J.Antony, S.Ehrlich and H.Krieg, J.Chem.Phys., 132, (2010), 154104 
   

================================================================================

----- Orbital basis set information -----
Your calculation utilizes the basis: def2-SVPD
   F. Weigend and R. Ahlrichs, Phys. Chem. Chem. Phys. 7, 3297 (2005).
   D. Rappoport and F. Furche, J. Chem. Phys. 133 134105 (2010).

----- AuxJ basis set information -----
Your calculation utilizes the auxiliary basis: def2/J
   F. Weigend, Phys. Chem. Chem. Phys. 8, 1057 (2006).

================================================================================
                                        WARNINGS
                       Please study these warnings very carefully!
================================================================================


INFO   : the flag for use of the SHARK integral package has been found!

================================================================================
                                       INPUT FILE
================================================================================
NAME = SVPD_PBE0_A_wt_dlpno_pos.com
|  1> !PBE0 D3BJ RIJCOSX def2-SVPD def2/J TightSCF 
|  2> *xyz 1 1 
|  3> C         -2.12050        0.88520        1.78951
|  4> C         -0.77894        0.17197        1.80496
|  5> H         -2.32419        1.47265        2.68608
|  6> H         -2.18770        1.54127        0.91948
|  7> N         -3.17690       -0.15948        1.61070
|  8> H         -4.06474        0.23127        1.28675
|  9> H         -3.34407       -0.67151        2.48493
| 10> H         -2.71686       -0.78189        0.93588
| 11> H         -0.65708       -0.37837        0.89547
| 12> H         -0.74207       -0.50050        2.63642
| 13> H          0.00707        0.89251        1.89389
| 14> *
| 15> %MaxCore 64000
| 16> 
| 17> %pal nprocs 4 
| 18> end  
| 19> 
| 20> %scf
| 21>   MaxIter 150
| 22> end
| 23> 
| 24> 
| 25>                          ****END OF INPUT****
================================================================================

                       ****************************
                       * Single Point Calculation *
                       ****************************

---------------------------------
CARTESIAN COORDINATES (ANGSTROEM)
---------------------------------
  C     -2.120500    0.885200    1.789510
  C     -0.778940    0.171970    1.804960
  H     -2.324190    1.472650    2.686080
  H     -2.187700    1.541270    0.919480
  N     -3.176900   -0.159480    1.610700
  H     -4.064740    0.231270    1.286750
  H     -3.344070   -0.671510    2.484930
  H     -2.716860   -0.781890    0.935880
  H     -0.657080   -0.378370    0.895470
  H     -0.742070   -0.500500    2.636420
  H      0.007070    0.892510    1.893890

----------------------------
CARTESIAN COORDINATES (A.U.)
----------------------------
  NO LB      ZA    FRAG     MASS         X           Y           Z
   0 C     6.0000    0    12.011   -4.007164    1.672786    3.381684
   1 C     6.0000    0    12.011   -1.471983    0.324976    3.410880
   2 H     1.0000    0     1.008   -4.392083    2.782905    5.075956
   3 H     1.0000    0     1.008   -4.134154    2.912578    1.737565
   4 N     7.0000    0    14.007   -6.003471   -0.301374    3.043782
   5 H     1.0000    0     1.008   -7.681245    0.437037    2.431605
   6 H     1.0000    0     1.008   -6.319376   -1.268970    4.695837
   7 H     1.0000    0     1.008   -5.134121   -1.477558    1.768557
   8 H     1.0000    0     1.008   -1.241701   -0.715016    1.692193
   9 H     1.0000    0     1.008   -1.402309   -0.945808    4.982112
  10 H     1.0000    0     1.008    0.013360    1.686599    3.578933

--------------------------------
INTERNAL COORDINATES (ANGSTROEM)
--------------------------------
 C      0   0   0     0.000000000000     0.00000000     0.00000000
 C      1   0   0     1.519446928655     0.00000000     0.00000000
 H      1   2   0     1.091065939116   114.15529761     0.00000000
 H      1   2   3     1.091739843461   110.15322550   122.54443755
 N      1   2   3     1.496432517189   107.26657455   237.84423019
 H      5   1   2     1.022687161648   112.58021957   198.71585537
 H      5   1   2     1.026839141589   111.18056980    76.60859775
 H      5   1   2     1.026846162821   100.68486536   320.92026735
 H      2   1   3     1.069998147335   109.47177185   179.99955993
 H      2   1   3     1.070000481028   109.47117718    59.99979551
 H      2   1   3     1.069999138598   109.47148846   300.00054162

---------------------------
INTERNAL COORDINATES (A.U.)
---------------------------
 C      0   0   0     0.000000000000     0.00000000     0.00000000
 C      1   0   0     2.871338570186     0.00000000     0.00000000
 H      1   2   0     2.061815818980   114.15529761     0.00000000
 H      1   2   3     2.063089313631   110.15322550   122.54443755
 N      1   2   3     2.827847635381   107.26657455   237.84423019
 H      5   1   2     1.932598656192   112.58021957   198.71585537
 H      5   1   2     1.940444761195   111.18056980    76.60859775
 H      5   1   2     1.940458029399   100.68486536   320.92026735
 H      2   1   3     2.022003462266   109.47177185   179.99955993
 H      2   1   3     2.022007872307   109.47117718    59.99979551
 H      2   1   3     2.022005335481   109.47148846   300.00054162

---------------------
BASIS SET INFORMATION
---------------------
There are 3 groups of distinct atoms

 Group   1 Type C   : 8s4p2d contracted to 4s2p2d pattern {5111/31/11}
 Group   2 Type H   : 4s2p contracted to 2s2p pattern {31/11}
 Group   3 Type N   : 8s4p2d contracted to 4s2p2d pattern {5111/31/11}

Atom   0C    basis set group =>   1
Atom   1C    basis set group =>   1
Atom   2H    basis set group =>   2
Atom   3H    basis set group =>   2
Atom   4N    basis set group =>   3
Atom   5H    basis set group =>   2
Atom   6H    basis set group =>   2
Atom   7H    basis set group =>   2
Atom   8H    basis set group =>   2
Atom   9H    basis set group =>   2
Atom  10H    basis set group =>   2
---------------------------------
AUXILIARY/J BASIS SET INFORMATION
---------------------------------
There are 3 groups of distinct atoms

 Group   1 Type C   : 12s5p4d2f1g contracted to 6s4p3d1f1g pattern {711111/2111/211/2/1}
 Group   2 Type H   : 5s2p1d contracted to 3s1p1d pattern {311/2/1}
 Group   3 Type N   : 12s5p4d2f1g contracted to 6s4p3d1f1g pattern {711111/2111/211/2/1}

Atom   0C    basis set group =>   1
Atom   1C    basis set group =>   1
Atom   2H    basis set group =>   2
Atom   3H    basis set group =>   2
Atom   4N    basis set group =>   3
Atom   5H    basis set group =>   2
Atom   6H    basis set group =>   2
Atom   7H    basis set group =>   2
Atom   8H    basis set group =>   2
Atom   9H    basis set group =>   2
Atom  10H    basis set group =>   2


           ************************************************************
           *        Program running with 4 parallel MPI-processes     *
           *              working on a common directory               *
           ************************************************************
------------------------------------------------------------------------------
                           ORCA GTO INTEGRAL CALCULATION
                           -- RI-GTO INTEGRALS CHOSEN --
------------------------------------------------------------------------------
------------------------------------------------------------------------------
                   ___                                                        
                  /   \      - P O W E R E D   B Y -                         
                 /     \                                                     
                 |  |  |   _    _      __       _____    __    __             
                 |  |  |  | |  | |    /  \     |  _  \  |  |  /  |          
                  \  \/   | |  | |   /    \    | | | |  |  | /  /          
                 / \  \   | |__| |  /  /\  \   | |_| |  |  |/  /          
                |  |  |   |  __  | /  /__\  \  |    /   |      \           
                |  |  |   | |  | | |   __   |  |    \   |  |\   \          
                \     /   | |  | | |  |  |  |  | |\  \  |  | \   \       
                 \___/    |_|  |_| |__|  |__|  |_| \__\ |__|  \__/        
                                                                              
                      - O R C A' S   B I G   F R I E N D -                    
                                      &                                       
                       - I N T E G R A L  F E E D E R -                       
                                                                              
 v1 FN, 2020, v2 2021                                                         
------------------------------------------------------------------------------


Reading SHARK input file SVPD_PBE0_A_wt_dlpno_pos.SHARKINP.tmp ... ok
----------------------
SHARK INTEGRAL PACKAGE
----------------------

Number of atoms                             ...     11
Number of basis functions                   ...    124
Number of shells                            ...     56
Maximum angular momentum                    ...      2
Integral batch strategy                     ... SHARK/LIBINT Hybrid
RI-J (if used) integral strategy            ... SPLIT-RIJ (Revised 2003 algorithm where possible)
Printlevel                                  ...      1
Contraction scheme used                     ... SEGMENTED contraction
Coulomb Range Separation                    ... NOT USED
Exchange Range Separation                   ... NOT USED
Finite Nucleus Model                        ... NOT USED
Auxiliary Coulomb fitting basis             ... AVAILABLE
   # of basis functions in Aux-J            ...    235
   # of shells in Aux-J                     ...     85
   Maximum angular momentum in Aux-J        ...      4
Auxiliary J/K fitting basis                 ... NOT available
Auxiliary Correlation fitting basis         ... NOT available
Auxiliary 'external' fitting basis          ... NOT available
Integral threshold                          ...     2.500000e-11
Primitive cut-off                           ...     2.500000e-12
Primitive pair pre-selection threshold      ...     2.500000e-12

Calculating pre-screening integrals         ... done (  0.0 sec) Dimension = 56
Organizing shell pair data                  ... done (  0.0 sec)
Shell pair information
Total number of shell pairs                 ...      1596
Shell pairs after pre-screening             ...      1595
Total number of primitive shell pairs       ...      4158
Primitive shell pairs kept                  ...      3747
          la=0 lb=0:    405 shell pairs
          la=1 lb=0:    616 shell pairs
          la=1 lb=1:    253 shell pairs
          la=2 lb=0:    168 shell pairs
          la=2 lb=1:    132 shell pairs
          la=2 lb=2:     21 shell pairs

Calculating one electron integrals          ... done (  0.0 sec)
Calculating RI/J V-Matrix + Cholesky decomp.... done (  0.0 sec)
Calculating Nuclear repulsion               ... done (  0.0 sec) ENN=     91.121697929630 Eh

SHARK setup successfully completed in   0.1 seconds

Maximum memory used throughout the entire GTOINT-calculation: 8.8 MB


           ************************************************************
           *        Program running with 4 parallel MPI-processes     *
           *              working on a common directory               *
           ************************************************************
-------------------------------------------------------------------------------
                                 ORCA SCF
-------------------------------------------------------------------------------

------------
SCF SETTINGS
------------
Hamiltonian:
 Density Functional     Method          .... DFT(GTOs)
 Exchange Functional    Exchange        .... PBE
   PBE kappa parameter   XKappa         ....  0.804000
   PBE mue parameter    XMuePBE         ....  0.219520
 Correlation Functional Correlation     .... PBE
   PBE beta parameter  CBetaPBE         ....  0.066725
 LDA part of GGA corr.  LDAOpt          .... PW91-LDA
 Gradients option       PostSCFGGA      .... off
 Hybrid DFT is turned on
   Fraction HF Exchange ScalHFX         ....  0.250000
   Scaling of DF-GGA-X  ScalDFX         ....  0.750000
   Scaling of DF-GGA-C  ScalDFC         ....  1.000000
   Scaling of DF-LDA-C  ScalLDAC        ....  1.000000
   Perturbative correction              ....  0.000000
   Density functional embedding theory  .... OFF
   NL short-range parameter             ....  6.900000
 RI-approximation to the Coulomb term is turned on
   Number of AuxJ basis functions       .... 235
   RIJ-COSX (HFX calculated with COS-X)).... on


General Settings:
 Integral files         IntName         .... SVPD_PBE0_A_wt_dlpno_pos
 Hartree-Fock type      HFTyp           .... RHF
 Total Charge           Charge          ....    1
 Multiplicity           Mult            ....    1
 Number of Electrons    NEL             ....   26
 Basis Dimension        Dim             ....  124
 Nuclear Repulsion      ENuc            ....     91.1216979296 Eh

Convergence Acceleration:
 DIIS                   CNVDIIS         .... on
   Start iteration      DIISMaxIt       ....    12
   Startup error        DIISStart       ....  0.200000
   # of expansion vecs  DIISMaxEq       ....     5
   Bias factor          DIISBfac        ....   1.050
   Max. coefficient     DIISMaxC        ....  10.000
 Trust-Rad. Augm. Hess. CNVTRAH         .... auto
   Auto Start mean grad. ratio tolernc. ....  1.125000
   Auto Start start iteration           ....    20
   Auto Start num. interpolation iter.  ....    10
   Max. Number of Micro iterations      ....    16
   Max. Number of Macro iterations      .... Maxiter - #DIIS iter
   Number of Davidson start vectors     ....     2
   Converg. threshold I  (grad. norm)   ....   1.000e-05
   Converg. threshold II (energy diff.) ....   1.000e-08
   Grad. Scal. Fac. for Micro threshold ....   0.100
   Minimum threshold for Micro iter.    ....   0.010
   NR start threshold (gradient norm)   ....   0.001
   Initial trust radius                 ....   0.400
   Minimum AH scaling param. (alpha)    ....   1.000
   Maximum AH scaling param. (alpha)    .... 1000.000
   Orbital update algorithm             .... Taylor
   White noise on init. David. guess    .... on
   Maximum white noise                  ....   0.010
   Quad. conv. algorithm                .... NR
 SOSCF                  CNVSOSCF        .... on
   Start iteration      SOSCFMaxIt      ....   150
   Startup grad/error   SOSCFStart      ....  0.003300
 Level Shifting         CNVShift        .... on
   Level shift para.    LevelShift      ....    0.2500
   Turn off err/grad.   ShiftErr        ....    0.0010
 Zerner damping         CNVZerner       .... off
 Static damping         CNVDamp         .... on
   Fraction old density DampFac         ....    0.7000
   Max. Damping (<1)    DampMax         ....    0.9800
   Min. Damping (>=0)   DampMin         ....    0.0000
   Turn off err/grad.   DampErr         ....    0.1000
 Fernandez-Rico         CNVRico         .... off

SCF Procedure:
 Maximum # iterations   MaxIter         ....   150
 SCF integral mode      SCFMode         .... Direct
   Integral package                     .... SHARK and LIBINT hybrid scheme
 Reset frequency        DirectResetFreq ....    20
 Integral Threshold     Thresh          ....  2.500e-11 Eh
 Primitive CutOff       TCut            ....  2.500e-12 Eh

Convergence Tolerance:
 Convergence Check Mode ConvCheckMode   .... Total+1el-Energy
 Convergence forced     ConvForced      .... 0
 Energy Change          TolE            ....  1.000e-08 Eh
 1-El. energy change                    ....  1.000e-05 Eh
 Orbital Gradient       TolG            ....  1.000e-05
 Orbital Rotation angle TolX            ....  1.000e-05
 DIIS Error             TolErr          ....  5.000e-07


Diagonalization of the overlap matrix:
Smallest eigenvalue                        ... 1.300e-04
Time for diagonalization                   ...    0.005 sec
Threshold for overlap eigenvalues          ... 1.000e-08
Number of eigenvalues below threshold      ... 0
Time for construction of square roots      ...    0.004 sec
Total time needed                          ...    0.009 sec

Time for model grid setup =    0.048 sec

------------------------------
INITIAL GUESS: MODEL POTENTIAL
------------------------------
Loading Hartree-Fock densities                     ... done
Calculating cut-offs                               ... done
Initializing the effective Hamiltonian             ... done
Setting up the integral package (SHARK)            ... done
Starting the Coulomb interaction                   ... done (   0.0 sec)
Reading the grid                                   ... done
Mapping shells                                     ... done
Starting the XC term evaluation                    ... done (   0.0 sec)
  promolecular density results
     # of electrons  =     26.996910067
     EX              =    -19.176371828
     EC              =     -0.868500543
     EX+EC           =    -20.044872371
Transforming the Hamiltonian                       ... done (   0.0 sec)
Diagonalizing the Hamiltonian                      ... done (   0.0 sec)
Back transforming the eigenvectors                 ... done (   0.0 sec)
Now organizing SCF variables                       ... done
                      ------------------
                      INITIAL GUESS DONE (   0.1 sec)
                      ------------------
-------------------
DFT GRID GENERATION
-------------------

General Integration Accuracy     IntAcc      ... 4.388
Radial Grid Type                 RadialGrid  ... OptM3 with GC (2021)
Angular Grid (max. ang.)         AngularGrid ... 4 (Lebedev-302)
Angular grid pruning method      GridPruning ... 4 (adaptive)
Weight generation scheme         WeightScheme... Becke
Basis function cutoff            BFCut       ... 1.0000e-11
Integration weight cutoff        WCut        ... 1.0000e-14
Angular grids for H and He will be reduced by one unit
Partially contracted basis set               ... off
Rotationally invariant grid construction     ... off

Total number of grid points                  ...    45570
Total number of batches                      ...      717
Average number of points per batch           ...       63
Average number of grid points per atom       ...     4143
Time for grid setup =    0.259 sec

--------------------
COSX GRID GENERATION
--------------------

GRIDX 1
-------
General Integration Accuracy     IntAcc      ... 3.816
Radial Grid Type                 RadialGrid  ... OptM3 with GC (2021)
Angular Grid (max. ang.)         AngularGrid ... 1 (Lebedev-50)
Angular grid pruning method      GridPruning ... 4 (adaptive)
Weight generation scheme         WeightScheme... Becke
Basis function cutoff            BFCut       ... 1.0000e-11
Integration weight cutoff        WCut        ... 1.0000e-14
Angular grids for H and He will be reduced by one unit
Partially contracted basis set               ... on
Rotationally invariant grid construction     ... off

Total number of grid points                  ...     5686
Total number of batches                      ...       96
Average number of points per batch           ...       59
Average number of grid points per atom       ...      517
UseSFitting                                  ... on

GRIDX 2
-------
General Integration Accuracy     IntAcc      ... 4.020
Radial Grid Type                 RadialGrid  ... OptM3 with GC (2021)
Angular Grid (max. ang.)         AngularGrid ... 2 (Lebedev-110)
Angular grid pruning method      GridPruning ... 4 (adaptive)
Weight generation scheme         WeightScheme... Becke
Basis function cutoff            BFCut       ... 1.0000e-11
Integration weight cutoff        WCut        ... 1.0000e-14
Angular grids for H and He will be reduced by one unit
Partially contracted basis set               ... on
Rotationally invariant grid construction     ... off

Total number of grid points                  ...    12353
Total number of batches                      ...      198
Average number of points per batch           ...       62
Average number of grid points per atom       ...     1123
UseSFitting                                  ... on

GRIDX 3
-------
General Integration Accuracy     IntAcc      ... 4.338
Radial Grid Type                 RadialGrid  ... OptM3 with GC (2021)
Angular Grid (max. ang.)         AngularGrid ... 3 (Lebedev-194)
Angular grid pruning method      GridPruning ... 4 (adaptive)
Weight generation scheme         WeightScheme... Becke
Basis function cutoff            BFCut       ... 1.0000e-11
Integration weight cutoff        WCut        ... 1.0000e-14
Angular grids for H and He will be reduced by one unit
Partially contracted basis set               ... on
Rotationally invariant grid construction     ... off

Total number of grid points                  ...    28678
Total number of batches                      ...      454
Average number of points per batch           ...       63
Average number of grid points per atom       ...     2607
UseSFitting                                  ... on

Time for X-Grid setup             =    0.237 sec

--------------
SCF ITERATIONS
--------------
ITER       Energy         Delta-E        Max-DP      RMS-DP      [F,P]     Damp
               ***  Starting incremental Fock matrix formation  ***
  0   -135.1999274574   0.000000000000 0.09798044  0.00275577  0.1600151 0.7000
  1   -135.2329357303  -0.033008272896 0.05761708  0.00187905  0.0857677 0.7000
                               ***Turning on DIIS***
  2   -135.2479306818  -0.014994951433 0.10370647  0.00378788  0.0347055 0.0000
  3   -135.2699188626  -0.021988180859 0.03685790  0.00086689  0.0452058 0.0000
  4   -135.2749864522  -0.005067589531 0.00531414  0.00024583  0.0069819 0.0000
                      *** Initiating the SOSCF procedure ***
                           *** Shutting down DIIS ***
                      *** Re-Reading the Fockian *** 
                      *** Removing any level shift *** 
ITER      Energy       Delta-E        Grad      Rot      Max-DP    RMS-DP
  5   -135.27517196  -0.0001855053  0.000470  0.000470  0.002356  0.000067
               *** Restarting incremental Fock matrix formation ***
  6   -135.27522587  -0.0000539117  0.000251  0.000615  0.002253  0.000054
  7   -135.27522642  -0.0000005500  0.000198  0.000120  0.000748  0.000018
  8   -135.27522792  -0.0000015021  0.000025  0.000032  0.000111  0.000004
  9   -135.27522793  -0.0000000052  0.000021  0.000014  0.000055  0.000001
                  ***Gradient check signals convergence***
              ***Rediagonalizing the Fockian in SOSCF/NRSCF***

               *****************************************************
               *                     SUCCESS                       *
               *           SCF CONVERGED AFTER  10 CYCLES          *
               *****************************************************

Old exchange energy                            =     -4.891594497 Eh
New exchange energy                            =     -4.891616973 Eh
Exchange energy change after final integration =     -0.000022476 Eh
Total energy after final integration           =   -135.275250414 Eh
Final COS-X integration done in                =     1.050 sec

----------------
TOTAL SCF ENERGY
----------------

Total Energy       :         -135.27525041 Eh           -3681.02670 eV

Components:
Nuclear Repulsion  :           91.12169793 Eh            2479.54746 eV
Electronic Energy  :         -226.39694834 Eh           -6160.57416 eV
One Electron Energy:         -354.82158704 Eh           -9655.18624 eV
Two Electron Energy:          128.42463869 Eh            3494.61208 eV
Max COSX asymmetry :            0.00000320 Eh               0.00009 eV

Virial components:
Potential Energy   :         -269.11429812 Eh           -7322.97234 eV
Kinetic Energy     :          133.83904771 Eh            3641.94564 eV
Virial Ratio       :            2.01073082


DFT components:
N(Alpha)           :       13.000011292081 electrons
N(Beta)            :       13.000011292081 electrons
N(Total)           :       26.000022584162 electrons
E(X)               :      -14.590903561951 Eh       
E(C)               :       -0.846885013717 Eh       
E(XC)              :      -15.437788575667 Eh       
DFET-embed. en.    :        0.000000000000 Eh       

---------------
SCF CONVERGENCE
---------------

  Last Energy change         ...   -1.1561e-08  Tolerance :   1.0000e-08
  Last MAX-Density change    ...    1.3323e-15  Tolerance :   1.0000e-07
  Last RMS-Density change    ...    3.3505e-17  Tolerance :   5.0000e-09
  Last Orbital Gradient      ...    2.3029e-06  Tolerance :   1.0000e-05
  Last Orbital Rotation      ...    3.5828e-06  Tolerance :   1.0000e-05

             **** THE GBW FILE WAS UPDATED (SVPD_PBE0_A_wt_dlpno_pos.gbw) ****
             **** DENSITY SVPD_PBE0_A_wt_dlpno_pos.scfp WAS UPDATED ****
             **** ENERGY FILE WAS UPDATED (SVPD_PBE0_A_wt_dlpno_pos.en.tmp) ****
             **** THE GBW FILE WAS UPDATED (SVPD_PBE0_A_wt_dlpno_pos.gbw) ****
             **** DENSITY SVPD_PBE0_A_wt_dlpno_pos.scfp WAS UPDATED ****
----------------
ORBITAL ENERGIES
----------------

  NO   OCC          E(Eh)            E(eV) 
   0   2.0000     -14.730493      -400.8371 
   1   2.0000     -10.489915      -285.4451 
   2   2.0000     -10.414113      -283.3824 
   3   2.0000      -1.235464       -33.6187 
   4   2.0000      -0.985365       -26.8131 
   5   2.0000      -0.861471       -23.4418 
   6   2.0000      -0.821513       -22.3545 
   7   2.0000      -0.810442       -22.0532 
   8   2.0000      -0.707962       -19.2646 
   9   2.0000      -0.658819       -17.9274 
  10   2.0000      -0.599339       -16.3088 
  11   2.0000      -0.591334       -16.0910 
  12   2.0000      -0.569175       -15.4881 
  13   0.0000      -0.183399        -4.9905 
  14   0.0000      -0.124367        -3.3842 
  15   0.0000      -0.123533        -3.3615 
  16   0.0000      -0.113761        -3.0956 
  17   0.0000      -0.084137        -2.2895 
  18   0.0000      -0.080273        -2.1843 
  19   0.0000      -0.057997        -1.5782 
  20   0.0000      -0.044483        -1.2104 
  21   0.0000      -0.030918        -0.8413 
  22   0.0000      -0.023390        -0.6365 
  23   0.0000      -0.012601        -0.3429 
  24   0.0000      -0.004835        -0.1316 
  25   0.0000       0.015109         0.4111 
  26   0.0000       0.026104         0.7103 
  27   0.0000       0.028849         0.7850 
  28   0.0000       0.047268         1.2862 
  29   0.0000       0.076016         2.0685 
  30   0.0000       0.090399         2.4599 
  31   0.0000       0.123418         3.3584 
  32   0.0000       0.135311         3.6820 
  33   0.0000       0.141502         3.8505 
  34   0.0000       0.150014         4.0821 
  35   0.0000       0.163185         4.4405 
  36   0.0000       0.169402         4.6097 
  37   0.0000       0.179157         4.8751 
  38   0.0000       0.183752         5.0001 
  39   0.0000       0.202870         5.5204 
  40   0.0000       0.207641         5.6502 
  41   0.0000       0.222534         6.0555 
  42   0.0000       0.229896         6.2558 
  43   0.0000       0.240453         6.5431 
  44   0.0000       0.246671         6.7122 
  45   0.0000       0.254528         6.9261 
  46   0.0000       0.268471         7.3055 
  47   0.0000       0.284664         7.7461 
  48   0.0000       0.299350         8.1457 
  49   0.0000       0.305771         8.3205 
  50   0.0000       0.314944         8.5701 
  51   0.0000       0.322870         8.7857 
  52   0.0000       0.336257         9.1500 
  53   0.0000       0.339114         9.2278 
  54   0.0000       0.352119         9.5817 
  55   0.0000       0.359210         9.7746 
  56   0.0000       0.373962        10.1760 
  57   0.0000       0.385223        10.4825 
  58   0.0000       0.397720        10.8225 
  59   0.0000       0.411585        11.1998 
  60   0.0000       0.426041        11.5932 
  61   0.0000       0.434191        11.8149 
  62   0.0000       0.467379        12.7180 
  63   0.0000       0.510444        13.8899 
  64   0.0000       0.567322        15.4376 
  65   0.0000       0.684230        18.6188 
  66   0.0000       0.722386        19.6571 
  67   0.0000       0.726995        19.7825 
  68   0.0000       0.762530        20.7495 
  69   0.0000       0.779729        21.2175 
  70   0.0000       0.788951        21.4684 
  71   0.0000       0.830937        22.6110 
  72   0.0000       0.839001        22.8304 
  73   0.0000       0.862817        23.4784 
  74   0.0000       0.893152        24.3039 
  75   0.0000       0.904587        24.6151 
  76   0.0000       0.943775        25.6814 
  77   0.0000       0.966321        26.2949 
  78   0.0000       1.033100        28.1121 
  79   0.0000       1.093469        29.7548 
  80   0.0000       1.146209        31.1899 
  81   0.0000       1.160501        31.5788 
  82   0.0000       1.284457        34.9519 
  83   0.0000       1.343029        36.5457 
  84   0.0000       1.365462        37.1561 
  85   0.0000       1.395034        37.9608 
  86   0.0000       1.405630        38.2491 
  87   0.0000       1.446452        39.3600 
  88   0.0000       1.478923        40.2435 
  89   0.0000       1.515014        41.2256 
  90   0.0000       1.574527        42.8450 
  91   0.0000       1.620425        44.0940 
  92   0.0000       1.639117        44.6026 
  93   0.0000       1.671462        45.4828 
  94   0.0000       1.699310        46.2406 
  95   0.0000       1.748581        47.5813 
  96   0.0000       1.777316        48.3632 
  97   0.0000       1.795886        48.8685 
  98   0.0000       1.862545        50.6824 
  99   0.0000       1.871423        50.9240 
 100   0.0000       1.881204        51.1902 
 101   0.0000       1.913993        52.0824 
 102   0.0000       1.967651        53.5425 
 103   0.0000       2.003017        54.5049 
 104   0.0000       2.051587        55.8265 
 105   0.0000       2.083163        56.6857 
 106   0.0000       2.125017        57.8247 
 107   0.0000       2.186440        59.4961 
 108   0.0000       2.271093        61.7996 
 109   0.0000       2.303982        62.6945 
 110   0.0000       2.374872        64.6236 
 111   0.0000       2.425886        66.0117 
 112   0.0000       2.463875        67.0455 
 113   0.0000       2.498505        67.9878 
 114   0.0000       2.622969        71.3746 
 115   0.0000       2.680855        72.9498 
 116   0.0000       2.711020        73.7706 
 117   0.0000       2.853205        77.6396 
 118   0.0000       2.899892        78.9101 
 119   0.0000       2.966880        80.7329 
 120   0.0000       3.004007        81.7432 
 121   0.0000       3.084467        83.9326 
 122   0.0000       3.251305        88.4725 
 123   0.0000       3.283845        89.3580 

                    ********************************
                    * MULLIKEN POPULATION ANALYSIS *
                    ********************************

-----------------------
MULLIKEN ATOMIC CHARGES
-----------------------
   0 C :    0.138390
   1 C :    0.390373
   2 H :   -0.058578
   3 H :    0.018563
   4 N :   -0.777121
   5 H :    0.331806
   6 H :    0.375674
   7 H :    0.460816
   8 H :    0.037404
   9 H :    0.085765
  10 H :   -0.003092
Sum of atomic charges:    1.0000000

--------------------------------
MULLIKEN REDUCED ORBITAL CHARGES
--------------------------------
  0 C s       :     2.829540  s :     2.829540
      pz      :     0.996388  p :     2.727507
      px      :     0.868219
      py      :     0.862901
      dz2     :    -0.015383  d :     0.304563
      dxz     :     0.050508
      dyz     :     0.084579
      dx2y2   :     0.120971
      dxy     :     0.063889
  1 C s       :     2.658409  s :     2.658409
      pz      :     0.991149  p :     2.870839
      px      :     0.907023
      py      :     0.972667
      dz2     :    -0.012168  d :     0.080379
      dxz     :     0.017928
      dyz     :     0.017486
      dx2y2   :     0.012734
      dxy     :     0.044400
  2 H s       :     1.027415  s :     1.027415
      pz      :     0.015494  p :     0.031163
      px      :     0.004991
      py      :     0.010678
  3 H s       :     0.976469  s :     0.976469
      pz      :     0.010359  p :     0.004967
      px      :    -0.019930
      py      :     0.014538
  4 N s       :     4.044065  s :     4.044065
      pz      :     1.198873  p :     3.644864
      px      :     1.177899
      py      :     1.268091
      dz2     :    -0.003684  d :     0.088192
      dxz     :     0.006920
      dyz     :     0.032251
      dx2y2   :     0.043010
      dxy     :     0.009696
  5 H s       :     0.651768  s :     0.651768
      pz      :     0.000478  p :     0.016426
      px      :     0.030905
      py      :    -0.014958
  6 H s       :     0.604368  s :     0.604368
      pz      :     0.003456  p :     0.019959
      px      :     0.003855
      py      :     0.012648
  7 H s       :     0.525705  s :     0.525705
      pz      :     0.011050  p :     0.013479
      px      :    -0.019309
      py      :     0.021738
  8 H s       :     0.896145  s :     0.896145
      pz      :     0.050139  p :     0.066451
      px      :     0.019208
      py      :    -0.002896
  9 H s       :     0.878775  s :     0.878775
      pz      :     0.031029  p :     0.035460
      px      :     0.002806
      py      :     0.001625
 10 H s       :     0.949148  s :     0.949148
      pz      :    -0.003247  p :     0.053945
      px      :     0.011702
      py      :     0.045490


                     *******************************
                     * LOEWDIN POPULATION ANALYSIS *
                     *******************************

----------------------
LOEWDIN ATOMIC CHARGES
----------------------
   0 C :    0.057440
   1 C :    0.164771
   2 H :    0.055868
   3 H :    0.056696
   4 N :    0.329423
   5 H :    0.106957
   6 H :    0.110428
   7 H :    0.089541
   8 H :    0.002838
   9 H :    0.007155
  10 H :    0.018883

-------------------------------
LOEWDIN REDUCED ORBITAL CHARGES
-------------------------------
  0 C s       :     2.683245  s :     2.683245
      pz      :     0.956206  p :     2.612399
      px      :     0.817045
      py      :     0.839147
      dz2     :     0.071225  d :     0.646917
      dxz     :     0.105656
      dyz     :     0.142274
      dx2y2   :     0.155668
      dxy     :     0.172093
  1 C s       :     2.703287  s :     2.703287
      pz      :     0.946501  p :     2.767140
      px      :     0.886065
      py      :     0.934574
      dz2     :     0.049778  d :     0.364802
      dxz     :     0.062123
      dyz     :     0.087564
      dx2y2   :     0.056742
      dxy     :     0.108596
  2 H s       :     0.721743  s :     0.721743
      pz      :     0.106824  p :     0.222390
      px      :     0.048961
      py      :     0.066604
  3 H s       :     0.716208  s :     0.716208
      pz      :     0.105530  p :     0.227096
      px      :     0.050401
      py      :     0.071165
  4 N s       :     2.899675  s :     2.899675
      pz      :     1.125832  p :     3.383948
      px      :     1.117340
      py      :     1.140776
      dz2     :     0.038520  d :     0.386954
      dxz     :     0.056307
      dyz     :     0.099302
      dx2y2   :     0.112349
      dxy     :     0.080476
  5 H s       :     0.612958  s :     0.612958
      pz      :     0.072971  p :     0.280085
      px      :     0.130563
      py      :     0.076552
  6 H s       :     0.609164  s :     0.609164
      pz      :     0.126503  p :     0.280407
      px      :     0.066406
      py      :     0.087499
  7 H s       :     0.597651  s :     0.597651
      pz      :     0.104838  p :     0.312807
      px      :     0.106934
      py      :     0.101035
  8 H s       :     0.725470  s :     0.725470
      pz      :     0.117204  p :     0.271692
      px      :     0.068201
      py      :     0.086287
  9 H s       :     0.728843  s :     0.728843
      pz      :     0.107552  p :     0.264002
      px      :     0.063301
      py      :     0.093149
 10 H s       :     0.719203  s :     0.719203
      pz      :     0.071345  p :     0.261914
      px      :     0.093360
      py      :     0.097210


                      *****************************
                      * MAYER POPULATION ANALYSIS *
                      *****************************

  NA   - Mulliken gross atomic population
  ZA   - Total nuclear charge
  QA   - Mulliken gross atomic charge
  VA   - Mayer's total valence
  BVA  - Mayer's bonded valence
  FA   - Mayer's free valence

  ATOM       NA         ZA         QA         VA         BVA        FA
  0 C      5.8616     6.0000     0.1384     4.4273     4.4273    -0.0000
  1 C      5.6096     6.0000     0.3904     4.0060     4.0060    -0.0000
  2 H      1.0586     1.0000    -0.0586     1.0869     1.0869     0.0000
  3 H      0.9814     1.0000     0.0186     1.0141     1.0141    -0.0000
  4 N      7.7771     7.0000    -0.7771     3.2937     3.2937     0.0000
  5 H      0.6682     1.0000     0.3318     0.7699     0.7699     0.0000
  6 H      0.6243     1.0000     0.3757     0.7374     0.7374     0.0000
  7 H      0.5392     1.0000     0.4608     0.6183     0.6183     0.0000
  8 H      0.9626     1.0000     0.0374     1.0877     1.0877     0.0000
  9 H      0.9142     1.0000     0.0858     1.0209     1.0209    -0.0000
 10 H      1.0031     1.0000    -0.0031     1.1277     1.1277    -0.0000

  Mayer bond orders larger than 0.100000
B(  0-C ,  1-C ) :   1.2907 B(  0-C ,  2-H ) :   0.9867 B(  0-C ,  3-H ) :   0.9348 
B(  0-C ,  4-N ) :   0.7979 B(  0-C ,  8-H ) :   0.1137 B(  0-C ,  9-H ) :   0.1033 
B(  0-C , 10-H ) :   0.1527 B(  1-C ,  8-H ) :   0.8708 B(  1-C ,  9-H ) :   0.8451 
B(  1-C , 10-H ) :   0.8959 B(  4-N ,  5-H ) :   0.8114 B(  4-N ,  6-H ) :   0.7967 
B(  4-N ,  7-H ) :   0.6368 

-------
TIMINGS
-------

Total SCF time: 0 days 0 hours 0 min 8 sec 

Total time                  ....       8.600 sec
Sum of individual times     ....       7.259 sec  ( 84.4%)

Fock matrix formation       ....       6.585 sec  ( 76.6%)
  Split-RI-J                ....       0.534 sec  (  8.1% of F)
  Chain of spheres X        ....       4.373 sec  ( 66.4% of F)
  XC integration            ....       1.656 sec  ( 25.2% of F)
    Basis function eval.    ....       0.572 sec  ( 34.5% of XC)
    Density eval.           ....       0.340 sec  ( 20.5% of XC)
    XC-Functional eval.     ....       0.127 sec  (  7.7% of XC)
    XC-Potential eval.      ....       0.492 sec  ( 29.7% of XC)
Diagonalization             ....       0.026 sec  (  0.3%)
Density matrix formation    ....       0.003 sec  (  0.0%)
Population analysis         ....       0.006 sec  (  0.1%)
Initial guess               ....       0.064 sec  (  0.7%)
Orbital Transformation      ....       0.000 sec  (  0.0%)
Orbital Orthonormalization  ....       0.000 sec  (  0.0%)
DIIS solution               ....       0.017 sec  (  0.2%)
SOSCF solution              ....       0.015 sec  (  0.2%)
Grid generation             ....       0.543 sec  (  6.3%)

Maximum memory used throughout the entire SCF-calculation: 48.1 MB


-------------------------------------------------------------------------------
                          DFT DISPERSION CORRECTION                            
                                                                               
                              DFTD3 V3.1  Rev 1                                
                          USING Becke-Johnson damping                          
-------------------------------------------------------------------------------
The PBE0 functional is recognized
Active option DFTDOPT                   ...         4   

molecular C6(AA) [au] = 702.189292 


            DFT-D V3
 parameters
 s6 scaling factor         :     1.0000 
 a1 scaling factor         :     0.4145 
 s8 scaling factor         :     1.2177 
 a2 scaling factor         :     4.8593 
 ad hoc parameters k1-k3   :    16.0000     1.3333    -4.0000 

 Edisp/kcal,au: -3.183705053023  -0.005073556408 
 E6   /kcal   :  -2.133903108 
 E8   /kcal   :  -1.049801945 
 % E8         :  32.974221138 

-------------------------   ----------------
Dispersion correction           -0.005073556
-------------------------   ----------------


-------------------------   --------------------
FINAL SINGLE POINT ENERGY      -135.280323970562
-------------------------   --------------------


                            ***************************************
                            *     ORCA property calculations      *
                            ***************************************

                                    ---------------------
                                    Active property flags
                                    ---------------------
   (+) Dipole Moment


------------------------------------------------------------------------------
                       ORCA ELECTRIC PROPERTIES CALCULATION
------------------------------------------------------------------------------

Dipole Moment Calculation                       ... on
Quadrupole Moment Calculation                   ... off
Polarizability Calculation                      ... off
GBWName                                         ... SVPD_PBE0_A_wt_dlpno_pos.gbw
Electron density file                           ... SVPD_PBE0_A_wt_dlpno_pos.scfp
The origin for moment calculation is the CENTER OF MASS  = (-3.914578,  0.503609  3.262756)

-------------
DIPOLE MOMENT
-------------
                                X             Y             Z
Electronic contribution:     -1.82404      -0.15757      -0.05868
Nuclear contribution   :      0.50278      -0.30871      -0.06979
                        -----------------------------------------
Total Dipole Moment    :     -1.32126      -0.46628      -0.12847
                        -----------------------------------------
Magnitude (a.u.)       :      1.40700
Magnitude (Debye)      :      3.57631



--------------------
Rotational spectrum 
--------------------
 
Rotational constants in cm-1:     0.963746     0.295157     0.256910 
Rotational constants in MHz : 28892.375247  8848.576767  7701.963879 

 Dipole components along the rotational axes: 
x,y,z [a.u.] :     1.380987     0.269268    -0.003834 
x,y,z [Debye]:     3.510191     0.684425    -0.009745 

 

Timings for individual modules:

Sum of individual times         ...       12.810 sec (=   0.214 min)
GTO integral calculation        ...        2.286 sec (=   0.038 min)  17.8 %
SCF iterations                  ...       10.524 sec (=   0.175 min)  82.2 %
                             ****ORCA TERMINATED NORMALLY****
TOTAL RUN TIME: 0 days 0 hours 0 minutes 13 seconds 304 msec
