
                                        *****************
                                        * O   R   C   A *
                                        *****************

                                            #,                                       
                                            ###                                      
                                            ####                                     
                                            #####                                    
                                            ######                                   
                                           ########,                                 
                                     ,,################,,,,,                         
                               ,,#################################,,                 
                          ,,##########################################,,             
                       ,#########################################, ''#####,          
                    ,#############################################,,   '####,        
                  ,##################################################,,,,####,       
                ,###########''''           ''''###############################       
              ,#####''   ,,,,##########,,,,          '''####'''          '####       
            ,##' ,,,,###########################,,,                        '##       
           ' ,,###''''                  '''############,,,                           
         ,,##''                                '''############,,,,        ,,,,,,###''
      ,#''                                            '''#######################'''  
     '                                                          ''''####''''         
             ,#######,   #######,   ,#######,      ##                                
            ,#'     '#,  ##    ##  ,#'     '#,    #''#        ######   ,####,        
            ##       ##  ##   ,#'  ##            #'  '#       #        #'  '#        
            ##       ##  #######   ##           ,######,      #####,   #    #        
            '#,     ,#'  ##    ##  '#,     ,#' ,#      #,         ##   #,  ,#        
             '#######'   ##     ##  '#######'  #'      '#     #####' # '####'        



                  #######################################################
                  #                        -***-                        #
                  #          Department of theory and spectroscopy      #
                  #    Directorship and core code : Frank Neese         #
                  #        Max Planck Institute fuer Kohlenforschung    #
                  #                Kaiser Wilhelm Platz 1               #
                  #                 D-45470 Muelheim/Ruhr               #
                  #                      Germany                        #
                  #                                                     #
                  #                  All rights reserved                #
                  #                        -***-                        #
                  #######################################################


                         Program Version 5.0.0 -  RELEASE  -
                                (SVN: $Rev: 19529$)
                ($Date: 2021-06-28 11:36:33 +0200 (Mo, 28 Jun 2021) $)


 With contributions from (in alphabetic order):
   Daniel Aravena         : Magnetic Suceptibility
   Michael Atanasov       : Ab Initio Ligand Field Theory (pilot matlab implementation)
   Alexander A. Auer      : GIAO ZORA, VPT2 properties, NMR spectrum
   Ute Becker             : Parallelization
   Giovanni Bistoni       : ED, misc. LED, open-shell LED, HFLD
   Martin Brehm           : Molecular dynamics
   Dmytro Bykov           : SCF Hessian
   Vijay G. Chilkuri      : MRCI spin determinant printing, contributions to CSF-ICE
   Dipayan Datta          : RHF DLPNO-CCSD density
   Achintya Kumar Dutta   : EOM-CC, STEOM-CC
   Dmitry Ganyushin       : Spin-Orbit,Spin-Spin,Magnetic field MRCI
   Miquel Garcia          : C-PCM Hessian, Gaussian charge scheme
   Yang Guo               : DLPNO-NEVPT2, F12-NEVPT2, CIM, IAO-localization
   Andreas Hansen         : Spin unrestricted coupled pair/coupled cluster methods
   Benjamin Helmich-Paris : MC-RPA, TRAH-SCF, COSX integrals
   Lee Huntington         : MR-EOM, pCC
   Robert Izsak           : Overlap fitted RIJCOSX, COSX-SCS-MP3, EOM
   Marcus Kettner         : VPT2
   Christian Kollmar      : KDIIS, OOCD, Brueckner-CCSD(T), CCSD density, CASPT2, CASPT2-K
   Simone Kossmann        : Meta GGA functionals, TD-DFT gradient, OOMP2, MP2 Hessian
   Martin Krupicka        : Initial AUTO-CI
   Lucas Lang             : DCDCAS
   Marvin Lechner         : AUTO-CI (C++ implementation), FIC-MRCC
   Dagmar Lenk            : GEPOL surface, SMD
   Dimitrios Liakos       : Extrapolation schemes; Compound Job, initial MDCI parallelization
   Dimitrios Manganas     : Further ROCIS development; embedding schemes
   Dimitrios Pantazis     : SARC Basis sets
   Anastasios Papadopoulos: AUTO-CI, single reference methods and gradients
   Taras Petrenko         : DFT Hessian,TD-DFT gradient, ASA, ECA, R-Raman, ABS, FL, XAS/XES, NRVS
   Peter Pinski           : DLPNO-MP2, DLPNO-MP2 Gradient
   Christoph Reimann      : Effective Core Potentials
   Marius Retegan         : Local ZFS, SOC
   Christoph Riplinger    : Optimizer, TS searches, QM/MM, DLPNO-CCSD(T), (RO)-DLPNO pert. Triples
   Tobias Risthaus        : Range-separated hybrids, TD-DFT gradient, RPA, STAB
   Michael Roemelt        : Original ROCIS implementation
   Masaaki Saitow         : Open-shell DLPNO-CCSD energy and density
   Barbara Sandhoefer     : DKH picture change effects
   Avijit Sen             : IP-ROCIS
   Kantharuban Sivalingam : CASSCF convergence, NEVPT2, FIC-MRCI
   Bernardo de Souza      : ESD, SOC TD-DFT
   Georgi Stoychev        : AutoAux, RI-MP2 NMR
   Willem Van den Heuvel  : Paramagnetic NMR
   Boris Wezisla          : Elementary symmetry handling
   Frank Wennmohs         : Technical directorship


 We gratefully acknowledge several colleagues who have allowed us to
 interface, adapt or use parts of their codes:
   Stefan Grimme, W. Hujo, H. Kruse, P. Pracht,  : VdW corrections, initial TS optimization,
                  C. Bannwarth, S. Ehlert          DFT functionals, gCP, sTDA/sTD-DF
   Ed Valeev, F. Pavosevic, A. Kumar             : LibInt (2-el integral package), F12 methods
   Garnet Chan, S. Sharma, J. Yang, R. Olivares  : DMRG
   Ulf Ekstrom                                   : XCFun DFT Library
   Mihaly Kallay                                 : mrcc  (arbitrary order and MRCC methods)
   Jiri Pittner, Ondrej Demel                    : Mk-CCSD
   Frank Weinhold                                : gennbo (NPA and NBO analysis)
   Christopher J. Cramer and Donald G. Truhlar   : smd solvation model
   Lars Goerigk                                  : TD-DFT with DH, B97 family of functionals
   V. Asgeirsson, H. Jonsson                     : NEB implementation
   FAccTs GmbH                                   : IRC, NEB, NEB-TS, DLPNO-Multilevel, CI-OPT
                                                   MM, QMMM, 2- and 3-layer-ONIOM, Crystal-QMMM,
                                                   LR-CPCM, SF, NACMEs, symmetry and pop. for TD-DFT,
                                                   nearIR, NL-DFT gradient (VV10), updates on ESD,
                                                   ML-optimized integration grids
   S Lehtola, MJT Oliveira, MAL Marques          : LibXC Library
   Liviu Ungur et al                             : ANISO software


 Your calculation uses the libint2 library for the computation of 2-el integrals
 For citations please refer to: http://libint.valeyev.net

 Your ORCA version has been built with support for libXC version: 5.1.0
 For citations please refer to: https://tddft.org/programs/libxc/

 This ORCA versions uses:
   CBLAS   interface :  Fast vector & matrix operations
   LAPACKE interface :  Fast linear algebra routines
   SCALAPACK package :  Parallel linear algebra routines
   Shared memory     :  Shared parallel matrices
   BLAS/LAPACK       :  OpenBLAS 0.3.15  USE64BITINT DYNAMIC_ARCH NO_AFFINITY Haswell SINGLE_THREADED
        Core in use  :  Haswell
   Copyright (c) 2011-2014, The OpenBLAS Project


Your calculation utilizes the atom-pairwise dispersion correction
with the Becke-Johnson damping scheme (D3BJ)
Cite in your paper:
S.Grimme, S.Ehrlich, L.Goerigk, J Comput Chem, (2011), 32, 1456–1465 
S.Grimme, J.Antony, S.Ehrlich and H.Krieg, J.Chem.Phys., 132, (2010), 154104 
   

================================================================================

----- Orbital basis set information -----
Your calculation utilizes the basis: def2-SVPD
   F. Weigend and R. Ahlrichs, Phys. Chem. Chem. Phys. 7, 3297 (2005).
   D. Rappoport and F. Furche, J. Chem. Phys. 133 134105 (2010).

----- AuxJ basis set information -----
Your calculation utilizes the auxiliary basis: def2/J
   F. Weigend, Phys. Chem. Chem. Phys. 8, 1057 (2006).

================================================================================
                                        WARNINGS
                       Please study these warnings very carefully!
================================================================================



WARNING: Found flag for RIJCOSX approximation but no HF exchange needed!
  ===> : RIJCOSX  will be disabled and Split-RI-J is turned on

INFO   : the flag for use of the SHARK integral package has been found!

================================================================================
                                       INPUT FILE
================================================================================
NAME = 18Feb_SVPD_BLYP_C1_wt_wb97_typm1_pos.com
|  1> !BLYP D3BJ RIJCOSX def2-SVPD def2/J TightSCF 
|  2> *xyz 0 1
|  3> C          3.34350        3.35457       -3.59200
|  4> C          4.25587        3.70385       -4.72605
|  5> C          3.73403        4.29378       -5.80077
|  6> N          5.51504        3.40725       -4.63718
|  7> H          6.14919        3.60120       -5.39905
|  8> H          5.81358        2.89950       -3.80879
|  9> H          2.74138        4.51311       -5.82470
| 10> H          4.28755        4.52126       -6.61434
| 11> H          2.34726        3.66659       -3.82664
| 12> H          3.67283        3.85124       -2.70331
| 13> H          3.35820        2.29620       -3.43538
| 14> *
| 15> %MaxCore 64000
| 16> 
| 17> %pal nprocs 4
| 18> end  
| 19> 
| 20> %scf
| 21>   MaxIter 150
| 22> end
| 23> 
| 24> 
| 25>                          ****END OF INPUT****
================================================================================

                       ****************************
                       * Single Point Calculation *
                       ****************************

---------------------------------
CARTESIAN COORDINATES (ANGSTROEM)
---------------------------------
  C      3.343500    3.354570   -3.592000
  C      4.255870    3.703850   -4.726050
  C      3.734030    4.293780   -5.800770
  N      5.515040    3.407250   -4.637180
  H      6.149190    3.601200   -5.399050
  H      5.813580    2.899500   -3.808790
  H      2.741380    4.513110   -5.824700
  H      4.287550    4.521260   -6.614340
  H      2.347260    3.666590   -3.826640
  H      3.672830    3.851240   -2.703310
  H      3.358200    2.296200   -3.435380

----------------------------
CARTESIAN COORDINATES (A.U.)
----------------------------
  NO LB      ZA    FRAG     MASS         X           Y           Z
   0 C     6.0000    0    12.011    6.318299    6.339219   -6.787896
   1 C     6.0000    0    12.011    8.042429    6.999262   -8.930940
   2 C     6.0000    0    12.011    7.056294    8.114068  -10.961867
   3 N     7.0000    0    14.007   10.421915    6.438769   -8.763000
   4 H     1.0000    0     1.008   11.620285    6.805282  -10.202726
   5 H     1.0000    0     1.008   10.986074    5.479261   -7.197570
   6 H     1.0000    0     1.008    5.180457    8.528542  -11.007088
   7 H     1.0000    0     1.008    8.102295    8.543943  -12.499291
   8 H     1.0000    0     1.008    4.435679    6.928851   -7.231302
   9 H     1.0000    0     1.008    6.940643    7.277789   -5.108516
  10 H     1.0000    0     1.008    6.346078    4.339189   -6.491927

--------------------------------
INTERNAL COORDINATES (ANGSTROEM)
--------------------------------
 C      0   0   0     0.000000000000     0.00000000     0.00000000
 C      1   0   0     1.496824952291     0.00000000     0.00000000
 C      2   1   0     1.332425408381   118.40448313     0.00000000
 N      2   1   3     1.296679808511   119.11756322   180.93967520
 H      4   2   1     1.010053821289   120.93448605   177.85655544
 H      4   2   1     1.016447827584   117.08626586     3.23412400
 H      3   2   1     1.016873795660   119.78818998     1.33777590
 H      3   2   1     1.009964200207   122.33170643   182.52570636
 H      1   2   3     1.070003059622   109.47101416   359.06065387
 H      1   2   3     1.070004324244   109.47127607   239.06029127
 H      1   2   3     1.069996715556   109.47139586   119.06020561

---------------------------
INTERNAL COORDINATES (A.U.)
---------------------------
 C      0   0   0     0.000000000000     0.00000000     0.00000000
 C      1   0   0     2.828589230249     0.00000000     0.00000000
 C      2   1   0     2.517919115719   118.40448313     0.00000000
 N      2   1   3     2.450369721471   119.11756322   180.93967520
 H      4   2   1     1.908725102756   120.93448605   177.85655544
 H      4   2   1     1.920808023553   117.08626586     3.23412400
 H      3   2   1     1.921612986558   119.78818998     1.33777590
 H      3   2   1     1.908555743456   122.33170643   182.52570636
 H      1   2   3     2.022012745143   109.47101416   359.06065387
 H      1   2   3     2.022015134932   109.47127607   239.06029127
 H      1   2   3     2.022000756596   109.47139586   119.06020561

---------------------
BASIS SET INFORMATION
---------------------
There are 3 groups of distinct atoms

 Group   1 Type C   : 8s4p2d contracted to 4s2p2d pattern {5111/31/11}
 Group   2 Type N   : 8s4p2d contracted to 4s2p2d pattern {5111/31/11}
 Group   3 Type H   : 4s2p contracted to 2s2p pattern {31/11}

Atom   0C    basis set group =>   1
Atom   1C    basis set group =>   1
Atom   2C    basis set group =>   1
Atom   3N    basis set group =>   2
Atom   4H    basis set group =>   3
Atom   5H    basis set group =>   3
Atom   6H    basis set group =>   3
Atom   7H    basis set group =>   3
Atom   8H    basis set group =>   3
Atom   9H    basis set group =>   3
Atom  10H    basis set group =>   3
---------------------------------
AUXILIARY/J BASIS SET INFORMATION
---------------------------------
There are 3 groups of distinct atoms

 Group   1 Type C   : 12s5p4d2f1g contracted to 6s4p3d1f1g pattern {711111/2111/211/2/1}
 Group   2 Type N   : 12s5p4d2f1g contracted to 6s4p3d1f1g pattern {711111/2111/211/2/1}
 Group   3 Type H   : 5s2p1d contracted to 3s1p1d pattern {311/2/1}

Atom   0C    basis set group =>   1
Atom   1C    basis set group =>   1
Atom   2C    basis set group =>   1
Atom   3N    basis set group =>   2
Atom   4H    basis set group =>   3
Atom   5H    basis set group =>   3
Atom   6H    basis set group =>   3
Atom   7H    basis set group =>   3
Atom   8H    basis set group =>   3
Atom   9H    basis set group =>   3
Atom  10H    basis set group =>   3


           ************************************************************
           *        Program running with 4 parallel MPI-processes     *
           *              working on a common directory               *
           ************************************************************
------------------------------------------------------------------------------
                           ORCA GTO INTEGRAL CALCULATION
                           -- RI-GTO INTEGRALS CHOSEN --
------------------------------------------------------------------------------
------------------------------------------------------------------------------
                   ___                                                        
                  /   \      - P O W E R E D   B Y -                         
                 /     \                                                     
                 |  |  |   _    _      __       _____    __    __             
                 |  |  |  | |  | |    /  \     |  _  \  |  |  /  |          
                  \  \/   | |  | |   /    \    | | | |  |  | /  /          
                 / \  \   | |__| |  /  /\  \   | |_| |  |  |/  /          
                |  |  |   |  __  | /  /__\  \  |    /   |      \           
                |  |  |   | |  | | |   __   |  |    \   |  |\   \          
                \     /   | |  | | |  |  |  |  | |\  \  |  | \   \       
                 \___/    |_|  |_| |__|  |__|  |_| \__\ |__|  \__/        
                                                                              
                      - O R C A' S   B I G   F R I E N D -                    
                                      &                                       
                       - I N T E G R A L  F E E D E R -                       
                                                                              
 v1 FN, 2020, v2 2021                                                         
------------------------------------------------------------------------------


Reading SHARK input file 18Feb_SVPD_BLYP_C1_wt_wb97_typm1_pos.SHARKINP.tmp ... ok
----------------------
SHARK INTEGRAL PACKAGE
----------------------

Number of atoms                             ...     11
Number of basis functions                   ...    136
Number of shells                            ...     60
Maximum angular momentum                    ...      2
Integral batch strategy                     ... SHARK/LIBINT Hybrid
RI-J (if used) integral strategy            ... SPLIT-RIJ (Revised 2003 algorithm where possible)
Printlevel                                  ...      1
Contraction scheme used                     ... SEGMENTED contraction
Coulomb Range Separation                    ... NOT USED
Exchange Range Separation                   ... NOT USED
Finite Nucleus Model                        ... NOT USED
Auxiliary Coulomb fitting basis             ... AVAILABLE
   # of basis functions in Aux-J            ...    273
   # of shells in Aux-J                     ...     95
   Maximum angular momentum in Aux-J        ...      4
Auxiliary J/K fitting basis                 ... NOT available
Auxiliary Correlation fitting basis         ... NOT available
Auxiliary 'external' fitting basis          ... NOT available
Integral threshold                          ...     2.500000e-11
Primitive cut-off                           ...     2.500000e-12
Primitive pair pre-selection threshold      ...     2.500000e-12

Calculating pre-screening integrals         ... done (  0.0 sec) Dimension = 60
Organizing shell pair data                  ... done (  0.0 sec)
Shell pair information
Total number of shell pairs                 ...      1830
Shell pairs after pre-screening             ...      1827
Total number of primitive shell pairs       ...      4924
Primitive shell pairs kept                  ...      4320
          la=0 lb=0:    462 shell pairs
          la=1 lb=0:    660 shell pairs
          la=1 lb=1:    253 shell pairs
          la=2 lb=0:    240 shell pairs
          la=2 lb=1:    176 shell pairs
          la=2 lb=2:     36 shell pairs

Calculating one electron integrals          ... done (  0.0 sec)
Calculating RI/J V-Matrix + Cholesky decomp.... done (  0.0 sec)
Calculating Nuclear repulsion               ... done (  0.0 sec) ENN=    124.629517299598 Eh

SHARK setup successfully completed in   0.2 seconds

Maximum memory used throughout the entire GTOINT-calculation: 8.8 MB


           ************************************************************
           *        Program running with 4 parallel MPI-processes     *
           *              working on a common directory               *
           ************************************************************
-------------------------------------------------------------------------------
                                 ORCA SCF
-------------------------------------------------------------------------------

------------
SCF SETTINGS
------------
Hamiltonian:
 Density Functional     Method          .... DFT(GTOs)
 Exchange Functional    Exchange        .... B88
   X-Alpha parameter    XAlpha          ....  0.666667
   Becke's b parameter  XBeta           ....  0.004200
 Correlation Functional Correlation     .... LYP
 Gradients option       PostSCFGGA      .... off
   Density functional embedding theory  .... OFF
   NL short-range parameter             ....  4.000000
 RI-approximation to the Coulomb term is turned on
   Number of AuxJ basis functions       .... 273


General Settings:
 Integral files         IntName         .... 18Feb_SVPD_BLYP_C1_wt_wb97_typm1_pos
 Hartree-Fock type      HFTyp           .... RHF
 Total Charge           Charge          ....    0
 Multiplicity           Mult            ....    1
 Number of Electrons    NEL             ....   32
 Basis Dimension        Dim             ....  136
 Nuclear Repulsion      ENuc            ....    124.6295172996 Eh

Convergence Acceleration:
 DIIS                   CNVDIIS         .... on
   Start iteration      DIISMaxIt       ....    12
   Startup error        DIISStart       ....  0.200000
   # of expansion vecs  DIISMaxEq       ....     5
   Bias factor          DIISBfac        ....   1.050
   Max. coefficient     DIISMaxC        ....  10.000
 Trust-Rad. Augm. Hess. CNVTRAH         .... auto
   Auto Start mean grad. ratio tolernc. ....  1.125000
   Auto Start start iteration           ....    20
   Auto Start num. interpolation iter.  ....    10
   Max. Number of Micro iterations      ....    16
   Max. Number of Macro iterations      .... Maxiter - #DIIS iter
   Number of Davidson start vectors     ....     2
   Converg. threshold I  (grad. norm)   ....   1.000e-05
   Converg. threshold II (energy diff.) ....   1.000e-08
   Grad. Scal. Fac. for Micro threshold ....   0.100
   Minimum threshold for Micro iter.    ....   0.010
   NR start threshold (gradient norm)   ....   0.001
   Initial trust radius                 ....   0.400
   Minimum AH scaling param. (alpha)    ....   1.000
   Maximum AH scaling param. (alpha)    .... 1000.000
   Orbital update algorithm             .... Taylor
   White noise on init. David. guess    .... on
   Maximum white noise                  ....   0.010
   Quad. conv. algorithm                .... NR
 SOSCF                  CNVSOSCF        .... on
   Start iteration      SOSCFMaxIt      ....   150
   Startup grad/error   SOSCFStart      ....  0.003300
 Level Shifting         CNVShift        .... on
   Level shift para.    LevelShift      ....    0.2500
   Turn off err/grad.   ShiftErr        ....    0.0010
 Zerner damping         CNVZerner       .... off
 Static damping         CNVDamp         .... on
   Fraction old density DampFac         ....    0.7000
   Max. Damping (<1)    DampMax         ....    0.9800
   Min. Damping (>=0)   DampMin         ....    0.0000
   Turn off err/grad.   DampErr         ....    0.1000
 Fernandez-Rico         CNVRico         .... off

SCF Procedure:
 Maximum # iterations   MaxIter         ....   150
 SCF integral mode      SCFMode         .... Direct
   Integral package                     .... SHARK and LIBINT hybrid scheme
 Reset frequency        DirectResetFreq ....    20
 Integral Threshold     Thresh          ....  2.500e-11 Eh
 Primitive CutOff       TCut            ....  2.500e-12 Eh

Convergence Tolerance:
 Convergence Check Mode ConvCheckMode   .... Total+1el-Energy
 Convergence forced     ConvForced      .... 0
 Energy Change          TolE            ....  1.000e-08 Eh
 1-El. energy change                    ....  1.000e-05 Eh
 Orbital Gradient       TolG            ....  1.000e-05
 Orbital Rotation angle TolX            ....  1.000e-05
 DIIS Error             TolErr          ....  5.000e-07


Diagonalization of the overlap matrix:
Smallest eigenvalue                        ... 7.370e-05
Time for diagonalization                   ...    0.006 sec
Threshold for overlap eigenvalues          ... 1.000e-08
Number of eigenvalues below threshold      ... 0
Time for construction of square roots      ...    0.004 sec
Total time needed                          ...    0.011 sec

Time for model grid setup =    0.056 sec

------------------------------
INITIAL GUESS: MODEL POTENTIAL
------------------------------
Loading Hartree-Fock densities                     ... done
Calculating cut-offs                               ... done
Initializing the effective Hamiltonian             ... done
Setting up the integral package (SHARK)            ... done
Starting the Coulomb interaction                   ... done (   0.0 sec)
Reading the grid                                   ... done
Mapping shells                                     ... done
Starting the XC term evaluation                    ... done (   0.1 sec)
  promolecular density results
     # of electrons  =     31.996879232
     EX              =    -24.139405882
     EC              =     -1.036310057
     EX+EC           =    -25.175715939
Transforming the Hamiltonian                       ... done (   0.0 sec)
Diagonalizing the Hamiltonian                      ... done (   0.0 sec)
Back transforming the eigenvectors                 ... done (   0.0 sec)
Now organizing SCF variables                       ... done
                      ------------------
                      INITIAL GUESS DONE (   0.1 sec)
                      ------------------
-------------------
DFT GRID GENERATION
-------------------

General Integration Accuracy     IntAcc      ... 4.388
Radial Grid Type                 RadialGrid  ... OptM3 with GC (2021)
Angular Grid (max. ang.)         AngularGrid ... 4 (Lebedev-302)
Angular grid pruning method      GridPruning ... 4 (adaptive)
Weight generation scheme         WeightScheme... Becke
Basis function cutoff            BFCut       ... 1.0000e-11
Integration weight cutoff        WCut        ... 1.0000e-14
Angular grids for H and He will be reduced by one unit
Partially contracted basis set               ... off
Rotationally invariant grid construction     ... off

Total number of grid points                  ...    48328
Total number of batches                      ...      760
Average number of points per batch           ...       63
Average number of grid points per atom       ...     4393
Time for grid setup =    0.287 sec

--------------
SCF ITERATIONS
--------------
ITER       Energy         Delta-E        Max-DP      RMS-DP      [F,P]     Damp
               ***  Starting incremental Fock matrix formation  ***
  0   -172.8264737490   0.000000000000 0.19337352  0.00428203  0.2245050 0.7000
  1   -172.9344468529  -0.107973103857 0.10388567  0.00269083  0.0981805 0.7000
                               ***Turning on DIIS***
  2   -172.9711096284  -0.036662775500 0.18223184  0.00464752  0.0264397 0.0000
  3   -173.0195808931  -0.048471264785 0.04292635  0.00156233  0.0708646 0.0000
  4   -173.0393547605  -0.019773867317 0.02742851  0.00073935  0.0163133 0.0000
  5   -173.0409137922  -0.001559031778 0.00902650  0.00036406  0.0066964 0.0000
                      *** Initiating the SOSCF procedure ***
                           *** Shutting down DIIS ***
                      *** Re-Reading the Fockian *** 
                      *** Removing any level shift *** 
ITER      Energy       Delta-E        Grad      Rot      Max-DP    RMS-DP
  6   -173.04106662  -0.0001528323  0.000904  0.000904  0.005552  0.000193
               *** Restarting incremental Fock matrix formation ***
  7   -173.04108774  -0.0000211162  0.000282  0.001603  0.003431  0.000129
  8   -173.04108955  -0.0000018065  0.000175  0.000188  0.000925  0.000031
  9   -173.04109022  -0.0000006696  0.000062  0.000366  0.000737  0.000026
 10   -173.04109042  -0.0000001997  0.000036  0.000152  0.000228  0.000006
 11   -173.04109042  -0.0000000022  0.000034  0.000040  0.000070  0.000003
 12   -173.04109043  -0.0000000108  0.000013  0.000024  0.000099  0.000002
 13   -173.04109043  -0.0000000019  0.000010  0.000018  0.000047  0.000001
 14   -173.04109043  -0.0000000022  0.000004  0.000019  0.000065  0.000001
                  ***Gradient check signals convergence***
              ***Rediagonalizing the Fockian in SOSCF/NRSCF***

               *****************************************************
               *                     SUCCESS                       *
               *           SCF CONVERGED AFTER  15 CYCLES          *
               *****************************************************


----------------
TOTAL SCF ENERGY
----------------

Total Energy       :         -173.04109043 Eh           -4708.68746 eV

Components:
Nuclear Repulsion  :          124.62951730 Eh            3391.34158 eV
Electronic Energy  :         -297.67060773 Eh           -8100.02903 eV
One Electron Energy:         -478.61105893 Eh          -13023.66902 eV
Two Electron Energy:          180.94045120 Eh            4923.63999 eV

Virial components:
Potential Energy   :         -344.73152087 Eh           -9380.62158 eV
Kinetic Energy     :          171.69043043 Eh            4671.93413 eV
Virial Ratio       :            2.00786683


DFT components:
N(Alpha)           :       16.000000982980 electrons
N(Beta)            :       16.000000982980 electrons
N(Total)           :       32.000001965960 electrons
E(X)               :      -24.755267251420 Eh       
E(C)               :       -1.047506068582 Eh       
E(XC)              :      -25.802773320002 Eh       
DFET-embed. en.    :        0.000000000000 Eh       

---------------
SCF CONVERGENCE
---------------

  Last Energy change         ...   -5.7281e-10  Tolerance :   1.0000e-08
  Last MAX-Density change    ...    3.8268e-05  Tolerance :   1.0000e-07
  Last RMS-Density change    ...    9.9006e-07  Tolerance :   5.0000e-09
  Last Orbital Gradient      ...    1.8239e-06  Tolerance :   1.0000e-05
  Last Orbital Rotation      ...    5.5289e-06  Tolerance :   1.0000e-05

             **** THE GBW FILE WAS UPDATED (18Feb_SVPD_BLYP_C1_wt_wb97_typm1_pos.gbw) ****
             **** DENSITY 18Feb_SVPD_BLYP_C1_wt_wb97_typm1_pos.scfp WAS UPDATED ****
             **** ENERGY FILE WAS UPDATED (18Feb_SVPD_BLYP_C1_wt_wb97_typm1_pos.en.tmp) ****
             **** THE GBW FILE WAS UPDATED (18Feb_SVPD_BLYP_C1_wt_wb97_typm1_pos.gbw) ****
             **** DENSITY 18Feb_SVPD_BLYP_C1_wt_wb97_typm1_pos.scfp WAS UPDATED ****
----------------
ORBITAL ENERGIES
----------------

  NO   OCC          E(Eh)            E(eV) 
   0   2.0000     -14.029527      -381.7628 
   1   2.0000      -9.939730      -270.4738 
   2   2.0000      -9.912727      -269.7390 
   3   2.0000      -9.855388      -268.1787 
   4   2.0000      -0.842178       -22.9168 
   5   2.0000      -0.672188       -18.2912 
   6   2.0000      -0.607753       -16.5378 
   7   2.0000      -0.513656       -13.9773 
   8   2.0000      -0.477242       -12.9864 
   9   2.0000      -0.417675       -11.3655 
  10   2.0000      -0.381923       -10.3926 
  11   2.0000      -0.348683        -9.4881 
  12   2.0000      -0.342124        -9.3097 
  13   2.0000      -0.305036        -8.3005 
  14   2.0000      -0.291471        -7.9313 
  15   2.0000      -0.153684        -4.1820 
  16   0.0000      -0.003064        -0.0834 
  17   0.0000       0.021948         0.5972 
  18   0.0000       0.034450         0.9374 
  19   0.0000       0.044005         1.1974 
  20   0.0000       0.067359         1.8329 
  21   0.0000       0.079903         2.1743 
  22   0.0000       0.093853         2.5539 
  23   0.0000       0.099804         2.7158 
  24   0.0000       0.108716         2.9583 
  25   0.0000       0.138456         3.7676 
  26   0.0000       0.150950         4.1076 
  27   0.0000       0.160660         4.3718 
  28   0.0000       0.173010         4.7078 
  29   0.0000       0.180233         4.9044 
  30   0.0000       0.188671         5.1340 
  31   0.0000       0.197727         5.3804 
  32   0.0000       0.217613         5.9215 
  33   0.0000       0.220852         6.0097 
  34   0.0000       0.262608         7.1459 
  35   0.0000       0.274978         7.4825 
  36   0.0000       0.279066         7.5938 
  37   0.0000       0.287961         7.8358 
  38   0.0000       0.302039         8.2189 
  39   0.0000       0.307013         8.3542 
  40   0.0000       0.320157         8.7119 
  41   0.0000       0.336632         9.1602 
  42   0.0000       0.339636         9.2420 
  43   0.0000       0.347352         9.4519 
  44   0.0000       0.349765         9.5176 
  45   0.0000       0.364328         9.9139 
  46   0.0000       0.368234        10.0201 
  47   0.0000       0.376695        10.2504 
  48   0.0000       0.392838        10.6897 
  49   0.0000       0.398579        10.8459 
  50   0.0000       0.405199        11.0260 
  51   0.0000       0.420876        11.4526 
  52   0.0000       0.425035        11.5658 
  53   0.0000       0.446927        12.1615 
  54   0.0000       0.455894        12.4055 
  55   0.0000       0.467121        12.7110 
  56   0.0000       0.483410        13.1543 
  57   0.0000       0.496964        13.5231 
  58   0.0000       0.499364        13.5884 
  59   0.0000       0.515655        14.0317 
  60   0.0000       0.521430        14.1888 
  61   0.0000       0.528137        14.3713 
  62   0.0000       0.541098        14.7240 
  63   0.0000       0.563205        15.3256 
  64   0.0000       0.567362        15.4387 
  65   0.0000       0.613755        16.7011 
  66   0.0000       0.614682        16.7264 
  67   0.0000       0.626384        17.0448 
  68   0.0000       0.643505        17.5107 
  69   0.0000       0.661898        18.0112 
  70   0.0000       0.714209        19.4346 
  71   0.0000       0.737613        20.0715 
  72   0.0000       0.801602        21.8127 
  73   0.0000       0.826331        22.4856 
  74   0.0000       0.876483        23.8503 
  75   0.0000       0.879339        23.9280 
  76   0.0000       0.922929        25.1142 
  77   0.0000       0.939456        25.5639 
  78   0.0000       0.949670        25.8418 
  79   0.0000       0.951649        25.8957 
  80   0.0000       1.002734        27.2858 
  81   0.0000       1.047286        28.4981 
  82   0.0000       1.065044        28.9813 
  83   0.0000       1.070021        29.1167 
  84   0.0000       1.083654        29.4877 
  85   0.0000       1.107723        30.1427 
  86   0.0000       1.153557        31.3899 
  87   0.0000       1.165500        31.7149 
  88   0.0000       1.185241        32.2521 
  89   0.0000       1.216946        33.1148 
  90   0.0000       1.260140        34.2902 
  91   0.0000       1.379533        37.5390 
  92   0.0000       1.477673        40.2095 
  93   0.0000       1.494494        40.6673 
  94   0.0000       1.508940        41.0603 
  95   0.0000       1.531119        41.6639 
  96   0.0000       1.582008        43.0486 
  97   0.0000       1.622651        44.1546 
  98   0.0000       1.630033        44.3554 
  99   0.0000       1.690342        45.9965 
 100   0.0000       1.730721        47.0953 
 101   0.0000       1.745814        47.5060 
 102   0.0000       1.799284        48.9610 
 103   0.0000       1.832736        49.8713 
 104   0.0000       1.840365        50.0789 
 105   0.0000       1.897232        51.6263 
 106   0.0000       1.920744        52.2661 
 107   0.0000       1.932128        52.5759 
 108   0.0000       1.946792        52.9749 
 109   0.0000       1.970126        53.6098 
 110   0.0000       2.028637        55.2020 
 111   0.0000       2.067728        56.2657 
 112   0.0000       2.085660        56.7537 
 113   0.0000       2.145056        58.3699 
 114   0.0000       2.165902        58.9372 
 115   0.0000       2.230206        60.6870 
 116   0.0000       2.329942        63.4009 
 117   0.0000       2.339345        63.6568 
 118   0.0000       2.355910        64.1076 
 119   0.0000       2.368924        64.4617 
 120   0.0000       2.429071        66.0984 
 121   0.0000       2.511436        68.3397 
 122   0.0000       2.528997        68.8175 
 123   0.0000       2.607760        70.9607 
 124   0.0000       2.681892        72.9780 
 125   0.0000       2.706558        73.6492 
 126   0.0000       2.752557        74.9009 
 127   0.0000       2.877255        78.2941 
 128   0.0000       2.950095        80.2762 
 129   0.0000       3.012466        81.9734 
 130   0.0000       3.040908        82.7473 
 131   0.0000       3.148368        85.6715 
 132   0.0000       3.209304        87.3296 
 133   0.0000       3.254113        88.5489 
 134   0.0000       3.458649        94.1146 
 135   0.0000       3.619973        98.5045 

                    ********************************
                    * MULLIKEN POPULATION ANALYSIS *
                    ********************************

-----------------------
MULLIKEN ATOMIC CHARGES
-----------------------
   0 C :    1.278993
   1 C :   -0.641069
   2 C :    0.679218
   3 N :    0.616868
   4 H :   -0.287478
   5 H :   -0.221203
   6 H :   -0.260433
   7 H :   -0.670305
   8 H :   -0.120504
   9 H :   -0.186406
  10 H :   -0.187682
Sum of atomic charges:    0.0000000

--------------------------------
MULLIKEN REDUCED ORBITAL CHARGES
--------------------------------
  0 C s       :     2.030987  s :     2.030987
      pz      :     0.965664  p :     2.616073
      px      :     0.789675
      py      :     0.860735
      dz2     :     0.031374  d :     0.073946
      dxz     :    -0.000178
      dyz     :     0.032627
      dx2y2   :     0.000031
      dxy     :     0.010092
  1 C s       :     2.958201  s :     2.958201
      pz      :     0.828595  p :     2.731050
      px      :     1.003859
      py      :     0.898596
      dz2     :     0.327658  d :     0.951818
      dxz     :     0.150198
      dyz     :     0.147873
      dx2y2   :     0.211827
      dxy     :     0.114262
  2 C s       :     3.004692  s :     3.004692
      pz      :     0.770433  p :     2.302960
      px      :     0.544854
      py      :     0.987673
      dz2     :     0.028339  d :     0.013130
      dxz     :    -0.014815
      dyz     :     0.014486
      dx2y2   :    -0.013185
      dxy     :    -0.001695
  3 N s       :     2.880349  s :     2.880349
      pz      :     1.067742  p :     3.485671
      px      :     0.963008
      py      :     1.454920
      dz2     :    -0.008538  d :     0.017112
      dxz     :    -0.001977
      dyz     :    -0.006676
      dx2y2   :     0.013643
      dxy     :     0.020660
  4 H s       :     1.250417  s :     1.250417
      pz      :    -0.002137  p :     0.037061
      px      :    -0.007882
      py      :     0.047080
  5 H s       :     1.160466  s :     1.160466
      pz      :     0.009425  p :     0.060737
      px      :    -0.011887
      py      :     0.063200
  6 H s       :     1.261360  s :     1.261360
      pz      :    -0.044101  p :    -0.000928
      px      :     0.004455
      py      :     0.038719
  7 H s       :     1.615245  s :     1.615245
      pz      :     0.024548  p :     0.055060
      px      :    -0.021781
      py      :     0.052293
  8 H s       :     0.994961  s :     0.994961
      pz      :     0.067832  p :     0.125543
      px      :     0.042221
      py      :     0.015490
  9 H s       :     1.130903  s :     1.130903
      pz      :     0.051838  p :     0.055503
      px      :     0.009412
      py      :    -0.005747
 10 H s       :     1.130135  s :     1.130135
      pz      :    -0.012315  p :     0.057547
      px      :    -0.016675
      py      :     0.086537


                     *******************************
                     * LOEWDIN POPULATION ANALYSIS *
                     *******************************

----------------------
LOEWDIN ATOMIC CHARGES
----------------------
   0 C :    0.175629
   1 C :   -0.304741
   2 C :    0.185465
   3 N :    0.185679
   4 H :    0.006651
   5 H :    0.001956
   6 H :   -0.093639
   7 H :   -0.099331
   8 H :   -0.020339
   9 H :   -0.018926
  10 H :   -0.018404

-------------------------------
LOEWDIN REDUCED ORBITAL CHARGES
-------------------------------
  0 C s       :     2.703597  s :     2.703597
      pz      :     0.906315  p :     2.736486
      px      :     0.905377
      py      :     0.924794
      dz2     :     0.112019  d :     0.384288
      dxz     :     0.066995
      dyz     :     0.080188
      dx2y2   :     0.086396
      dxy     :     0.038691
  1 C s       :     2.664648  s :     2.664648
      pz      :     0.917825  p :     2.598548
      px      :     0.885122
      py      :     0.795602
      dz2     :     0.228537  d :     1.041545
      dxz     :     0.267912
      dyz     :     0.144395
      dx2y2   :     0.197256
      dxy     :     0.203444
  2 C s       :     2.735633  s :     2.735633
      pz      :     0.928831  p :     2.749882
      px      :     0.920728
      py      :     0.900323
      dz2     :     0.093669  d :     0.329020
      dxz     :     0.092850
      dyz     :     0.054693
      dx2y2   :     0.048624
      dxy     :     0.039185
  3 N s       :     2.923881  s :     2.923881
      pz      :     1.104672  p :     3.510950
      px      :     1.101928
      py      :     1.304350
      dz2     :     0.036702  d :     0.379489
      dxz     :     0.146364
      dyz     :     0.024679
      dx2y2   :     0.082329
      dxy     :     0.089415
  4 H s       :     0.661106  s :     0.661106
      pz      :     0.125662  p :     0.332243
      px      :     0.098253
      py      :     0.108327
  5 H s       :     0.659926  s :     0.659926
      pz      :     0.130217  p :     0.338118
      px      :     0.078884
      py      :     0.129017
  6 H s       :     0.766185  s :     0.766185
      pz      :     0.085406  p :     0.327454
      px      :     0.134553
      py      :     0.107495
  7 H s       :     0.780844  s :     0.780844
      pz      :     0.109195  p :     0.318487
      px      :     0.104112
      py      :     0.105180
  8 H s       :     0.730635  s :     0.730635
      pz      :     0.085716  p :     0.289705
      px      :     0.120365
      py      :     0.083624
  9 H s       :     0.742066  s :     0.742066
      pz      :     0.109625  p :     0.276859
      px      :     0.078996
      py      :     0.088238
 10 H s       :     0.741554  s :     0.741554
      pz      :     0.072716  p :     0.276850
      px      :     0.072433
      py      :     0.131701


                      *****************************
                      * MAYER POPULATION ANALYSIS *
                      *****************************

  NA   - Mulliken gross atomic population
  ZA   - Total nuclear charge
  QA   - Mulliken gross atomic charge
  VA   - Mayer's total valence
  BVA  - Mayer's bonded valence
  FA   - Mayer's free valence

  ATOM       NA         ZA         QA         VA         BVA        FA
  0 C      4.7210     6.0000     1.2790     3.1694     3.1694     0.0000
  1 C      6.6411     6.0000    -0.6411     5.2432     5.2432     0.0000
  2 C      5.3208     6.0000     0.6792     3.3760     3.3760    -0.0000
  3 N      6.3831     7.0000     0.6169     4.0589     4.0589    -0.0000
  4 H      1.2875     1.0000    -0.2875     0.9054     0.9054    -0.0000
  5 H      1.2212     1.0000    -0.2212     1.0008     1.0008     0.0000
  6 H      1.2604     1.0000    -0.2604     0.8518     0.8518    -0.0000
  7 H      1.6703     1.0000    -0.6703     0.7542     0.7542     0.0000
  8 H      1.1205     1.0000    -0.1205     1.1289     1.1289     0.0000
  9 H      1.1864     1.0000    -0.1864     1.1256     1.1256     0.0000
 10 H      1.1877     1.0000    -0.1877     1.1316     1.1316     0.0000

  Mayer bond orders larger than 0.100000
B(  0-C ,  1-C ) :   1.2183 B(  0-C ,  2-C ) :   0.1274 B(  0-C ,  3-N ) :   0.1067 
B(  0-C ,  8-H ) :   0.7108 B(  0-C ,  9-H ) :   0.5123 B(  0-C , 10-H ) :   0.5356 
B(  1-C ,  2-C ) :   1.4953 B(  1-C ,  3-N ) :   1.3586 B(  1-C ,  7-H ) :   0.1535 
B(  1-C ,  8-H ) :   0.3136 B(  1-C ,  9-H ) :   0.3661 B(  1-C , 10-H ) :   0.3466 
B(  2-C ,  3-N ) :   0.3003 B(  2-C ,  4-H ) :  -0.1086 B(  2-C ,  6-H ) :   0.8922 
B(  2-C ,  7-H ) :   0.6120 B(  3-N ,  4-H ) :   1.1733 B(  3-N ,  5-H ) :   1.0818 
B(  4-H ,  5-H ) :  -0.1213 

-------
TIMINGS
-------

Total SCF time: 0 days 0 hours 0 min 3 sec 

Total time                  ....       3.602 sec
Sum of individual times     ....       3.457 sec  ( 96.0%)

Fock matrix formation       ....       2.946 sec  ( 81.8%)
  Split-RI-J                ....       0.570 sec  ( 19.4% of F)
  XC integration            ....       2.344 sec  ( 79.6% of F)
    Basis function eval.    ....       0.836 sec  ( 35.7% of XC)
    Density eval.           ....       0.523 sec  ( 22.3% of XC)
    XC-Functional eval.     ....       0.138 sec  (  5.9% of XC)
    XC-Potential eval.      ....       0.726 sec  ( 31.0% of XC)
Diagonalization             ....       0.032 sec  (  0.9%)
Density matrix formation    ....       0.003 sec  (  0.1%)
Population analysis         ....       0.005 sec  (  0.1%)
Initial guess               ....       0.077 sec  (  2.1%)
Orbital Transformation      ....       0.000 sec  (  0.0%)
Orbital Orthonormalization  ....       0.000 sec  (  0.0%)
DIIS solution               ....       0.022 sec  (  0.6%)
SOSCF solution              ....       0.028 sec  (  0.8%)
Grid generation             ....       0.343 sec  (  9.5%)

Maximum memory used throughout the entire SCF-calculation: 15.3 MB


-------------------------------------------------------------------------------
                          DFT DISPERSION CORRECTION                            
                                                                               
                              DFTD3 V3.1  Rev 1                                
                          USING Becke-Johnson damping                          
-------------------------------------------------------------------------------
The BLYP functional is recognized
Active option DFTDOPT                   ...         4   

molecular C6(AA) [au] = 933.708181 


            DFT-D V3
 parameters
 s6 scaling factor         :     1.0000 
 a1 scaling factor         :     0.4298 
 s8 scaling factor         :     2.6996 
 a2 scaling factor         :     4.2359 
 ad hoc parameters k1-k3   :    16.0000     1.3333    -4.0000 

 Edisp/kcal,au: -9.356077330739  -0.014909856694 
 E6   /kcal   :  -3.866871582 
 E8   /kcal   :  -5.489205748 
 % E8         :  58.669948467 

-------------------------   ----------------
Dispersion correction           -0.014909857
-------------------------   ----------------


-------------------------   --------------------
FINAL SINGLE POINT ENERGY      -173.056000290855
-------------------------   --------------------


                            ***************************************
                            *     ORCA property calculations      *
                            ***************************************

                                    ---------------------
                                    Active property flags
                                    ---------------------
   (+) Dipole Moment


------------------------------------------------------------------------------
                       ORCA ELECTRIC PROPERTIES CALCULATION
------------------------------------------------------------------------------

Dipole Moment Calculation                       ... on
Quadrupole Moment Calculation                   ... off
Polarizability Calculation                      ... off
GBWName                                         ... 18Feb_SVPD_BLYP_C1_wt_wb97_typm1_pos.gbw
Electron density file                           ... 18Feb_SVPD_BLYP_C1_wt_wb97_typm1_pos.scfp
The origin for moment calculation is the CENTER OF MASS  = ( 8.008617,  6.938148 -8.817108)

-------------
DIPOLE MOMENT
-------------
                                X             Y             Z
Electronic contribution:      1.78596      -0.03753      -0.57227
Nuclear contribution   :     -1.20871      -0.33119       0.98382
                        -----------------------------------------
Total Dipole Moment    :      0.57725      -0.36873       0.41154
                        -----------------------------------------
Magnitude (a.u.)       :      0.79909
Magnitude (Debye)      :      2.03114



--------------------
Rotational spectrum 
--------------------
 
Rotational constants in cm-1:     0.348453     0.308655     0.168735 
Rotational constants in MHz : 10446.369928  9253.232733  5058.539653 

 Dipole components along the rotational axes: 
x,y,z [a.u.] :     0.084382     0.792622    -0.056411 
x,y,z [Debye]:     0.214481     2.014684    -0.143386 

 

Timings for individual modules:

Sum of individual times         ...        4.392 sec (=   0.073 min)
GTO integral calculation        ...        0.471 sec (=   0.008 min)  10.7 %
SCF iterations                  ...        3.921 sec (=   0.065 min)  89.3 %
                             ****ORCA TERMINATED NORMALLY****
TOTAL RUN TIME: 0 days 0 hours 0 minutes 4 seconds 883 msec
