
                                        *****************
                                        * O   R   C   A *
                                        *****************

                                            #,                                       
                                            ###                                      
                                            ####                                     
                                            #####                                    
                                            ######                                   
                                           ########,                                 
                                     ,,################,,,,,                         
                               ,,#################################,,                 
                          ,,##########################################,,             
                       ,#########################################, ''#####,          
                    ,#############################################,,   '####,        
                  ,##################################################,,,,####,       
                ,###########''''           ''''###############################       
              ,#####''   ,,,,##########,,,,          '''####'''          '####       
            ,##' ,,,,###########################,,,                        '##       
           ' ,,###''''                  '''############,,,                           
         ,,##''                                '''############,,,,        ,,,,,,###''
      ,#''                                            '''#######################'''  
     '                                                          ''''####''''         
             ,#######,   #######,   ,#######,      ##                                
            ,#'     '#,  ##    ##  ,#'     '#,    #''#        ######   ,####,        
            ##       ##  ##   ,#'  ##            #'  '#       #        #'  '#        
            ##       ##  #######   ##           ,######,      #####,   #    #        
            '#,     ,#'  ##    ##  '#,     ,#' ,#      #,         ##   #,  ,#        
             '#######'   ##     ##  '#######'  #'      '#     #####' # '####'        



                  #######################################################
                  #                        -***-                        #
                  #          Department of theory and spectroscopy      #
                  #    Directorship and core code : Frank Neese         #
                  #        Max Planck Institute fuer Kohlenforschung    #
                  #                Kaiser Wilhelm Platz 1               #
                  #                 D-45470 Muelheim/Ruhr               #
                  #                      Germany                        #
                  #                                                     #
                  #                  All rights reserved                #
                  #                        -***-                        #
                  #######################################################


                         Program Version 5.0.0 -  RELEASE  -
                                (SVN: $Rev: 19529$)
                ($Date: 2021-06-28 11:36:33 +0200 (Mo, 28 Jun 2021) $)


 With contributions from (in alphabetic order):
   Daniel Aravena         : Magnetic Suceptibility
   Michael Atanasov       : Ab Initio Ligand Field Theory (pilot matlab implementation)
   Alexander A. Auer      : GIAO ZORA, VPT2 properties, NMR spectrum
   Ute Becker             : Parallelization
   Giovanni Bistoni       : ED, misc. LED, open-shell LED, HFLD
   Martin Brehm           : Molecular dynamics
   Dmytro Bykov           : SCF Hessian
   Vijay G. Chilkuri      : MRCI spin determinant printing, contributions to CSF-ICE
   Dipayan Datta          : RHF DLPNO-CCSD density
   Achintya Kumar Dutta   : EOM-CC, STEOM-CC
   Dmitry Ganyushin       : Spin-Orbit,Spin-Spin,Magnetic field MRCI
   Miquel Garcia          : C-PCM Hessian, Gaussian charge scheme
   Yang Guo               : DLPNO-NEVPT2, F12-NEVPT2, CIM, IAO-localization
   Andreas Hansen         : Spin unrestricted coupled pair/coupled cluster methods
   Benjamin Helmich-Paris : MC-RPA, TRAH-SCF, COSX integrals
   Lee Huntington         : MR-EOM, pCC
   Robert Izsak           : Overlap fitted RIJCOSX, COSX-SCS-MP3, EOM
   Marcus Kettner         : VPT2
   Christian Kollmar      : KDIIS, OOCD, Brueckner-CCSD(T), CCSD density, CASPT2, CASPT2-K
   Simone Kossmann        : Meta GGA functionals, TD-DFT gradient, OOMP2, MP2 Hessian
   Martin Krupicka        : Initial AUTO-CI
   Lucas Lang             : DCDCAS
   Marvin Lechner         : AUTO-CI (C++ implementation), FIC-MRCC
   Dagmar Lenk            : GEPOL surface, SMD
   Dimitrios Liakos       : Extrapolation schemes; Compound Job, initial MDCI parallelization
   Dimitrios Manganas     : Further ROCIS development; embedding schemes
   Dimitrios Pantazis     : SARC Basis sets
   Anastasios Papadopoulos: AUTO-CI, single reference methods and gradients
   Taras Petrenko         : DFT Hessian,TD-DFT gradient, ASA, ECA, R-Raman, ABS, FL, XAS/XES, NRVS
   Peter Pinski           : DLPNO-MP2, DLPNO-MP2 Gradient
   Christoph Reimann      : Effective Core Potentials
   Marius Retegan         : Local ZFS, SOC
   Christoph Riplinger    : Optimizer, TS searches, QM/MM, DLPNO-CCSD(T), (RO)-DLPNO pert. Triples
   Tobias Risthaus        : Range-separated hybrids, TD-DFT gradient, RPA, STAB
   Michael Roemelt        : Original ROCIS implementation
   Masaaki Saitow         : Open-shell DLPNO-CCSD energy and density
   Barbara Sandhoefer     : DKH picture change effects
   Avijit Sen             : IP-ROCIS
   Kantharuban Sivalingam : CASSCF convergence, NEVPT2, FIC-MRCI
   Bernardo de Souza      : ESD, SOC TD-DFT
   Georgi Stoychev        : AutoAux, RI-MP2 NMR
   Willem Van den Heuvel  : Paramagnetic NMR
   Boris Wezisla          : Elementary symmetry handling
   Frank Wennmohs         : Technical directorship


 We gratefully acknowledge several colleagues who have allowed us to
 interface, adapt or use parts of their codes:
   Stefan Grimme, W. Hujo, H. Kruse, P. Pracht,  : VdW corrections, initial TS optimization,
                  C. Bannwarth, S. Ehlert          DFT functionals, gCP, sTDA/sTD-DF
   Ed Valeev, F. Pavosevic, A. Kumar             : LibInt (2-el integral package), F12 methods
   Garnet Chan, S. Sharma, J. Yang, R. Olivares  : DMRG
   Ulf Ekstrom                                   : XCFun DFT Library
   Mihaly Kallay                                 : mrcc  (arbitrary order and MRCC methods)
   Jiri Pittner, Ondrej Demel                    : Mk-CCSD
   Frank Weinhold                                : gennbo (NPA and NBO analysis)
   Christopher J. Cramer and Donald G. Truhlar   : smd solvation model
   Lars Goerigk                                  : TD-DFT with DH, B97 family of functionals
   V. Asgeirsson, H. Jonsson                     : NEB implementation
   FAccTs GmbH                                   : IRC, NEB, NEB-TS, DLPNO-Multilevel, CI-OPT
                                                   MM, QMMM, 2- and 3-layer-ONIOM, Crystal-QMMM,
                                                   LR-CPCM, SF, NACMEs, symmetry and pop. for TD-DFT,
                                                   nearIR, NL-DFT gradient (VV10), updates on ESD,
                                                   ML-optimized integration grids
   S Lehtola, MJT Oliveira, MAL Marques          : LibXC Library
   Liviu Ungur et al                             : ANISO software


 Your calculation uses the libint2 library for the computation of 2-el integrals
 For citations please refer to: http://libint.valeyev.net

 Your ORCA version has been built with support for libXC version: 5.1.0
 For citations please refer to: https://tddft.org/programs/libxc/

 This ORCA versions uses:
   CBLAS   interface :  Fast vector & matrix operations
   LAPACKE interface :  Fast linear algebra routines
   SCALAPACK package :  Parallel linear algebra routines
   Shared memory     :  Shared parallel matrices
   BLAS/LAPACK       :  OpenBLAS 0.3.15  USE64BITINT DYNAMIC_ARCH NO_AFFINITY Haswell SINGLE_THREADED
        Core in use  :  Haswell
   Copyright (c) 2011-2014, The OpenBLAS Project


Your calculation utilizes the atom-pairwise dispersion correction
with the Becke-Johnson damping scheme (D3BJ)
Cite in your paper:
S.Grimme, S.Ehrlich, L.Goerigk, J Comput Chem, (2011), 32, 1456–1465 
S.Grimme, J.Antony, S.Ehrlich and H.Krieg, J.Chem.Phys., 132, (2010), 154104 
   

================================================================================

----- Orbital basis set information -----
Your calculation utilizes the basis: def2-SVPD
   F. Weigend and R. Ahlrichs, Phys. Chem. Chem. Phys. 7, 3297 (2005).
   D. Rappoport and F. Furche, J. Chem. Phys. 133 134105 (2010).

----- AuxJ basis set information -----
Your calculation utilizes the auxiliary basis: def2/J
   F. Weigend, Phys. Chem. Chem. Phys. 8, 1057 (2006).

================================================================================
                                        WARNINGS
                       Please study these warnings very carefully!
================================================================================


INFO   : the flag for use of the SHARK integral package has been found!

================================================================================
                                       INPUT FILE
================================================================================
NAME = SVPD_B3LYP_A_wt_dlpno_neg.com
|  1> !B3LYP D3BJ RIJCOSX def2-SVPD def2/J TightSCF
|  2> *xyz -1 1
|  3> C          2.49556        1.81615       -2.13636
|  4> C          1.87218        0.42790       -2.07750
|  5> H          2.61427       -0.36583       -2.19889
|  6> H          1.38995        0.27309       -1.11236
|  7> S          0.57902        0.14047       -3.29794
|  8> O          0.22886       -1.24687       -3.12787
|  9> O         -0.43927        1.11897       -3.01455
| 10> O          1.24788        0.40347       -4.59565
| 11> H          2.96535        1.95613       -3.08747
| 12> H          3.22581        1.91242       -1.36024
| 13> H          1.73350        2.55528       -2.00274
| 14> *
| 15> 
| 16> %MaxCore 64000
| 17> 
| 18> %pal nprocs 4
| 19> end  
| 20> 
| 21> %scf
| 22>   MaxIter 150
| 23> end
| 24> 
| 25> 
| 26>                          ****END OF INPUT****
================================================================================

                       ****************************
                       * Single Point Calculation *
                       ****************************

---------------------------------
CARTESIAN COORDINATES (ANGSTROEM)
---------------------------------
  C      2.495560    1.816150   -2.136360
  C      1.872180    0.427900   -2.077500
  H      2.614270   -0.365830   -2.198890
  H      1.389950    0.273090   -1.112360
  S      0.579020    0.140470   -3.297940
  O      0.228860   -1.246870   -3.127870
  O     -0.439270    1.118970   -3.014550
  O      1.247880    0.403470   -4.595650
  H      2.965350    1.956130   -3.087470
  H      3.225810    1.912420   -1.360240
  H      1.733500    2.555280   -2.002740

----------------------------
CARTESIAN COORDINATES (A.U.)
----------------------------
  NO LB      ZA    FRAG     MASS         X           Y           Z
   0 C     6.0000    0    12.011    4.715925    3.432026   -4.037135
   1 C     6.0000    0    12.011    3.537907    0.808614   -3.925906
   2 H     1.0000    0     1.008    4.940254   -0.691319   -4.155300
   3 H     1.0000    0     1.008    2.626625    0.516065   -2.102056
   4 S    16.0000    0    32.060    1.094189    0.265450   -6.232203
   5 O     8.0000    0    15.999    0.432483   -2.356243   -5.910818
   6 O     8.0000    0    15.999   -0.830100    2.114547   -5.696674
   7 O     8.0000    0    15.999    2.358151    0.762448   -8.684520
   8 H     1.0000    0     1.008    5.603699    3.696550   -5.834473
   9 H     1.0000    0     1.008    6.095897    3.613950   -2.570481
  10 H     1.0000    0     1.008    3.275840    4.828779   -3.784630

--------------------------------
INTERNAL COORDINATES (ANGSTROEM)
--------------------------------
 C      0   0   0     0.000000000000     0.00000000     0.00000000
 C      1   0   0     1.522926520388     0.00000000     0.00000000
 H      2   1   0     1.093361977160   112.31154333     0.00000000
 H      2   1   3     1.089957397608   110.16934889   119.40652228
 S      2   1   3     1.801208645355   114.40296888   237.46816637
 O      5   2   1     1.440919187914   104.36734258   175.27794274
 O      5   2   1     1.440377265233   105.41688411   299.48593912
 O      5   2   1     1.483439902288   103.92992138    57.15078243
 H      1   2   3     1.070003400275   109.47078833    60.59400396
 H      1   2   3     1.069997770932   109.47165530   300.59389070
 H      1   2   3     1.070001357429   109.47127925   180.59358257

---------------------------
INTERNAL COORDINATES (A.U.)
---------------------------
 C      0   0   0     0.000000000000     0.00000000     0.00000000
 C      1   0   0     2.877914045618     0.00000000     0.00000000
 H      2   1   0     2.066154702076   112.31154333     0.00000000
 H      2   1   3     2.059720979120   110.16934889   119.40652228
 S      2   1   3     3.403791049771   114.40296888   237.46816637
 O      5   2   1     2.722942646270   104.36734258   175.27794274
 O      5   2   1     2.721918560817   105.41688411   299.48593912
 O      5   2   1     2.803295151455   103.92992138    57.15078243
 H      1   2   3     2.022013388884   109.47078833    60.59400396
 H      1   2   3     2.022002750968   109.47165530   300.59389070
 H      1   2   3     2.022009528465   109.47127925   180.59358257

---------------------
BASIS SET INFORMATION
---------------------
There are 4 groups of distinct atoms

 Group   1 Type C   : 8s4p2d contracted to 4s2p2d pattern {5111/31/11}
 Group   2 Type H   : 4s2p contracted to 2s2p pattern {31/11}
 Group   3 Type S   : 11s8p2d contracted to 5s4p2d pattern {53111/5111/11}
 Group   4 Type O   : 8s5p2d contracted to 4s3p2d pattern {5111/311/11}

Atom   0C    basis set group =>   1
Atom   1C    basis set group =>   1
Atom   2H    basis set group =>   2
Atom   3H    basis set group =>   2
Atom   4S    basis set group =>   3
Atom   5O    basis set group =>   4
Atom   6O    basis set group =>   4
Atom   7O    basis set group =>   4
Atom   8H    basis set group =>   2
Atom   9H    basis set group =>   2
Atom  10H    basis set group =>   2
---------------------------------
AUXILIARY/J BASIS SET INFORMATION
---------------------------------
There are 4 groups of distinct atoms

 Group   1 Type C   : 12s5p4d2f1g contracted to 6s4p3d1f1g pattern {711111/2111/211/2/1}
 Group   2 Type H   : 5s2p1d contracted to 3s1p1d pattern {311/2/1}
 Group   3 Type S   : 14s5p5d2f1g contracted to 8s4p3d1f1g pattern {71111111/2111/311/2/1}
 Group   4 Type O   : 12s5p4d2f1g contracted to 6s4p3d1f1g pattern {711111/2111/211/2/1}

Atom   0C    basis set group =>   1
Atom   1C    basis set group =>   1
Atom   2H    basis set group =>   2
Atom   3H    basis set group =>   2
Atom   4S    basis set group =>   3
Atom   5O    basis set group =>   4
Atom   6O    basis set group =>   4
Atom   7O    basis set group =>   4
Atom   8H    basis set group =>   2
Atom   9H    basis set group =>   2
Atom  10H    basis set group =>   2


           ************************************************************
           *        Program running with 4 parallel MPI-processes     *
           *              working on a common directory               *
           ************************************************************
------------------------------------------------------------------------------
                           ORCA GTO INTEGRAL CALCULATION
                           -- RI-GTO INTEGRALS CHOSEN --
------------------------------------------------------------------------------
------------------------------------------------------------------------------
                   ___                                                        
                  /   \      - P O W E R E D   B Y -                         
                 /     \                                                     
                 |  |  |   _    _      __       _____    __    __             
                 |  |  |  | |  | |    /  \     |  _  \  |  |  /  |          
                  \  \/   | |  | |   /    \    | | | |  |  | /  /          
                 / \  \   | |__| |  /  /\  \   | |_| |  |  |/  /          
                |  |  |   |  __  | /  /__\  \  |    /   |      \           
                |  |  |   | |  | | |   __   |  |    \   |  |\   \          
                \     /   | |  | | |  |  |  |  | |\  \  |  | \   \       
                 \___/    |_|  |_| |__|  |__|  |_| \__\ |__|  \__/        
                                                                              
                      - O R C A' S   B I G   F R I E N D -                    
                                      &                                       
                       - I N T E G R A L  F E E D E R -                       
                                                                              
 v1 FN, 2020, v2 2021                                                         
------------------------------------------------------------------------------


Reading SHARK input file SVPD_B3LYP_A_wt_dlpno_neg.SHARKINP.tmp ... ok
----------------------
SHARK INTEGRAL PACKAGE
----------------------

Number of atoms                             ...     11
Number of basis functions                   ...    176
Number of shells                            ...     74
Maximum angular momentum                    ...      2
Integral batch strategy                     ... SHARK/LIBINT Hybrid
RI-J (if used) integral strategy            ... SPLIT-RIJ (Revised 2003 algorithm where possible)
Printlevel                                  ...      1
Contraction scheme used                     ... SEGMENTED contraction
Coulomb Range Separation                    ... NOT USED
Exchange Range Separation                   ... NOT USED
Finite Nucleus Model                        ... NOT USED
Auxiliary Coulomb fitting basis             ... AVAILABLE
   # of basis functions in Aux-J            ...    351
   # of shells in Aux-J                     ...    117
   Maximum angular momentum in Aux-J        ...      4
Auxiliary J/K fitting basis                 ... NOT available
Auxiliary Correlation fitting basis         ... NOT available
Auxiliary 'external' fitting basis          ... NOT available
Integral threshold                          ...     2.500000e-11
Primitive cut-off                           ...     2.500000e-12
Primitive pair pre-selection threshold      ...     2.500000e-12

Calculating pre-screening integrals         ... done (  0.0 sec) Dimension = 74
Organizing shell pair data                  ... done (  0.0 sec)
Shell pair information
Total number of shell pairs                 ...      2775
Shell pairs after pre-screening             ...      2732
Total number of primitive shell pairs       ...      7853
Primitive shell pairs kept                  ...      6412
          la=0 lb=0:    611 shell pairs
          la=1 lb=0:    928 shell pairs
          la=1 lb=1:    376 shell pairs
          la=2 lb=0:    416 shell pairs
          la=2 lb=1:    323 shell pairs
          la=2 lb=2:     78 shell pairs

Calculating one electron integrals          ... done (  0.0 sec)
Calculating RI/J V-Matrix + Cholesky decomp.... done (  0.0 sec)
Calculating Nuclear repulsion               ... done (  0.0 sec) ENN=    351.101677359427 Eh

SHARK setup successfully completed in   0.2 seconds

Maximum memory used throughout the entire GTOINT-calculation: 8.9 MB


           ************************************************************
           *        Program running with 4 parallel MPI-processes     *
           *              working on a common directory               *
           ************************************************************
-------------------------------------------------------------------------------
                                 ORCA SCF
-------------------------------------------------------------------------------

------------
SCF SETTINGS
------------
Hamiltonian:
 Density Functional     Method          .... DFT(GTOs)
 Exchange Functional    Exchange        .... B88
   X-Alpha parameter    XAlpha          ....  0.666667
   Becke's b parameter  XBeta           ....  0.004200
 Correlation Functional Correlation     .... LYP
 LDA part of GGA corr.  LDAOpt          .... VWN-5
 Gradients option       PostSCFGGA      .... off
 Hybrid DFT is turned on
   Fraction HF Exchange ScalHFX         ....  0.200000
   Scaling of DF-GGA-X  ScalDFX         ....  0.720000
   Scaling of DF-GGA-C  ScalDFC         ....  0.810000
   Scaling of DF-LDA-C  ScalLDAC        ....  1.000000
   Perturbative correction              ....  0.000000
   Density functional embedding theory  .... OFF
   NL short-range parameter             ....  4.800000
 RI-approximation to the Coulomb term is turned on
   Number of AuxJ basis functions       .... 351
   RIJ-COSX (HFX calculated with COS-X)).... on


General Settings:
 Integral files         IntName         .... SVPD_B3LYP_A_wt_dlpno_neg
 Hartree-Fock type      HFTyp           .... RHF
 Total Charge           Charge          ....   -1
 Multiplicity           Mult            ....    1
 Number of Electrons    NEL             ....   58
 Basis Dimension        Dim             ....  176
 Nuclear Repulsion      ENuc            ....    351.1016773594 Eh

Convergence Acceleration:
 DIIS                   CNVDIIS         .... on
   Start iteration      DIISMaxIt       ....    12
   Startup error        DIISStart       ....  0.200000
   # of expansion vecs  DIISMaxEq       ....     5
   Bias factor          DIISBfac        ....   1.050
   Max. coefficient     DIISMaxC        ....  10.000
 Trust-Rad. Augm. Hess. CNVTRAH         .... auto
   Auto Start mean grad. ratio tolernc. ....  1.125000
   Auto Start start iteration           ....    20
   Auto Start num. interpolation iter.  ....    10
   Max. Number of Micro iterations      ....    16
   Max. Number of Macro iterations      .... Maxiter - #DIIS iter
   Number of Davidson start vectors     ....     2
   Converg. threshold I  (grad. norm)   ....   1.000e-05
   Converg. threshold II (energy diff.) ....   1.000e-08
   Grad. Scal. Fac. for Micro threshold ....   0.100
   Minimum threshold for Micro iter.    ....   0.010
   NR start threshold (gradient norm)   ....   0.001
   Initial trust radius                 ....   0.400
   Minimum AH scaling param. (alpha)    ....   1.000
   Maximum AH scaling param. (alpha)    .... 1000.000
   Orbital update algorithm             .... Taylor
   White noise on init. David. guess    .... on
   Maximum white noise                  ....   0.010
   Quad. conv. algorithm                .... NR
 SOSCF                  CNVSOSCF        .... on
   Start iteration      SOSCFMaxIt      ....   150
   Startup grad/error   SOSCFStart      ....  0.003300
 Level Shifting         CNVShift        .... on
   Level shift para.    LevelShift      ....    0.2500
   Turn off err/grad.   ShiftErr        ....    0.0010
 Zerner damping         CNVZerner       .... off
 Static damping         CNVDamp         .... on
   Fraction old density DampFac         ....    0.7000
   Max. Damping (<1)    DampMax         ....    0.9800
   Min. Damping (>=0)   DampMin         ....    0.0000
   Turn off err/grad.   DampErr         ....    0.1000
 Fernandez-Rico         CNVRico         .... off

SCF Procedure:
 Maximum # iterations   MaxIter         ....   150
 SCF integral mode      SCFMode         .... Direct
   Integral package                     .... SHARK and LIBINT hybrid scheme
 Reset frequency        DirectResetFreq ....    20
 Integral Threshold     Thresh          ....  2.500e-11 Eh
 Primitive CutOff       TCut            ....  2.500e-12 Eh

Convergence Tolerance:
 Convergence Check Mode ConvCheckMode   .... Total+1el-Energy
 Convergence forced     ConvForced      .... 0
 Energy Change          TolE            ....  1.000e-08 Eh
 1-El. energy change                    ....  1.000e-05 Eh
 Orbital Gradient       TolG            ....  1.000e-05
 Orbital Rotation angle TolX            ....  1.000e-05
 DIIS Error             TolErr          ....  5.000e-07


Diagonalization of the overlap matrix:
Smallest eigenvalue                        ... 2.360e-04
Time for diagonalization                   ...    0.009 sec
Threshold for overlap eigenvalues          ... 1.000e-08
Number of eigenvalues below threshold      ... 0
Time for construction of square roots      ...    0.005 sec
Total time needed                          ...    0.015 sec

Time for model grid setup =    0.074 sec

------------------------------
INITIAL GUESS: MODEL POTENTIAL
------------------------------
Loading Hartree-Fock densities                     ... done
Calculating cut-offs                               ... done
Initializing the effective Hamiltonian             ... done
Setting up the integral package (SHARK)            ... done
Starting the Coulomb interaction                   ... done (   0.0 sec)
Reading the grid                                   ... done
Mapping shells                                     ... done
Starting the XC term evaluation                    ... done (   0.1 sec)
  promolecular density results
     # of electrons  =     56.996513516
     EX              =    -61.497791239
     EC              =     -2.100487188
     EX+EC           =    -63.598278428
Transforming the Hamiltonian                       ... done (   0.0 sec)
Diagonalizing the Hamiltonian                      ... done (   0.0 sec)
Back transforming the eigenvectors                 ... done (   0.0 sec)
Now organizing SCF variables                       ... done
                      ------------------
                      INITIAL GUESS DONE (   0.2 sec)
                      ------------------
-------------------
DFT GRID GENERATION
-------------------

General Integration Accuracy     IntAcc      ... 4.388
Radial Grid Type                 RadialGrid  ... OptM3 with GC (2021)
Angular Grid (max. ang.)         AngularGrid ... 4 (Lebedev-302)
Angular grid pruning method      GridPruning ... 4 (adaptive)
Weight generation scheme         WeightScheme... Becke
Basis function cutoff            BFCut       ... 1.0000e-11
Integration weight cutoff        WCut        ... 1.0000e-14
Angular grids for H and He will be reduced by one unit
Partially contracted basis set               ... off
Rotationally invariant grid construction     ... off

Total number of grid points                  ...    56005
Total number of batches                      ...      881
Average number of points per batch           ...       63
Average number of grid points per atom       ...     5091
Time for grid setup =    0.361 sec

--------------------
COSX GRID GENERATION
--------------------

GRIDX 1
-------
General Integration Accuracy     IntAcc      ... 3.816
Radial Grid Type                 RadialGrid  ... OptM3 with GC (2021)
Angular Grid (max. ang.)         AngularGrid ... 1 (Lebedev-50)
Angular grid pruning method      GridPruning ... 4 (adaptive)
Weight generation scheme         WeightScheme... Becke
Basis function cutoff            BFCut       ... 1.0000e-11
Integration weight cutoff        WCut        ... 1.0000e-14
Angular grids for H and He will be reduced by one unit
Partially contracted basis set               ... on
Rotationally invariant grid construction     ... off

Total number of grid points                  ...     6937
Total number of batches                      ...      116
Average number of points per batch           ...       59
Average number of grid points per atom       ...      631
UseSFitting                                  ... on

GRIDX 2
-------
General Integration Accuracy     IntAcc      ... 4.020
Radial Grid Type                 RadialGrid  ... OptM3 with GC (2021)
Angular Grid (max. ang.)         AngularGrid ... 2 (Lebedev-110)
Angular grid pruning method      GridPruning ... 4 (adaptive)
Weight generation scheme         WeightScheme... Becke
Basis function cutoff            BFCut       ... 1.0000e-11
Integration weight cutoff        WCut        ... 1.0000e-14
Angular grids for H and He will be reduced by one unit
Partially contracted basis set               ... on
Rotationally invariant grid construction     ... off

Total number of grid points                  ...    16688
Total number of batches                      ...      268
Average number of points per batch           ...       62
Average number of grid points per atom       ...     1517
UseSFitting                                  ... on

GRIDX 3
-------
General Integration Accuracy     IntAcc      ... 4.338
Radial Grid Type                 RadialGrid  ... OptM3 with GC (2021)
Angular Grid (max. ang.)         AngularGrid ... 3 (Lebedev-194)
Angular grid pruning method      GridPruning ... 4 (adaptive)
Weight generation scheme         WeightScheme... Becke
Basis function cutoff            BFCut       ... 1.0000e-11
Integration weight cutoff        WCut        ... 1.0000e-14
Angular grids for H and He will be reduced by one unit
Partially contracted basis set               ... on
Rotationally invariant grid construction     ... off

Total number of grid points                  ...    38026
Total number of batches                      ...      599
Average number of points per batch           ...       63
Average number of grid points per atom       ...     3457
UseSFitting                                  ... on

Time for X-Grid setup             =    0.322 sec

--------------
SCF ITERATIONS
--------------
ITER       Energy         Delta-E        Max-DP      RMS-DP      [F,P]     Damp
               ***  Starting incremental Fock matrix formation  ***
  0   -702.1577759364   0.000000000000 0.17190632  0.00370785  0.3082243 0.7000
  1   -702.3621587300  -0.204382793587 0.08579177  0.00210364  0.1183278 0.7000
                               ***Turning on DIIS***
  2   -702.4297410022  -0.067582272172 0.15065262  0.00295377  0.0390386 0.0000
  3   -702.5471098371  -0.117368834955 0.05197680  0.00134072  0.0690289 0.0000
  4   -702.5706133532  -0.023503516117 0.01460953  0.00038704  0.0159847 0.0000
  5   -702.5719645453  -0.001351192115 0.00235745  0.00012831  0.0040867 0.0000
                      *** Initiating the SOSCF procedure ***
                           *** Shutting down DIIS ***
                      *** Re-Reading the Fockian *** 
                      *** Removing any level shift *** 
ITER      Energy       Delta-E        Grad      Rot      Max-DP    RMS-DP
  6   -702.57205046  -0.0000859136  0.000254  0.000254  0.002658  0.000109
               *** Restarting incremental Fock matrix formation ***
  7   -702.57209994  -0.0000494849  0.000209  0.000409  0.001551  0.000047
  8   -702.57209326   0.0000066877  0.000436  0.000298  0.001058  0.000024
  9   -702.57210209  -0.0000088371  0.000022  0.000027  0.000315  0.000004
 10   -702.57210208   0.0000000154  0.000027  0.000016  0.000180  0.000002
 11   -702.57210212  -0.0000000414  0.000004  0.000004  0.000013  0.000000
 12   -702.57210212   0.0000000012  0.000006  0.000003  0.000010  0.000000
                  ***Gradient check signals convergence***
              ***Rediagonalizing the Fockian in SOSCF/NRSCF***

               *****************************************************
               *                     SUCCESS                       *
               *           SCF CONVERGED AFTER  13 CYCLES          *
               *****************************************************

Old exchange energy                            =    -12.433016700 Eh
New exchange energy                            =    -12.433034123 Eh
Exchange energy change after final integration =     -0.000017424 Eh
Total energy after final integration           =   -702.572119543 Eh
Final COS-X integration done in                =     1.832 sec

----------------
TOTAL SCF ENERGY
----------------

Total Energy       :         -702.57211954 Eh          -19117.95931 eV

Components:
Nuclear Repulsion  :          351.10167736 Eh            9553.96236 eV
Electronic Energy  :        -1053.67379690 Eh          -28671.92167 eV
One Electron Energy:        -1674.35282291 Eh          -45561.45661 eV
Two Electron Energy:          620.67902601 Eh           16889.53495 eV
Max COSX asymmetry :            0.00000329 Eh               0.00009 eV

Virial components:
Potential Energy   :        -1401.77721746 Eh          -38144.29731 eV
Kinetic Energy     :          699.20509792 Eh           19026.33799 eV
Virial Ratio       :            2.00481550


DFT components:
N(Alpha)           :       29.000243812606 electrons
N(Beta)            :       29.000243812606 electrons
N(Total)           :       58.000487625212 electrons
E(X)               :      -49.442736605714 Eh       
E(C)               :       -2.500078184874 Eh       
E(XC)              :      -51.942814790588 Eh       
DFET-embed. en.    :        0.000000000000 Eh       

---------------
SCF CONVERGENCE
---------------

  Last Energy change         ...   -1.3609e-09  Tolerance :   1.0000e-08
  Last MAX-Density change    ...    4.4409e-15  Tolerance :   1.0000e-07
  Last RMS-Density change    ...    4.8220e-17  Tolerance :   5.0000e-09
  Last Orbital Gradient      ...    2.9512e-07  Tolerance :   1.0000e-05
  Last Orbital Rotation      ...    3.6599e-07  Tolerance :   1.0000e-05

             **** THE GBW FILE WAS UPDATED (SVPD_B3LYP_A_wt_dlpno_neg.gbw) ****
             **** DENSITY SVPD_B3LYP_A_wt_dlpno_neg.scfp WAS UPDATED ****
             **** ENERGY FILE WAS UPDATED (SVPD_B3LYP_A_wt_dlpno_neg.en.tmp) ****
             **** THE GBW FILE WAS UPDATED (SVPD_B3LYP_A_wt_dlpno_neg.gbw) ****
             **** DENSITY SVPD_B3LYP_A_wt_dlpno_neg.scfp WAS UPDATED ****
----------------
ORBITAL ENERGIES
----------------

  NO   OCC          E(Eh)            E(eV) 
   0   2.0000     -88.880334     -2418.5569 
   1   2.0000     -18.921396      -514.8774 
   2   2.0000     -18.921326      -514.8755 
   3   2.0000     -18.907031      -514.4865 
   4   2.0000     -10.043623      -273.3009 
   5   2.0000     -10.038808      -273.1698 
   6   2.0000      -7.934240      -215.9017 
   7   2.0000      -5.903202      -160.6343 
   8   2.0000      -5.903035      -160.6297 
   9   2.0000      -5.902485      -160.6148 
  10   2.0000      -0.933072       -25.3902 
  11   2.0000      -0.796379       -21.6706 
  12   2.0000      -0.769193       -20.9308 
  13   2.0000      -0.626246       -17.0410 
  14   2.0000      -0.501294       -13.6409 
  15   2.0000      -0.380078       -10.3424 
  16   2.0000      -0.318089        -8.6556 
  17   2.0000      -0.316925        -8.6240 
  18   2.0000      -0.278128        -7.5683 
  19   2.0000      -0.265858        -7.2344 
  20   2.0000      -0.257459        -7.0058 
  21   2.0000      -0.232769        -6.3340 
  22   2.0000      -0.214144        -5.8272 
  23   2.0000      -0.154206        -4.1962 
  24   2.0000      -0.153420        -4.1748 
  25   2.0000      -0.120046        -3.2666 
  26   2.0000      -0.110203        -2.9988 
  27   2.0000      -0.100898        -2.7456 
  28   2.0000      -0.067320        -1.8319 
  29   0.0000       0.142175         3.8688 
  30   0.0000       0.169219         4.6047 
  31   0.0000       0.179028         4.8716 
  32   0.0000       0.184199         5.0123 
  33   0.0000       0.205822         5.6007 
  34   0.0000       0.215320         5.8592 
  35   0.0000       0.228132         6.2078 
  36   0.0000       0.247326         6.7301 
  37   0.0000       0.250474         6.8158 
  38   0.0000       0.261078         7.1043 
  39   0.0000       0.278808         7.5867 
  40   0.0000       0.284400         7.7389 
  41   0.0000       0.285016         7.7557 
  42   0.0000       0.304460         8.2848 
  43   0.0000       0.315724         8.5913 
  44   0.0000       0.318246         8.6599 
  45   0.0000       0.322832         8.7847 
  46   0.0000       0.333633         9.0786 
  47   0.0000       0.347199         9.4478 
  48   0.0000       0.347724         9.4620 
  49   0.0000       0.359538         9.7835 
  50   0.0000       0.373654        10.1676 
  51   0.0000       0.380192        10.3455 
  52   0.0000       0.382322        10.4035 
  53   0.0000       0.386837        10.5264 
  54   0.0000       0.401853        10.9350 
  55   0.0000       0.406900        11.0723 
  56   0.0000       0.430111        11.7039 
  57   0.0000       0.433908        11.8072 
  58   0.0000       0.451926        12.2975 
  59   0.0000       0.461798        12.5662 
  60   0.0000       0.474017        12.8987 
  61   0.0000       0.489142        13.3102 
  62   0.0000       0.496737        13.5169 
  63   0.0000       0.503057        13.6889 
  64   0.0000       0.510647        13.8954 
  65   0.0000       0.514878        14.0105 
  66   0.0000       0.516576        14.0567 
  67   0.0000       0.521125        14.1805 
  68   0.0000       0.531493        14.4627 
  69   0.0000       0.537267        14.6198 
  70   0.0000       0.564604        15.3636 
  71   0.0000       0.571327        15.5466 
  72   0.0000       0.573695        15.6110 
  73   0.0000       0.603773        16.4295 
  74   0.0000       0.608046        16.5458 
  75   0.0000       0.622576        16.9412 
  76   0.0000       0.631218        17.1763 
  77   0.0000       0.644496        17.5376 
  78   0.0000       0.648767        17.6539 
  79   0.0000       0.653384        17.7795 
  80   0.0000       0.661044        17.9879 
  81   0.0000       0.662662        18.0319 
  82   0.0000       0.677157        18.4264 
  83   0.0000       0.682249        18.5649 
  84   0.0000       0.689343        18.7580 
  85   0.0000       0.713684        19.4203 
  86   0.0000       0.720166        19.5967 
  87   0.0000       0.760029        20.6814 
  88   0.0000       0.764740        20.8096 
  89   0.0000       0.798730        21.7346 
  90   0.0000       0.823413        22.4062 
  91   0.0000       0.834963        22.7205 
  92   0.0000       0.850949        23.1555 
  93   0.0000       0.854384        23.2490 
  94   0.0000       0.862837        23.4790 
  95   0.0000       0.873179        23.7604 
  96   0.0000       0.888075        24.1657 
  97   0.0000       0.899075        24.4651 
  98   0.0000       0.913466        24.8567 
  99   0.0000       0.930665        25.3247 
 100   0.0000       0.977897        26.6099 
 101   0.0000       0.984425        26.7876 
 102   0.0000       1.012585        27.5538 
 103   0.0000       1.088527        29.6203 
 104   0.0000       1.101106        29.9626 
 105   0.0000       1.116467        30.3806 
 106   0.0000       1.135425        30.8965 
 107   0.0000       1.145396        31.1678 
 108   0.0000       1.161936        31.6179 
 109   0.0000       1.164830        31.6966 
 110   0.0000       1.177799        32.0495 
 111   0.0000       1.188430        32.3388 
 112   0.0000       1.195909        32.5423 
 113   0.0000       1.258949        34.2578 
 114   0.0000       1.287495        35.0345 
 115   0.0000       1.320861        35.9425 
 116   0.0000       1.329137        36.1677 
 117   0.0000       1.362616        37.0787 
 118   0.0000       1.411673        38.4136 
 119   0.0000       1.429587        38.9010 
 120   0.0000       1.451155        39.4879 
 121   0.0000       1.460741        39.7488 
 122   0.0000       1.487565        40.4787 
 123   0.0000       1.536659        41.8146 
 124   0.0000       1.608273        43.7633 
 125   0.0000       1.685628        45.8683 
 126   0.0000       1.693335        46.0780 
 127   0.0000       1.706960        46.4487 
 128   0.0000       1.751516        47.6612 
 129   0.0000       1.756791        47.8047 
 130   0.0000       1.775199        48.3056 
 131   0.0000       1.796921        48.8967 
 132   0.0000       1.816672        49.4341 
 133   0.0000       1.829428        49.7813 
 134   0.0000       1.835562        49.9482 
 135   0.0000       1.851768        50.3892 
 136   0.0000       1.894745        51.5586 
 137   0.0000       1.926943        52.4348 
 138   0.0000       2.017166        54.8899 
 139   0.0000       2.044366        55.6300 
 140   0.0000       2.071229        56.3610 
 141   0.0000       2.104604        57.2692 
 142   0.0000       2.117293        57.6145 
 143   0.0000       2.164028        58.8862 
 144   0.0000       2.179865        59.3172 
 145   0.0000       2.192106        59.6502 
 146   0.0000       2.210544        60.1520 
 147   0.0000       2.312259        62.9198 
 148   0.0000       2.356939        64.1356 
 149   0.0000       2.401340        65.3438 
 150   0.0000       2.494506        67.8790 
 151   0.0000       2.591252        70.5115 
 152   0.0000       2.666639        72.5629 
 153   0.0000       2.720209        74.0207 
 154   0.0000       2.799922        76.1898 
 155   0.0000       2.810366        76.4740 
 156   0.0000       2.979373        81.0729 
 157   0.0000       3.021235        82.2120 
 158   0.0000       3.056682        83.1766 
 159   0.0000       3.068473        83.4974 
 160   0.0000       3.069522        83.5259 
 161   0.0000       3.094235        84.1984 
 162   0.0000       3.107310        84.5542 
 163   0.0000       3.113290        84.7169 
 164   0.0000       3.122754        84.9745 
 165   0.0000       3.131626        85.2159 
 166   0.0000       3.137014        85.3625 
 167   0.0000       3.180508        86.5460 
 168   0.0000       3.211048        87.3771 
 169   0.0000       3.276436        89.1564 
 170   0.0000       3.292788        89.6013 
 171   0.0000       3.331786        90.6625 
 172   0.0000       3.344222        91.0009 
 173   0.0000       3.529989        96.0559 
 174   0.0000       3.766656       102.4959 
 175   0.0000       3.798509       103.3627 

                    ********************************
                    * MULLIKEN POPULATION ANALYSIS *
                    ********************************

-----------------------
MULLIKEN ATOMIC CHARGES
-----------------------
   0 C :    0.989558
   1 C :   -0.176098
   2 H :   -0.168793
   3 H :   -0.129267
   4 S :    1.365300
   5 O :   -0.799096
   6 O :   -0.798913
   7 O :   -0.842430
   8 H :   -0.130837
   9 H :   -0.186055
  10 H :   -0.123370
Sum of atomic charges:   -1.0000000

--------------------------------
MULLIKEN REDUCED ORBITAL CHARGES
--------------------------------
  0 C s       :     2.262850  s :     2.262850
      pz      :     0.817184  p :     2.631424
      px      :     0.847027
      py      :     0.967212
      dz2     :    -0.006691  d :     0.116168
      dxz     :    -0.011217
      dyz     :     0.050632
      dx2y2   :     0.056056
      dxy     :     0.027388
  1 C s       :     2.793383  s :     2.793383
      pz      :     0.947641  p :     2.922834
      px      :     0.950874
      py      :     1.024319
      dz2     :     0.011503  d :     0.459882
      dxz     :     0.071807
      dyz     :     0.132323
      dx2y2   :     0.111869
      dxy     :     0.132380
  2 H s       :     1.110074  s :     1.110074
      pz      :     0.001536  p :     0.058718
      px      :     0.027633
      py      :     0.029550
  3 H s       :     1.084358  s :     1.084358
      pz      :     0.056805  p :     0.044910
      px      :     0.008244
      py      :    -0.020139
  4 S s       :     4.932555  s :     4.932555
      pz      :     2.974769  p :     8.799278
      px      :     2.973409
      py      :     2.851100
      dz2     :     0.152294  d :     0.902867
      dxz     :     0.184824
      dyz     :     0.187994
      dx2y2   :     0.197760
      dxy     :     0.179994
  5 O s       :     3.953234  s :     3.953234
      pz      :     1.782362  p :     4.834685
      px      :     1.764680
      py      :     1.287643
      dz2     :     0.000921  d :     0.011177
      dxz     :     0.001467
      dyz     :     0.005487
      dx2y2   :     0.004229
      dxy     :    -0.000928
  6 O s       :     3.958360  s :     3.958360
      pz      :     1.772666  p :     4.832222
      px      :     1.520858
      py      :     1.538698
      dz2     :     0.000637  d :     0.008331
      dxz     :    -0.000696
      dyz     :     0.005878
      dx2y2   :     0.001694
      dxy     :     0.000817
  7 O s       :     3.968799  s :     3.968799
      pz      :     1.362569  p :     4.867361
      px      :     1.688902
      py      :     1.815890
      dz2     :    -0.002865  d :     0.006271
      dxz     :     0.003603
      dyz     :     0.002821
      dx2y2   :     0.002161
      dxy     :     0.000550
  8 H s       :     1.075911  s :     1.075911
      pz      :     0.053840  p :     0.054926
      px      :    -0.002392
      py      :     0.003478
  9 H s       :     1.178111  s :     1.178111
      pz      :     0.018627  p :     0.007943
      px      :     0.000450
      py      :    -0.011133
 10 H s       :     1.070888  s :     1.070888
      pz      :    -0.033309  p :     0.052482
      px      :     0.056786
      py      :     0.029005


                     *******************************
                     * LOEWDIN POPULATION ANALYSIS *
                     *******************************

----------------------
LOEWDIN ATOMIC CHARGES
----------------------
   0 C :    0.108437
   1 C :   -0.133008
   2 H :    0.001503
   3 H :   -0.003485
   4 S :    0.856363
   5 O :   -0.576235
   6 O :   -0.573374
   7 O :   -0.595380
   8 H :   -0.024343
   9 H :   -0.038183
  10 H :   -0.022295

-------------------------------
LOEWDIN REDUCED ORBITAL CHARGES
-------------------------------
  0 C s       :     2.695711  s :     2.695711
      pz      :     0.928682  p :     2.764817
      px      :     0.922274
      py      :     0.913860
      dz2     :     0.062313  d :     0.431035
      dxz     :     0.086101
      dyz     :     0.074641
      dx2y2   :     0.093137
      dxy     :     0.114843
  1 C s       :     2.726347  s :     2.726347
      pz      :     0.914046  p :     2.740769
      px      :     0.911066
      py      :     0.915657
      dz2     :     0.134544  d :     0.665893
      dxz     :     0.113977
      dyz     :     0.105730
      dx2y2   :     0.126860
      dxy     :     0.184782
  2 H s       :     0.735018  s :     0.735018
      pz      :     0.071485  p :     0.263479
      px      :     0.098988
      py      :     0.093006
  3 H s       :     0.734610  s :     0.734610
      pz      :     0.120456  p :     0.268875
      px      :     0.082477
      py      :     0.065942
  4 S s       :     4.668229  s :     4.668229
      pz      :     2.818846  p :     8.467245
      px      :     2.820191
      py      :     2.828208
      dz2     :     0.386944  d :     2.008163
      dxz     :     0.421446
      dyz     :     0.359004
      dx2y2   :     0.417345
      dxy     :     0.423424
  5 O s       :     3.555485  s :     3.555485
      pz      :     1.658694  p :     4.768947
      px      :     1.655159
      py      :     1.455095
      dz2     :     0.031875  d :     0.251803
      dxz     :     0.018636
      dyz     :     0.062475
      dx2y2   :     0.065615
      dxy     :     0.073202
  6 O s       :     3.554312  s :     3.554312
      pz      :     1.655196  p :     4.766696
      px      :     1.555030
      py      :     1.556470
      dz2     :     0.034407  d :     0.252366
      dxz     :     0.052282
      dyz     :     0.029814
      dx2y2   :     0.069541
      dxy     :     0.066321
  7 O s       :     3.572831  s :     3.572831
      pz      :     1.477544  p :     4.780796
      px      :     1.613619
      py      :     1.689632
      dz2     :     0.074346  d :     0.241753
      dxz     :     0.069990
      dyz     :     0.050270
      dx2y2   :     0.020057
      dxy     :     0.027091
  8 H s       :     0.733332  s :     0.733332
      pz      :     0.132034  p :     0.291011
      px      :     0.086648
      py      :     0.072328
  9 H s       :     0.754269  s :     0.754269
      pz      :     0.108311  p :     0.283915
      px      :     0.102873
      py      :     0.072730
 10 H s       :     0.733216  s :     0.733216
      pz      :     0.075898  p :     0.289078
      px      :     0.117743
      py      :     0.095437


                      *****************************
                      * MAYER POPULATION ANALYSIS *
                      *****************************

  NA   - Mulliken gross atomic population
  ZA   - Total nuclear charge
  QA   - Mulliken gross atomic charge
  VA   - Mayer's total valence
  BVA  - Mayer's bonded valence
  FA   - Mayer's free valence

  ATOM       NA         ZA         QA         VA         BVA        FA
  0 C      5.0104     6.0000     0.9896     3.6634     3.6634    -0.0000
  1 C      6.1761     6.0000    -0.1761     5.0125     5.0125    -0.0000
  2 H      1.1688     1.0000    -0.1688     1.1609     1.1609     0.0000
  3 H      1.1293     1.0000    -0.1293     1.1248     1.1248    -0.0000
  4 S     14.6347    16.0000     1.3653     4.9331     4.9331    -0.0000
  5 O      8.7991     8.0000    -0.7991     1.4631     1.4631     0.0000
  6 O      8.7989     8.0000    -0.7989     1.4699     1.4699    -0.0000
  7 O      8.8424     8.0000    -0.8424     1.3986     1.3986     0.0000
  8 H      1.1308     1.0000    -0.1308     1.0907     1.0907    -0.0000
  9 H      1.1861     1.0000    -0.1861     0.9481     0.9481    -0.0000
 10 H      1.1234     1.0000    -0.1234     1.0888     1.0888    -0.0000

  Mayer bond orders larger than 0.100000
B(  0-C ,  1-C ) :   1.2620 B(  0-C ,  3-H ) :   0.1017 B(  0-C ,  8-H ) :   0.7835 
B(  0-C ,  9-H ) :   0.6758 B(  0-C , 10-H ) :   0.7659 B(  1-C ,  2-H ) :   0.9755 
B(  1-C ,  3-H ) :   0.9430 B(  1-C ,  4-S ) :   0.9118 B(  1-C ,  8-H ) :   0.2147 
B(  1-C ,  9-H ) :   0.2526 B(  1-C , 10-H ) :   0.2235 B(  4-S ,  5-O ) :   1.3292 
B(  4-S ,  6-O ) :   1.2921 B(  4-S ,  7-O ) :   1.2563 

-------
TIMINGS
-------

Total SCF time: 0 days 0 hours 0 min 15 sec 

Total time                  ....      15.187 sec
Sum of individual times     ....      15.012 sec  ( 98.9%)

Fock matrix formation       ....      14.017 sec  ( 92.3%)
  Split-RI-J                ....       1.014 sec  (  7.2% of F)
  Chain of spheres X        ....      10.016 sec  ( 71.5% of F)
  XC integration            ....       2.945 sec  ( 21.0% of F)
    Basis function eval.    ....       1.006 sec  ( 34.2% of XC)
    Density eval.           ....       0.715 sec  ( 24.3% of XC)
    XC-Functional eval.     ....       0.189 sec  (  6.4% of XC)
    XC-Potential eval.      ....       0.929 sec  ( 31.5% of XC)
Diagonalization             ....       0.049 sec  (  0.3%)
Density matrix formation    ....       0.004 sec  (  0.0%)
Population analysis         ....       0.007 sec  (  0.0%)
Initial guess               ....       0.110 sec  (  0.7%)
Orbital Transformation      ....       0.000 sec  (  0.0%)
Orbital Orthonormalization  ....       0.000 sec  (  0.0%)
DIIS solution               ....       0.032 sec  (  0.2%)
SOSCF solution              ....       0.036 sec  (  0.2%)
Grid generation             ....       0.757 sec  (  5.0%)

Maximum memory used throughout the entire SCF-calculation: 52.1 MB


-------------------------------------------------------------------------------
                          DFT DISPERSION CORRECTION                            
                                                                               
                              DFTD3 V3.1  Rev 1                                
                          USING Becke-Johnson damping                          
-------------------------------------------------------------------------------
The B3LYP functional is recognized
Active option DFTDOPT                   ...         4   

molecular C6(AA) [au] = 1522.371197 


            DFT-D V3
 parameters
 s6 scaling factor         :     1.0000 
 a1 scaling factor         :     0.3981 
 s8 scaling factor         :     1.9889 
 a2 scaling factor         :     4.4211 
 ad hoc parameters k1-k3   :    16.0000     1.3333    -4.0000 

 Edisp/kcal,au: -10.525947457609  -0.016774163212 
 E6   /kcal   :  -4.820071236 
 E8   /kcal   :  -5.705876222 
 % E8         :  54.207720918 

-------------------------   ----------------
Dispersion correction           -0.016774163
-------------------------   ----------------


-------------------------   --------------------
FINAL SINGLE POINT ENERGY      -702.588893706196
-------------------------   --------------------


                            ***************************************
                            *     ORCA property calculations      *
                            ***************************************

                                    ---------------------
                                    Active property flags
                                    ---------------------
   (+) Dipole Moment


------------------------------------------------------------------------------
                       ORCA ELECTRIC PROPERTIES CALCULATION
------------------------------------------------------------------------------

Dipole Moment Calculation                       ... on
Quadrupole Moment Calculation                   ... off
Polarizability Calculation                      ... off
GBWName                                         ... SVPD_B3LYP_A_wt_dlpno_neg.gbw
Electron density file                           ... SVPD_B3LYP_A_wt_dlpno_neg.scfp
The origin for moment calculation is the CENTER OF MASS  = ( 1.725691,  0.731641 -5.853196)

-------------
DIPOLE MOMENT
-------------
                                X             Y             Z
Electronic contribution:     -5.63890      -3.57289      -4.04239
Nuclear contribution   :      6.89220       4.11756       5.35566
                        -----------------------------------------
Total Dipole Moment    :      1.25330       0.54467       1.31327
                        -----------------------------------------
Magnitude (a.u.)       :      1.89529
Magnitude (Debye)      :      4.81743



--------------------
Rotational spectrum 
--------------------
 
Rotational constants in cm-1:     0.162183     0.084017     0.082390 
Rotational constants in MHz :  4862.117324  2518.774315  2469.980309 

 Dipole components along the rotational axes: 
x,y,z [a.u.] :    -1.740525    -0.713735    -0.230783 
x,y,z [Debye]:    -4.424063    -1.814171    -0.586603 

 

Timings for individual modules:

Sum of individual times         ...       15.737 sec (=   0.262 min)
GTO integral calculation        ...        0.355 sec (=   0.006 min)   2.3 %
SCF iterations                  ...       15.382 sec (=   0.256 min)  97.7 %
                             ****ORCA TERMINATED NORMALLY****
TOTAL RUN TIME: 0 days 0 hours 0 minutes 16 seconds 108 msec
