
                                        *****************
                                        * O   R   C   A *
                                        *****************

                                            #,                                       
                                            ###                                      
                                            ####                                     
                                            #####                                    
                                            ######                                   
                                           ########,                                 
                                     ,,################,,,,,                         
                               ,,#################################,,                 
                          ,,##########################################,,             
                       ,#########################################, ''#####,          
                    ,#############################################,,   '####,        
                  ,##################################################,,,,####,       
                ,###########''''           ''''###############################       
              ,#####''   ,,,,##########,,,,          '''####'''          '####       
            ,##' ,,,,###########################,,,                        '##       
           ' ,,###''''                  '''############,,,                           
         ,,##''                                '''############,,,,        ,,,,,,###''
      ,#''                                            '''#######################'''  
     '                                                          ''''####''''         
             ,#######,   #######,   ,#######,      ##                                
            ,#'     '#,  ##    ##  ,#'     '#,    #''#        ######   ,####,        
            ##       ##  ##   ,#'  ##            #'  '#       #        #'  '#        
            ##       ##  #######   ##           ,######,      #####,   #    #        
            '#,     ,#'  ##    ##  '#,     ,#' ,#      #,         ##   #,  ,#        
             '#######'   ##     ##  '#######'  #'      '#     #####' # '####'        



                  #######################################################
                  #                        -***-                        #
                  #          Department of theory and spectroscopy      #
                  #    Directorship and core code : Frank Neese         #
                  #        Max Planck Institute fuer Kohlenforschung    #
                  #                Kaiser Wilhelm Platz 1               #
                  #                 D-45470 Muelheim/Ruhr               #
                  #                      Germany                        #
                  #                                                     #
                  #                  All rights reserved                #
                  #                        -***-                        #
                  #######################################################


                         Program Version 5.0.0 -  RELEASE  -
                                (SVN: $Rev: 19529$)
                ($Date: 2021-06-28 11:36:33 +0200 (Mo, 28 Jun 2021) $)


 With contributions from (in alphabetic order):
   Daniel Aravena         : Magnetic Suceptibility
   Michael Atanasov       : Ab Initio Ligand Field Theory (pilot matlab implementation)
   Alexander A. Auer      : GIAO ZORA, VPT2 properties, NMR spectrum
   Ute Becker             : Parallelization
   Giovanni Bistoni       : ED, misc. LED, open-shell LED, HFLD
   Martin Brehm           : Molecular dynamics
   Dmytro Bykov           : SCF Hessian
   Vijay G. Chilkuri      : MRCI spin determinant printing, contributions to CSF-ICE
   Dipayan Datta          : RHF DLPNO-CCSD density
   Achintya Kumar Dutta   : EOM-CC, STEOM-CC
   Dmitry Ganyushin       : Spin-Orbit,Spin-Spin,Magnetic field MRCI
   Miquel Garcia          : C-PCM Hessian, Gaussian charge scheme
   Yang Guo               : DLPNO-NEVPT2, F12-NEVPT2, CIM, IAO-localization
   Andreas Hansen         : Spin unrestricted coupled pair/coupled cluster methods
   Benjamin Helmich-Paris : MC-RPA, TRAH-SCF, COSX integrals
   Lee Huntington         : MR-EOM, pCC
   Robert Izsak           : Overlap fitted RIJCOSX, COSX-SCS-MP3, EOM
   Marcus Kettner         : VPT2
   Christian Kollmar      : KDIIS, OOCD, Brueckner-CCSD(T), CCSD density, CASPT2, CASPT2-K
   Simone Kossmann        : Meta GGA functionals, TD-DFT gradient, OOMP2, MP2 Hessian
   Martin Krupicka        : Initial AUTO-CI
   Lucas Lang             : DCDCAS
   Marvin Lechner         : AUTO-CI (C++ implementation), FIC-MRCC
   Dagmar Lenk            : GEPOL surface, SMD
   Dimitrios Liakos       : Extrapolation schemes; Compound Job, initial MDCI parallelization
   Dimitrios Manganas     : Further ROCIS development; embedding schemes
   Dimitrios Pantazis     : SARC Basis sets
   Anastasios Papadopoulos: AUTO-CI, single reference methods and gradients
   Taras Petrenko         : DFT Hessian,TD-DFT gradient, ASA, ECA, R-Raman, ABS, FL, XAS/XES, NRVS
   Peter Pinski           : DLPNO-MP2, DLPNO-MP2 Gradient
   Christoph Reimann      : Effective Core Potentials
   Marius Retegan         : Local ZFS, SOC
   Christoph Riplinger    : Optimizer, TS searches, QM/MM, DLPNO-CCSD(T), (RO)-DLPNO pert. Triples
   Tobias Risthaus        : Range-separated hybrids, TD-DFT gradient, RPA, STAB
   Michael Roemelt        : Original ROCIS implementation
   Masaaki Saitow         : Open-shell DLPNO-CCSD energy and density
   Barbara Sandhoefer     : DKH picture change effects
   Avijit Sen             : IP-ROCIS
   Kantharuban Sivalingam : CASSCF convergence, NEVPT2, FIC-MRCI
   Bernardo de Souza      : ESD, SOC TD-DFT
   Georgi Stoychev        : AutoAux, RI-MP2 NMR
   Willem Van den Heuvel  : Paramagnetic NMR
   Boris Wezisla          : Elementary symmetry handling
   Frank Wennmohs         : Technical directorship


 We gratefully acknowledge several colleagues who have allowed us to
 interface, adapt or use parts of their codes:
   Stefan Grimme, W. Hujo, H. Kruse, P. Pracht,  : VdW corrections, initial TS optimization,
                  C. Bannwarth, S. Ehlert          DFT functionals, gCP, sTDA/sTD-DF
   Ed Valeev, F. Pavosevic, A. Kumar             : LibInt (2-el integral package), F12 methods
   Garnet Chan, S. Sharma, J. Yang, R. Olivares  : DMRG
   Ulf Ekstrom                                   : XCFun DFT Library
   Mihaly Kallay                                 : mrcc  (arbitrary order and MRCC methods)
   Jiri Pittner, Ondrej Demel                    : Mk-CCSD
   Frank Weinhold                                : gennbo (NPA and NBO analysis)
   Christopher J. Cramer and Donald G. Truhlar   : smd solvation model
   Lars Goerigk                                  : TD-DFT with DH, B97 family of functionals
   V. Asgeirsson, H. Jonsson                     : NEB implementation
   FAccTs GmbH                                   : IRC, NEB, NEB-TS, DLPNO-Multilevel, CI-OPT
                                                   MM, QMMM, 2- and 3-layer-ONIOM, Crystal-QMMM,
                                                   LR-CPCM, SF, NACMEs, symmetry and pop. for TD-DFT,
                                                   nearIR, NL-DFT gradient (VV10), updates on ESD,
                                                   ML-optimized integration grids
   S Lehtola, MJT Oliveira, MAL Marques          : LibXC Library
   Liviu Ungur et al                             : ANISO software


 Your calculation uses the libint2 library for the computation of 2-el integrals
 For citations please refer to: http://libint.valeyev.net

 Your ORCA version has been built with support for libXC version: 5.1.0
 For citations please refer to: https://tddft.org/programs/libxc/

 This ORCA versions uses:
   CBLAS   interface :  Fast vector & matrix operations
   LAPACKE interface :  Fast linear algebra routines
   SCALAPACK package :  Parallel linear algebra routines
   Shared memory     :  Shared parallel matrices
   BLAS/LAPACK       :  OpenBLAS 0.3.15  USE64BITINT DYNAMIC_ARCH NO_AFFINITY Haswell SINGLE_THREADED
        Core in use  :  Haswell
   Copyright (c) 2011-2014, The OpenBLAS Project


Your calculation utilizes the atom-pairwise dispersion correction
with the zero-damping scheme (D30)
Cite in your paper:
S.Grimme, J.Antony, S.Ehrlich and H.Krieg, J.Chem.Phys., 132, (2010), 154104 
   

XCFun DFT library Copyright 2009-2010 Ulf Ekstrom and contributors.
See http://admol.org/xcfun for more information.
This is free software; see the source code for copying conditions.
There is ABSOLUTELY NO WARRANTY; not even for MERCHANTABILITY or FITNESS FOR A PARTICULAR PURPOSE.
For details see the documentation.
Scientific users of this library should cite U. Ekstrom, L. Visscher, R. Bast, A. J. Thorvaldsen and K. Ruud;
J.Chem.Theor.Comp. 2010, DOI: 10.1021/ct100117s
XCFun Version 0.99 

================================================================================

----- Orbital basis set information -----
Your calculation utilizes the basis: def2-SVPD
   F. Weigend and R. Ahlrichs, Phys. Chem. Chem. Phys. 7, 3297 (2005).
   D. Rappoport and F. Furche, J. Chem. Phys. 133 134105 (2010).

----- AuxJ basis set information -----
Your calculation utilizes the auxiliary basis: def2/J
   F. Weigend, Phys. Chem. Chem. Phys. 8, 1057 (2006).

================================================================================
                                        WARNINGS
                       Please study these warnings very carefully!
================================================================================


INFO   : the flag for use of the SHARK integral package has been found!

================================================================================
                                       INPUT FILE
================================================================================
NAME = C1_wt_dlpno_pos.com
|  1> !wB97X-D3 RIJCOSX def2-SVPD def2/J TightSCF
|  2> *xyz 0 1
|  3> C          5.55821       -1.99291       -6.21505
|  4> C          4.18188       -2.58967       -6.29891
|  5> C          3.14587       -1.76843       -6.48675
|  6> N          4.01910       -3.86431       -6.22743
|  7> H          4.76849       -4.59115       -5.99077
|  8> H          3.12241       -4.33339       -6.31462
|  9> H          3.28164       -0.77779       -6.56655
| 10> H          2.21255       -2.13419       -6.56225
| 11> C          6.41926       -2.54294       -5.07763
| 12> H          6.03683       -2.19819       -7.17685
| 13> H          5.46761       -0.90737       -6.12797
| 14> H          6.50056       -3.60553       -5.17358
| 15> H          5.96544       -2.30329       -4.13874
| 16> H          7.39438       -2.10494       -5.12457
| 17> *
| 18> 
| 19> %MaxCore 64000
| 20> 
| 21> %pal nprocs 18
| 22> end  
| 23> 
| 24> %scf
| 25>   MaxIter 150
| 26> end
| 27> 
| 28> 
| 29>                          ****END OF INPUT****
================================================================================

                       ****************************
                       * Single Point Calculation *
                       ****************************

---------------------------------
CARTESIAN COORDINATES (ANGSTROEM)
---------------------------------
  C      5.558210   -1.992910   -6.215050
  C      4.181880   -2.589670   -6.298910
  C      3.145870   -1.768430   -6.486750
  N      4.019100   -3.864310   -6.227430
  H      4.768490   -4.591150   -5.990770
  H      3.122410   -4.333390   -6.314620
  H      3.281640   -0.777790   -6.566550
  H      2.212550   -2.134190   -6.562250
  C      6.419260   -2.542940   -5.077630
  H      6.036830   -2.198190   -7.176850
  H      5.467610   -0.907370   -6.127970
  H      6.500560   -3.605530   -5.173580
  H      5.965440   -2.303290   -4.138740
  H      7.394380   -2.104940   -5.124570

----------------------------
CARTESIAN COORDINATES (A.U.)
----------------------------
  NO LB      ZA    FRAG     MASS         X           Y           Z
   0 C     6.0000    0    12.011   10.503495   -3.766054  -11.744742
   1 C     6.0000    0    12.011    7.902608   -4.893767  -11.903215
   2 C     6.0000    0    12.011    5.944833   -3.341848  -12.258181
   3 N     7.0000    0    14.007    7.594998   -7.302488  -11.768137
   4 H     1.0000    0     1.008    9.011140   -8.676016  -11.320915
   5 H     1.0000    0     1.008    5.900500   -8.188920  -11.932902
   6 H     1.0000    0     1.008    6.201401   -1.469810  -12.408981
   7 H     1.0000    0     1.008    4.181114   -4.033035  -12.400855
   8 C     6.0000    0    12.011   12.130643   -4.805460   -9.595330
   9 H     1.0000    0     1.008   11.407955   -4.153977  -13.562281
  10 H     1.0000    0     1.008   10.332286   -1.714681  -11.580185
  11 H     1.0000    0     1.008   12.284278   -6.813464   -9.776649
  12 H     1.0000    0     1.008   11.273048   -4.352587   -7.821085
  13 H     1.0000    0     1.008   13.973353   -3.977760   -9.684034

--------------------------------
INTERNAL COORDINATES (ANGSTROEM)
--------------------------------
 C      0   0   0     0.000000000000     0.00000000     0.00000000
 C      1   0   0     1.502477709019     0.00000000     0.00000000
 C      2   1   0     1.335303607162   118.31345049     0.00000000
 N      2   1   3     1.286978573404   120.40698489   178.11903254
 H      4   2   1     1.070462382945   126.59967088     7.96889692
 H      4   2   1     1.015721959298   124.35258296   182.57970995
 H      3   2   1     1.003079828578   120.90191037   359.77612908
 H      3   2   1     1.005269540969   120.47250834   179.03023138
 C      1   2   3     1.528942235600   114.48912146   134.97205894
 H      1   2   3     1.093744130407   106.09496297   256.34022102
 H      1   2   3     1.092789265138   108.84750716    11.20622356
 H      9   1   2     1.070006355402   109.47115838    56.94341761
 H      9   1   2     1.069999601402   109.47171602   296.94339310
 H      9   1   2     1.070002980370   109.47119060   176.94314058

---------------------------
INTERNAL COORDINATES (A.U.)
---------------------------
 C      0   0   0     0.000000000000     0.00000000     0.00000000
 C      1   0   0     2.839271392368     0.00000000     0.00000000
 C      2   1   0     2.523358123173   118.31345049     0.00000000
 N      2   1   3     2.432037043957   120.40698489   178.11903254
 H      4   2   1     2.022880740431   126.59967088     7.96889692
 H      4   2   1     1.919436331283   124.35258296   182.57970995
 H      3   2   1     1.895546166473   120.90191037   359.77612908
 H      3   2   1     1.899684123204   120.47250834   179.03023138
 C      1   2   3     2.889282099868   114.48912146   134.97205894
 H      1   2   3     2.066876867053   106.09496297   256.34022102
 H      1   2   3     2.065072433199   108.84750716    11.20622356
 H      9   1   2     2.022018973264   109.47115838    56.94341761
 H      9   1   2     2.022006210054   109.47171602   296.94339310
 H      9   1   2     2.022012595378   109.47119060   176.94314058

---------------------
BASIS SET INFORMATION
---------------------
There are 3 groups of distinct atoms

 Group   1 Type C   : 8s4p2d contracted to 4s2p2d pattern {5111/31/11}
 Group   2 Type N   : 8s4p2d contracted to 4s2p2d pattern {5111/31/11}
 Group   3 Type H   : 4s2p contracted to 2s2p pattern {31/11}

Atom   0C    basis set group =>   1
Atom   1C    basis set group =>   1
Atom   2C    basis set group =>   1
Atom   3N    basis set group =>   2
Atom   4H    basis set group =>   3
Atom   5H    basis set group =>   3
Atom   6H    basis set group =>   3
Atom   7H    basis set group =>   3
Atom   8C    basis set group =>   1
Atom   9H    basis set group =>   3
Atom  10H    basis set group =>   3
Atom  11H    basis set group =>   3
Atom  12H    basis set group =>   3
Atom  13H    basis set group =>   3
---------------------------------
AUXILIARY/J BASIS SET INFORMATION
---------------------------------
There are 3 groups of distinct atoms

 Group   1 Type C   : 12s5p4d2f1g contracted to 6s4p3d1f1g pattern {711111/2111/211/2/1}
 Group   2 Type N   : 12s5p4d2f1g contracted to 6s4p3d1f1g pattern {711111/2111/211/2/1}
 Group   3 Type H   : 5s2p1d contracted to 3s1p1d pattern {311/2/1}

Atom   0C    basis set group =>   1
Atom   1C    basis set group =>   1
Atom   2C    basis set group =>   1
Atom   3N    basis set group =>   2
Atom   4H    basis set group =>   3
Atom   5H    basis set group =>   3
Atom   6H    basis set group =>   3
Atom   7H    basis set group =>   3
Atom   8C    basis set group =>   1
Atom   9H    basis set group =>   3
Atom  10H    basis set group =>   3
Atom  11H    basis set group =>   3
Atom  12H    basis set group =>   3
Atom  13H    basis set group =>   3


           ************************************************************
           *        Program running with 18 parallel MPI-processes    *
           *              working on a common directory               *
           ************************************************************
------------------------------------------------------------------------------
                           ORCA GTO INTEGRAL CALCULATION
                           -- RI-GTO INTEGRALS CHOSEN --
------------------------------------------------------------------------------
------------------------------------------------------------------------------
                   ___                                                        
                  /   \      - P O W E R E D   B Y -                         
                 /     \                                                     
                 |  |  |   _    _      __       _____    __    __             
                 |  |  |  | |  | |    /  \     |  _  \  |  |  /  |          
                  \  \/   | |  | |   /    \    | | | |  |  | /  /          
                 / \  \   | |__| |  /  /\  \   | |_| |  |  |/  /          
                |  |  |   |  __  | /  /__\  \  |    /   |      \           
                |  |  |   | |  | | |   __   |  |    \   |  |\   \          
                \     /   | |  | | |  |  |  |  | |\  \  |  | \   \       
                 \___/    |_|  |_| |__|  |__|  |_| \__\ |__|  \__/        
                                                                              
                      - O R C A' S   B I G   F R I E N D -                    
                                      &                                       
                       - I N T E G R A L  F E E D E R -                       
                                                                              
 v1 FN, 2020, v2 2021                                                         
------------------------------------------------------------------------------


Reading SHARK input file C1_wt_dlpno_pos.SHARKINP.tmp ... ok
----------------------
SHARK INTEGRAL PACKAGE
----------------------

Number of atoms                             ...     14
Number of basis functions                   ...    172
Number of shells                            ...     76
Maximum angular momentum                    ...      2
Integral batch strategy                     ... SHARK/LIBINT Hybrid
RI-J (if used) integral strategy            ... SPLIT-RIJ (Revised 2003 algorithm where possible)
Printlevel                                  ...      1
Contraction scheme used                     ... SEGMENTED contraction
Coulomb Range Separation                    ... NOT USED
Exchange Range Separation                   ... Long Range
   Mu parameter                             ...  0.250000
   Scaling (regular/separated)              ...  0.195728  0.804272
Finite Nucleus Model                        ... NOT USED
Auxiliary Coulomb fitting basis             ... AVAILABLE
   # of basis functions in Aux-J            ...    344
   # of shells in Aux-J                     ...    120
   Maximum angular momentum in Aux-J        ...      4
Auxiliary J/K fitting basis                 ... NOT available
Auxiliary Correlation fitting basis         ... NOT available
Auxiliary 'external' fitting basis          ... NOT available
Integral threshold                          ...     2.500000e-11
Primitive cut-off                           ...     2.500000e-12
Primitive pair pre-selection threshold      ...     2.500000e-12

Calculating pre-screening integrals         ... done (  0.0 sec) Dimension = 76
Organizing shell pair data                  ... done (  0.0 sec)
Shell pair information
Total number of shell pairs                 ...      2926
Shell pairs after pre-screening             ...      2904
Total number of primitive shell pairs       ...      7842
Primitive shell pairs kept                  ...      6629
          la=0 lb=0:    733 shell pairs
          la=1 lb=0:   1055 shell pairs
          la=1 lb=1:    403 shell pairs
          la=2 lb=0:    378 shell pairs
          la=2 lb=1:    280 shell pairs
          la=2 lb=2:     55 shell pairs

Calculating one electron integrals          ... done (  0.0 sec)
Calculating RI/J V-Matrix + Cholesky decomp.... done (  0.0 sec)
Calculating Nuclear repulsion               ... done (  0.0 sec) ENN=    181.201328938910 Eh

SHARK setup successfully completed in   0.2 seconds

Maximum memory used throughout the entire GTOINT-calculation: 8.9 MB


           ************************************************************
           *        Program running with 18 parallel MPI-processes    *
           *              working on a common directory               *
           ************************************************************
-------------------------------------------------------------------------------
                                 ORCA SCF
-------------------------------------------------------------------------------

------------
SCF SETTINGS
------------
Hamiltonian:
 Density Functional     Method          .... DFT(GTOs)
 Exchange Functional    Exchange        .... WB97X-D3
 Correlation Functional Correlation     .... WB97X-D3
 Gradients option       PostSCFGGA      .... off
 Hybrid DFT is turned on
   Fraction HF Exchange ScalHFX         ....  0.195728
   Scaling of DF-GGA-X  ScalDFX         ....  0.000000
   Scaling of DF-GGA-C  ScalDFC         ....  1.000000
   Scaling of DF-LDA-C  ScalLDAC        ....  1.000000
   Perturbative correction              ....  0.000000
   Density functional embedding theory  .... OFF
 Long-range corrected/Screened/Range-Separated Hybrid DFT is turned on
   Amount of maximum screened exact exchange              ....  0.804272
   Range separation parameter mu (erf(mu*r12)/r12)        ....  0.250000
 RI-approximation to the Coulomb term is turned on
   Number of AuxJ basis functions       .... 344
   RIJ-COSX (HFX calculated with COS-X)).... on


General Settings:
 Integral files         IntName         .... C1_wt_dlpno_pos
 Hartree-Fock type      HFTyp           .... RHF
 Total Charge           Charge          ....    0
 Multiplicity           Mult            ....    1
 Number of Electrons    NEL             ....   40
 Basis Dimension        Dim             ....  172
 Nuclear Repulsion      ENuc            ....    181.2013289389 Eh

Convergence Acceleration:
 DIIS                   CNVDIIS         .... on
   Start iteration      DIISMaxIt       ....    12
   Startup error        DIISStart       ....  0.200000
   # of expansion vecs  DIISMaxEq       ....     5
   Bias factor          DIISBfac        ....   1.050
   Max. coefficient     DIISMaxC        ....  10.000
 Trust-Rad. Augm. Hess. CNVTRAH         .... auto
   Auto Start mean grad. ratio tolernc. ....  1.125000
   Auto Start start iteration           ....    20
   Auto Start num. interpolation iter.  ....    10
   Max. Number of Micro iterations      ....    16
   Max. Number of Macro iterations      .... Maxiter - #DIIS iter
   Number of Davidson start vectors     ....     2
   Converg. threshold I  (grad. norm)   ....   1.000e-05
   Converg. threshold II (energy diff.) ....   1.000e-08
   Grad. Scal. Fac. for Micro threshold ....   0.100
   Minimum threshold for Micro iter.    ....   0.010
   NR start threshold (gradient norm)   ....   0.001
   Initial trust radius                 ....   0.400
   Minimum AH scaling param. (alpha)    ....   1.000
   Maximum AH scaling param. (alpha)    .... 1000.000
   Orbital update algorithm             .... Taylor
   White noise on init. David. guess    .... on
   Maximum white noise                  ....   0.010
   Quad. conv. algorithm                .... NR
 SOSCF                  CNVSOSCF        .... on
   Start iteration      SOSCFMaxIt      ....   150
   Startup grad/error   SOSCFStart      ....  0.003300
 Level Shifting         CNVShift        .... on
   Level shift para.    LevelShift      ....    0.2500
   Turn off err/grad.   ShiftErr        ....    0.0010
 Zerner damping         CNVZerner       .... off
 Static damping         CNVDamp         .... on
   Fraction old density DampFac         ....    0.7000
   Max. Damping (<1)    DampMax         ....    0.9800
   Min. Damping (>=0)   DampMin         ....    0.0000
   Turn off err/grad.   DampErr         ....    0.1000
 Fernandez-Rico         CNVRico         .... off

SCF Procedure:
 Maximum # iterations   MaxIter         ....   150
 SCF integral mode      SCFMode         .... Direct
   Integral package                     .... SHARK and LIBINT hybrid scheme
 Reset frequency        DirectResetFreq ....    20
 Integral Threshold     Thresh          ....  2.500e-11 Eh
 Primitive CutOff       TCut            ....  2.500e-12 Eh

Convergence Tolerance:
 Convergence Check Mode ConvCheckMode   .... Total+1el-Energy
 Convergence forced     ConvForced      .... 0
 Energy Change          TolE            ....  1.000e-08 Eh
 1-El. energy change                    ....  1.000e-05 Eh
 Orbital Gradient       TolG            ....  1.000e-05
 Orbital Rotation angle TolX            ....  1.000e-05
 DIIS Error             TolErr          ....  5.000e-07


Diagonalization of the overlap matrix:
Smallest eigenvalue                        ... 6.275e-05
Time for diagonalization                   ...    0.008 sec
Threshold for overlap eigenvalues          ... 1.000e-08
Number of eigenvalues below threshold      ... 0
Time for construction of square roots      ...    0.017 sec
Total time needed                          ...    0.026 sec

Time for model grid setup =    0.048 sec

------------------------------
INITIAL GUESS: MODEL POTENTIAL
------------------------------
Loading Hartree-Fock densities                     ... done
Calculating cut-offs                               ... done
Initializing the effective Hamiltonian             ... done
Setting up the integral package (SHARK)            ... done
Starting the Coulomb interaction                   ... done (   0.0 sec)
Reading the grid                                   ... done
Mapping shells                                     ... done
Starting the XC term evaluation                    ... done (   0.0 sec)
  promolecular density results
     # of electrons  =     39.994306993
     EX              =    -29.706350421
     EC              =     -1.298246672
     EX+EC           =    -31.004597093
Transforming the Hamiltonian                       ... done (   0.0 sec)
Diagonalizing the Hamiltonian                      ... done (   0.0 sec)
Back transforming the eigenvectors                 ... done (   0.0 sec)
Now organizing SCF variables                       ... done
                      ------------------
                      INITIAL GUESS DONE (   0.1 sec)
                      ------------------
-------------------
DFT GRID GENERATION
-------------------

General Integration Accuracy     IntAcc      ... 4.388
Radial Grid Type                 RadialGrid  ... OptM3 with GC (2021)
Angular Grid (max. ang.)         AngularGrid ... 4 (Lebedev-302)
Angular grid pruning method      GridPruning ... 4 (adaptive)
Weight generation scheme         WeightScheme... Becke
Basis function cutoff            BFCut       ... 1.0000e-11
Integration weight cutoff        WCut        ... 1.0000e-14
Angular grids for H and He will be reduced by one unit
Partially contracted basis set               ... off
Rotationally invariant grid construction     ... off

Total number of grid points                  ...    60893
Total number of batches                      ...      958
Average number of points per batch           ...       63
Average number of grid points per atom       ...     4350
Time for grid setup =    0.299 sec

--------------------
COSX GRID GENERATION
--------------------

GRIDX 1
-------
General Integration Accuracy     IntAcc      ... 3.816
Radial Grid Type                 RadialGrid  ... OptM3 with GC (2021)
Angular Grid (max. ang.)         AngularGrid ... 1 (Lebedev-50)
Angular grid pruning method      GridPruning ... 4 (adaptive)
Weight generation scheme         WeightScheme... Becke
Basis function cutoff            BFCut       ... 1.0000e-11
Integration weight cutoff        WCut        ... 1.0000e-14
Angular grids for H and He will be reduced by one unit
Partially contracted basis set               ... on
Rotationally invariant grid construction     ... off

Total number of grid points                  ...     7631
Total number of batches                      ...      128
Average number of points per batch           ...       59
Average number of grid points per atom       ...      545
UseSFitting                                  ... on

GRIDX 2
-------
General Integration Accuracy     IntAcc      ... 4.020
Radial Grid Type                 RadialGrid  ... OptM3 with GC (2021)
Angular Grid (max. ang.)         AngularGrid ... 2 (Lebedev-110)
Angular grid pruning method      GridPruning ... 4 (adaptive)
Weight generation scheme         WeightScheme... Becke
Basis function cutoff            BFCut       ... 1.0000e-11
Integration weight cutoff        WCut        ... 1.0000e-14
Angular grids for H and He will be reduced by one unit
Partially contracted basis set               ... on
Rotationally invariant grid construction     ... off

Total number of grid points                  ...    16722
Total number of batches                      ...      269
Average number of points per batch           ...       62
Average number of grid points per atom       ...     1194
UseSFitting                                  ... on

GRIDX 3
-------
General Integration Accuracy     IntAcc      ... 4.338
Radial Grid Type                 RadialGrid  ... OptM3 with GC (2021)
Angular Grid (max. ang.)         AngularGrid ... 3 (Lebedev-194)
Angular grid pruning method      GridPruning ... 4 (adaptive)
Weight generation scheme         WeightScheme... Becke
Basis function cutoff            BFCut       ... 1.0000e-11
Integration weight cutoff        WCut        ... 1.0000e-14
Angular grids for H and He will be reduced by one unit
Partially contracted basis set               ... on
Rotationally invariant grid construction     ... off

Total number of grid points                  ...    38339
Total number of batches                      ...      605
Average number of points per batch           ...       63
Average number of grid points per atom       ...     2738
UseSFitting                                  ... on

Time for X-Grid setup             =    0.214 sec

--------------
SCF ITERATIONS
--------------
ITER       Energy         Delta-E        Max-DP      RMS-DP      [F,P]     Damp
               ***  Starting incremental Fock matrix formation  ***
  0   -212.1260288322   0.000000000000 0.11038562  0.00370918  0.2062389 0.7000
  1   -212.2171518091  -0.091122976829 0.06909855  0.00254389  0.1270630 0.7000
                               ***Turning on DIIS***
  2   -212.2648904517  -0.047738642645 0.14562780  0.00517770  0.0676520 0.0000
  3   -212.3397685703  -0.074878118543 0.05479211  0.00164844  0.0511189 0.0000
  4   -212.3517209548  -0.011952384532 0.01052888  0.00032053  0.0091052 0.0000
  5   -212.3520362049  -0.000315250069 0.00348284  0.00010083  0.0034212 0.0000
                      *** Initiating the SOSCF procedure ***
                           *** Shutting down DIIS ***
                      *** Re-Reading the Fockian *** 
                      *** Removing any level shift *** 
ITER      Energy       Delta-E        Grad      Rot      Max-DP    RMS-DP
  6   -212.35207361  -0.0000374051  0.000468  0.000468  0.002311  0.000074
               *** Restarting incremental Fock matrix formation ***
  7   -212.35209609  -0.0000224848  0.000171  0.000423  0.004007  0.000081
  8   -212.35209696  -0.0000008674  0.000038  0.000265  0.002670  0.000048
  9   -212.35209711  -0.0000001461  0.000031  0.000028  0.000939  0.000024
 10   -212.35209717  -0.0000000638  0.000005  0.000010  0.000190  0.000004
                  ***Gradient check signals convergence***
              ***Rediagonalizing the Fockian in SOSCF/NRSCF***

               *****************************************************
               *                     SUCCESS                       *
               *           SCF CONVERGED AFTER  11 CYCLES          *
               *****************************************************

Old exchange energy                            =    -10.260144824 Eh
New exchange energy                            =    -10.260128280 Eh
Exchange energy change after final integration =      0.000016544 Eh
Total energy after final integration           =   -212.352080630 Eh
Final COS-X integration done in                =     1.001 sec

----------------
TOTAL SCF ENERGY
----------------

Total Energy       :         -212.35208063 Eh           -5778.39388 eV

Components:
Nuclear Repulsion  :          181.20132894 Eh            4930.73883 eV
Electronic Energy  :         -393.55340957 Eh          -10709.13272 eV
One Electron Energy:         -643.53173518 Eh          -17511.38878 eV
Two Electron Energy:          249.97832561 Eh            6802.25606 eV
Max COSX asymmetry :            0.00000348 Eh               0.00009 eV

Virial components:
Potential Energy   :         -422.60859472 Eh          -11499.76450 eV
Kinetic Energy     :          210.25651409 Eh            5721.37062 eV
Virial Ratio       :            2.00996671


DFT components:
N(Alpha)           :       20.000012316703 electrons
N(Beta)            :       20.000012316703 electrons
N(Total)           :       40.000024633406 electrons
E(XC)              :      -21.737070426018 Eh       
DFET-embed. en.    :        0.000000000000 Eh       

---------------
SCF CONVERGENCE
---------------

  Last Energy change         ...   -1.1987e-09  Tolerance :   1.0000e-08
  Last MAX-Density change    ...    6.2172e-15  Tolerance :   1.0000e-07
  Last RMS-Density change    ...    5.1719e-17  Tolerance :   5.0000e-09
  Last Orbital Gradient      ...    1.4284e-06  Tolerance :   1.0000e-05
  Last Orbital Rotation      ...    4.3813e-06  Tolerance :   1.0000e-05

             **** THE GBW FILE WAS UPDATED (C1_wt_dlpno_pos.gbw) ****
             **** DENSITY C1_wt_dlpno_pos.scfp WAS UPDATED ****
             **** ENERGY FILE WAS UPDATED (C1_wt_dlpno_pos.en.tmp) ****
             **** THE GBW FILE WAS UPDATED (C1_wt_dlpno_pos.gbw) ****
             **** DENSITY C1_wt_dlpno_pos.scfp WAS UPDATED ****
----------------
ORBITAL ENERGIES
----------------

  NO   OCC          E(Eh)            E(eV) 
   0   2.0000     -14.446003      -393.0957 
   1   2.0000     -10.313043      -280.6322 
   2   2.0000     -10.289013      -279.9783 
   3   2.0000     -10.278939      -279.7042 
   4   2.0000     -10.216582      -278.0073 
   5   2.0000      -1.043889       -28.4057 
   6   2.0000      -0.888253       -24.1706 
   7   2.0000      -0.826444       -22.4887 
   8   2.0000      -0.737613       -20.0715 
   9   2.0000      -0.687518       -18.7083 
  10   2.0000      -0.620629       -16.8882 
  11   2.0000      -0.575139       -15.6503 
  12   2.0000      -0.544246       -14.8097 
  13   2.0000      -0.522163       -14.2088 
  14   2.0000      -0.490526       -13.3479 
  15   2.0000      -0.480424       -13.0730 
  16   2.0000      -0.453725       -12.3465 
  17   2.0000      -0.430566       -11.7163 
  18   2.0000      -0.423587       -11.5264 
  19   2.0000      -0.273178        -7.4336 
  20   0.0000       0.086581         2.3560 
  21   0.0000       0.115934         3.1547 
  22   0.0000       0.120268         3.2727 
  23   0.0000       0.130532         3.5520 
  24   0.0000       0.145941         3.9713 
  25   0.0000       0.158776         4.3205 
  26   0.0000       0.172355         4.6900 
  27   0.0000       0.182790         4.9740 
  28   0.0000       0.197127         5.3641 
  29   0.0000       0.221465         6.0264 
  30   0.0000       0.223229         6.0744 
  31   0.0000       0.226572         6.1653 
  32   0.0000       0.236012         6.4222 
  33   0.0000       0.249726         6.7954 
  34   0.0000       0.268033         7.2935 
  35   0.0000       0.272642         7.4190 
  36   0.0000       0.273719         7.4483 
  37   0.0000       0.276898         7.5348 
  38   0.0000       0.307978         8.3805 
  39   0.0000       0.319949         8.7063 
  40   0.0000       0.329094         8.9551 
  41   0.0000       0.352418         9.5898 
  42   0.0000       0.359115         9.7720 
  43   0.0000       0.370918        10.0932 
  44   0.0000       0.373854        10.1731 
  45   0.0000       0.384691        10.4680 
  46   0.0000       0.396722        10.7953 
  47   0.0000       0.399888        10.8815 
  48   0.0000       0.403483        10.9793 
  49   0.0000       0.408229        11.1085 
  50   0.0000       0.417218        11.3531 
  51   0.0000       0.432575        11.7710 
  52   0.0000       0.439473        11.9587 
  53   0.0000       0.440077        11.9751 
  54   0.0000       0.444850        12.1050 
  55   0.0000       0.456825        12.4308 
  56   0.0000       0.470600        12.8057 
  57   0.0000       0.479603        13.0507 
  58   0.0000       0.480239        13.0680 
  59   0.0000       0.499563        13.5938 
  60   0.0000       0.506328        13.7779 
  61   0.0000       0.512819        13.9545 
  62   0.0000       0.520983        14.1767 
  63   0.0000       0.528156        14.3719 
  64   0.0000       0.539157        14.6712 
  65   0.0000       0.543679        14.7943 
  66   0.0000       0.551396        15.0042 
  67   0.0000       0.562723        15.3125 
  68   0.0000       0.572461        15.5775 
  69   0.0000       0.581029        15.8106 
  70   0.0000       0.592648        16.1268 
  71   0.0000       0.598260        16.2795 
  72   0.0000       0.606029        16.4909 
  73   0.0000       0.621293        16.9063 
  74   0.0000       0.627839        17.0844 
  75   0.0000       0.635910        17.3040 
  76   0.0000       0.643856        17.5202 
  77   0.0000       0.650999        17.7146 
  78   0.0000       0.658295        17.9131 
  79   0.0000       0.678494        18.4628 
  80   0.0000       0.700992        19.0750 
  81   0.0000       0.708958        19.2917 
  82   0.0000       0.719352        19.5746 
  83   0.0000       0.738334        20.0911 
  84   0.0000       0.765886        20.8408 
  85   0.0000       0.771858        21.0033 
  86   0.0000       0.783688        21.3252 
  87   0.0000       0.789470        21.4826 
  88   0.0000       0.810191        22.0464 
  89   0.0000       0.837858        22.7993 
  90   0.0000       0.868149        23.6235 
  91   0.0000       0.968511        26.3545 
  92   0.0000       1.006733        27.3946 
  93   0.0000       1.025245        27.8983 
  94   0.0000       1.037035        28.2192 
  95   0.0000       1.061329        28.8802 
  96   0.0000       1.076796        29.3011 
  97   0.0000       1.089503        29.6469 
  98   0.0000       1.097192        29.8561 
  99   0.0000       1.108242        30.1568 
 100   0.0000       1.127311        30.6757 
 101   0.0000       1.150295        31.3011 
 102   0.0000       1.167032        31.7566 
 103   0.0000       1.190185        32.3866 
 104   0.0000       1.210378        32.9361 
 105   0.0000       1.225366        33.3439 
 106   0.0000       1.258167        34.2365 
 107   0.0000       1.263366        34.3779 
 108   0.0000       1.301277        35.4095 
 109   0.0000       1.320651        35.9367 
 110   0.0000       1.364418        37.1277 
 111   0.0000       1.372641        37.3515 
 112   0.0000       1.388800        37.7912 
 113   0.0000       1.405049        38.2333 
 114   0.0000       1.415418        38.5155 
 115   0.0000       1.526743        41.5448 
 116   0.0000       1.616479        43.9866 
 117   0.0000       1.641368        44.6639 
 118   0.0000       1.653820        45.0027 
 119   0.0000       1.682181        45.7745 
 120   0.0000       1.693925        46.0941 
 121   0.0000       1.741590        47.3911 
 122   0.0000       1.766935        48.0808 
 123   0.0000       1.776887        48.3515 
 124   0.0000       1.833612        49.8951 
 125   0.0000       1.871114        50.9156 
 126   0.0000       1.902612        51.7727 
 127   0.0000       1.923799        52.3492 
 128   0.0000       1.939632        52.7801 
 129   0.0000       1.972359        53.6706 
 130   0.0000       1.993644        54.2498 
 131   0.0000       1.997138        54.3449 
 132   0.0000       2.030848        55.2622 
 133   0.0000       2.039222        55.4901 
 134   0.0000       2.059935        56.0537 
 135   0.0000       2.110009        57.4163 
 136   0.0000       2.118649        57.6514 
 137   0.0000       2.131802        58.0093 
 138   0.0000       2.163309        58.8666 
 139   0.0000       2.182962        59.4014 
 140   0.0000       2.205624        60.0181 
 141   0.0000       2.239370        60.9364 
 142   0.0000       2.288969        62.2860 
 143   0.0000       2.296406        62.4884 
 144   0.0000       2.341968        63.7282 
 145   0.0000       2.368942        64.4622 
 146   0.0000       2.395548        65.1862 
 147   0.0000       2.477350        67.4121 
 148   0.0000       2.502560        68.0981 
 149   0.0000       2.520122        68.5760 
 150   0.0000       2.534520        68.9678 
 151   0.0000       2.574430        70.0538 
 152   0.0000       2.632802        71.6422 
 153   0.0000       2.682404        72.9919 
 154   0.0000       2.696497        73.3754 
 155   0.0000       2.714008        73.8519 
 156   0.0000       2.760391        75.1141 
 157   0.0000       2.809657        76.4546 
 158   0.0000       2.830361        77.0180 
 159   0.0000       2.908282        79.1384 
 160   0.0000       2.960846        80.5687 
 161   0.0000       3.052296        83.0572 
 162   0.0000       3.113841        84.7319 
 163   0.0000       3.163244        86.0763 
 164   0.0000       3.191841        86.8544 
 165   0.0000       3.258056        88.6562 
 166   0.0000       3.282548        89.3227 
 167   0.0000       3.326266        90.5123 
 168   0.0000       3.388264        92.1994 
 169   0.0000       3.448242        93.8314 
 170   0.0000       3.627203        98.7012 
 171   0.0000       3.856068       104.9289 

                    ********************************
                    * MULLIKEN POPULATION ANALYSIS *
                    ********************************

-----------------------
MULLIKEN ATOMIC CHARGES
-----------------------
   0 C :   -0.174279
   1 C :   -0.079273
   2 C :    0.533397
   3 N :    0.165902
   4 H :   -0.082003
   5 H :   -0.220039
   6 H :   -0.214019
   7 H :   -0.451525
   8 C :    0.658023
   9 H :   -0.050907
  10 H :    0.119221
  11 H :   -0.156630
  12 H :   -0.039615
  13 H :   -0.008253
Sum of atomic charges:   -0.0000000

--------------------------------
MULLIKEN REDUCED ORBITAL CHARGES
--------------------------------
  0 C s       :     2.811341  s :     2.811341
      pz      :     1.038240  p :     2.991901
      px      :     0.998030
      py      :     0.955631
      dz2     :     0.172250  d :     0.371038
      dxz     :     0.037367
      dyz     :     0.056487
      dx2y2   :     0.088441
      dxy     :     0.016493
  1 C s       :     2.933550  s :     2.933550
      pz      :     0.876984  p :     2.547536
      px      :     0.740921
      py      :     0.929631
      dz2     :     0.072619  d :     0.598186
      dxz     :     0.093422
      dyz     :     0.078403
      dx2y2   :     0.417841
      dxy     :    -0.064099
  2 C s       :     2.996424  s :     2.996424
      pz      :     1.058332  p :     2.460015
      px      :     0.742869
      py      :     0.658815
      dz2     :    -0.001777  d :     0.010163
      dxz     :     0.000814
      dyz     :     0.010884
      dx2y2   :     0.010045
      dxy     :    -0.009803
  3 N s       :     3.150750  s :     3.150750
      pz      :     1.641255  p :     3.688043
      px      :     1.066331
      py      :     0.980457
      dz2     :     0.005054  d :    -0.004695
      dxz     :     0.000009
      dyz     :     0.015960
      dx2y2   :    -0.001090
      dxy     :    -0.024628
  4 H s       :     1.024373  s :     1.024373
      pz      :     0.064515  p :     0.057630
      px      :    -0.022585
      py      :     0.015700
  5 H s       :     1.185517  s :     1.185517
      pz      :     0.061842  p :     0.034522
      px      :    -0.024040
      py      :    -0.003279
  6 H s       :     1.204578  s :     1.204578
      pz      :     0.044484  p :     0.009441
      px      :    -0.051402
      py      :     0.016360
  7 H s       :     1.417056  s :     1.417056
      pz      :     0.044453  p :     0.034469
      px      :     0.017705
      py      :    -0.027689
  8 C s       :     2.430305  s :     2.430305
      pz      :     0.974214  p :     2.805615
      px      :     0.902639
      py      :     0.928762
      dz2     :     0.060690  d :     0.106058
      dxz     :    -0.003845
      dyz     :     0.025895
      dx2y2   :     0.009662
      dxy     :     0.013655
  9 H s       :     0.988304  s :     0.988304
      pz      :     0.048689  p :     0.062603
      px      :     0.013137
      py      :     0.000777
 10 H s       :     0.810972  s :     0.810972
      pz      :    -0.009958  p :     0.069807
      px      :     0.014820
      py      :     0.064945
 11 H s       :     1.071373  s :     1.071373
      pz      :     0.005420  p :     0.085257
      px      :    -0.004373
      py      :     0.084210
 12 H s       :     0.992262  s :     0.992262
      pz      :     0.045412  p :     0.047353
      px      :     0.014428
      py      :    -0.012487
 13 H s       :     0.984633  s :     0.984633
      pz      :    -0.005182  p :     0.023620
      px      :     0.024477
      py      :     0.004326


                     *******************************
                     * LOEWDIN POPULATION ANALYSIS *
                     *******************************

----------------------
LOEWDIN ATOMIC CHARGES
----------------------
   0 C :   -0.031531
   1 C :   -0.267289
   2 C :    0.171693
   3 N :    0.140778
   4 H :    0.043183
   5 H :    0.012760
   6 H :   -0.092798
   7 H :   -0.091484
   8 C :    0.121907
   9 H :    0.028928
  10 H :    0.024980
  11 H :   -0.036668
  12 H :   -0.008997
  13 H :   -0.015462

-------------------------------
LOEWDIN REDUCED ORBITAL CHARGES
-------------------------------
  0 C s       :     2.686469  s :     2.686469
      pz      :     0.910640  p :     2.699105
      px      :     0.883833
      py      :     0.904633
      dz2     :     0.153862  d :     0.645957
      dxz     :     0.165619
      dyz     :     0.064589
      dx2y2   :     0.160063
      dxy     :     0.101824
  1 C s       :     2.660151  s :     2.660151
      pz      :     0.726990  p :     2.571872
      px      :     0.939260
      py      :     0.905622
      dz2     :     0.087181  d :     1.035267
      dxz     :     0.153002
      dyz     :     0.228723
      dx2y2   :     0.296716
      dxy     :     0.269645
  2 C s       :     2.728239  s :     2.728239
      pz      :     0.906170  p :     2.774040
      px      :     0.935903
      py      :     0.931967
      dz2     :     0.036233  d :     0.326029
      dxz     :     0.032074
      dyz     :     0.029414
      dx2y2   :     0.142209
      dxy     :     0.086098
  3 N s       :     2.925536  s :     2.925536
      pz      :     1.394013  p :     3.542188
      px      :     1.062019
      py      :     1.086156
      dz2     :     0.034631  d :     0.391498
      dxz     :     0.007331
      dyz     :     0.091117
      dx2y2   :     0.084637
      dxy     :     0.173782
  4 H s       :     0.636777  s :     0.636777
      pz      :     0.110392  p :     0.320039
      px      :     0.120586
      py      :     0.089061
  5 H s       :     0.655808  s :     0.655808
      pz      :     0.110110  p :     0.331432
      px      :     0.139139
      py      :     0.082183
  6 H s       :     0.768010  s :     0.768010
      pz      :     0.112075  p :     0.324788
      px      :     0.084610
      py      :     0.128102
  7 H s       :     0.777503  s :     0.777503
      pz      :     0.107426  p :     0.313981
      px      :     0.117392
      py      :     0.089162
  8 C s       :     2.701552  s :     2.701552
      pz      :     0.922960  p :     2.772393
      px      :     0.922765
      py      :     0.926669
      dz2     :     0.133766  d :     0.404148
      dxz     :     0.069907
      dyz     :     0.051704
      dx2y2   :     0.091225
      dxy     :     0.057546
  9 H s       :     0.727150  s :     0.727150
      pz      :     0.103616  p :     0.243922
      px      :     0.072969
      py      :     0.067337
 10 H s       :     0.719132  s :     0.719132
      pz      :     0.065205  p :     0.255888
      px      :     0.070665
      py      :     0.120019
 11 H s       :     0.742456  s :     0.742456
      pz      :     0.074436  p :     0.294213
      px      :     0.084889
      py      :     0.134887
 12 H s       :     0.741978  s :     0.741978
      pz      :     0.109976  p :     0.267019
      px      :     0.083710
      py      :     0.073332
 13 H s       :     0.743837  s :     0.743837
      pz      :     0.070566  p :     0.271626
      px      :     0.118459
      py      :     0.082600


                      *****************************
                      * MAYER POPULATION ANALYSIS *
                      *****************************

  NA   - Mulliken gross atomic population
  ZA   - Total nuclear charge
  QA   - Mulliken gross atomic charge
  VA   - Mayer's total valence
  BVA  - Mayer's bonded valence
  FA   - Mayer's free valence

  ATOM       NA         ZA         QA         VA         BVA        FA
  0 C      6.1743     6.0000    -0.1743     4.7620     4.7620    -0.0000
  1 C      6.0793     6.0000    -0.0793     4.3657     4.3657    -0.0000
  2 C      5.4666     6.0000     0.5334     3.7009     3.7009    -0.0000
  3 N      6.8341     7.0000     0.1659     4.0386     4.0386    -0.0000
  4 H      1.0820     1.0000    -0.0820     1.0181     1.0181    -0.0000
  5 H      1.2200     1.0000    -0.2200     0.9245     0.9245    -0.0000
  6 H      1.2140     1.0000    -0.2140     0.9400     0.9400    -0.0000
  7 H      1.4515     1.0000    -0.4515     0.9073     0.9073    -0.0000
  8 C      5.3420     6.0000     0.6580     3.8810     3.8810    -0.0000
  9 H      1.0509     1.0000    -0.0509     1.2057     1.2057    -0.0000
 10 H      0.8808     1.0000     0.1192     1.0754     1.0754    -0.0000
 11 H      1.1566     1.0000    -0.1566     1.1571     1.1571     0.0000
 12 H      1.0396     1.0000    -0.0396     1.0918     1.0918    -0.0000
 13 H      1.0083     1.0000    -0.0083     1.0250     1.0250     0.0000

  Mayer bond orders larger than 0.100000
B(  0-C ,  1-C ) :   1.1106 B(  0-C ,  8-C ) :   1.2574 B(  0-C ,  9-H ) :   0.8531 
B(  0-C , 10-H ) :   0.8788 B(  0-C , 11-H ) :   0.1934 B(  0-C , 12-H ) :   0.1861 
B(  0-C , 13-H ) :   0.1819 B(  1-C ,  2-C ) :   1.7031 B(  1-C ,  3-N ) :   1.2183 
B(  1-C ,  5-H ) :  -0.1071 B(  1-C ,  7-H ) :   0.2036 B(  1-C ,  9-H ) :   0.2044 
B(  2-C ,  3-N ) :   0.2262 B(  2-C ,  6-H ) :   1.0489 B(  2-C ,  7-H ) :   0.6696 
B(  3-N ,  4-H ) :   1.1814 B(  3-N ,  5-H ) :   1.2440 B(  4-H ,  5-H ) :  -0.1533 
B(  8-C , 10-H ) :   0.1036 B(  8-C , 11-H ) :   0.8334 B(  8-C , 12-H ) :   0.7951 
B(  8-C , 13-H ) :   0.8068 

-------
TIMINGS
-------

Total SCF time: 0 days 0 hours 0 min 7 sec 

Total time                  ....       7.882 sec
Sum of individual times     ....       7.416 sec  ( 94.1%)

Fock matrix formation       ....       6.659 sec  ( 84.5%)
  Split-RI-J                ....       0.514 sec  (  7.7% of F)
  Chain of spheres X        ....       4.976 sec  ( 74.7% of F)
  XC integration            ....       0.897 sec  ( 13.5% of F)
    Basis function eval.    ....       0.244 sec  ( 27.1% of XC)
    Density eval.           ....       0.167 sec  ( 18.7% of XC)
    XC-Functional eval.     ....       0.069 sec  (  7.7% of XC)
    XC-Potential eval.      ....       0.220 sec  ( 24.5% of XC)
Diagonalization             ....       0.059 sec  (  0.8%)
Density matrix formation    ....       0.007 sec  (  0.1%)
Population analysis         ....       0.008 sec  (  0.1%)
Initial guess               ....       0.048 sec  (  0.6%)
Orbital Transformation      ....       0.000 sec  (  0.0%)
Orbital Orthonormalization  ....       0.000 sec  (  0.0%)
DIIS solution               ....       0.043 sec  (  0.5%)
SOSCF solution              ....       0.031 sec  (  0.4%)
Grid generation             ....       0.561 sec  (  7.1%)

Maximum memory used throughout the entire SCF-calculation: 51.5 MB


-------------------------------------------------------------------------------
                          DFT DISPERSION CORRECTION                            
                                                                               
                              DFTD3 V3.1  Rev 1                                
                              USING zero damping                               
-------------------------------------------------------------------------------
The omegaB97X-D3 functional is recognized. Fit by Chai et al.
Active option DFTDOPT                   ...         3   

molecular C6(AA) [au] = 1468.950823 


            DFT-D V3
 parameters
 s6 scaling factor         :     1.0000 
 rs6 scaling factor        :     1.2810 
 s8 scaling factor         :     1.0000 
 rs8 scaling factor        :     1.0940 
 Damping factor alpha6     :    14.0000 
 Damping factor alpha8     :    16.0000 
 ad hoc parameters k1-k3   :    16.0000     1.3333    -4.0000 

 Edisp/kcal,au: -1.835279577785  -0.002924703862 
 E6   /kcal   :  -0.735290772 
 E8   /kcal   :  -1.099988806 
 % E8         :  59.935762314 

-------------------------   ----------------
Dispersion correction           -0.002924704
-------------------------   ----------------


-------------------------   --------------------
FINAL SINGLE POINT ENERGY      -212.355005333426
-------------------------   --------------------


                            ***************************************
                            *     ORCA property calculations      *
                            ***************************************

                                    ---------------------
                                    Active property flags
                                    ---------------------
   (+) Dipole Moment


------------------------------------------------------------------------------
                       ORCA ELECTRIC PROPERTIES CALCULATION
------------------------------------------------------------------------------

Dipole Moment Calculation                       ... on
Quadrupole Moment Calculation                   ... off
Polarizability Calculation                      ... off
GBWName                                         ... C1_wt_dlpno_pos.gbw
Electron density file                           ... C1_wt_dlpno_pos.scfp
The origin for moment calculation is the CENTER OF MASS  = ( 8.855152, -4.891296 -11.425927)

-------------
DIPOLE MOMENT
-------------
                                X             Y             Z
Electronic contribution:     -2.02838      -1.06204      -1.02432
Nuclear contribution   :      2.41345       0.31141       1.16343
                        -----------------------------------------
Total Dipole Moment    :      0.38508      -0.75062       0.13912
                        -----------------------------------------
Magnitude (a.u.)       :      0.85503
Magnitude (Debye)      :      2.17331



--------------------
Rotational spectrum 
--------------------
 
Rotational constants in cm-1:     0.287957     0.129204     0.097498 
Rotational constants in MHz :  8632.737925  3873.424745  2922.919500 

 Dipole components along the rotational axes: 
x,y,z [a.u.] :     0.376207    -0.763161     0.084417 
x,y,z [Debye]:     0.956243    -1.939800     0.214572 

 

Timings for individual modules:

Sum of individual times         ...        8.931 sec (=   0.149 min)
GTO integral calculation        ...        0.608 sec (=   0.010 min)   6.8 %
SCF iterations                  ...        8.323 sec (=   0.139 min)  93.2 %
                             ****ORCA TERMINATED NORMALLY****
TOTAL RUN TIME: 0 days 0 hours 0 minutes 9 seconds 484 msec
