
                                        *****************
                                        * O   R   C   A *
                                        *****************

                                            #,                                       
                                            ###                                      
                                            ####                                     
                                            #####                                    
                                            ######                                   
                                           ########,                                 
                                     ,,################,,,,,                         
                               ,,#################################,,                 
                          ,,##########################################,,             
                       ,#########################################, ''#####,          
                    ,#############################################,,   '####,        
                  ,##################################################,,,,####,       
                ,###########''''           ''''###############################       
              ,#####''   ,,,,##########,,,,          '''####'''          '####       
            ,##' ,,,,###########################,,,                        '##       
           ' ,,###''''                  '''############,,,                           
         ,,##''                                '''############,,,,        ,,,,,,###''
      ,#''                                            '''#######################'''  
     '                                                          ''''####''''         
             ,#######,   #######,   ,#######,      ##                                
            ,#'     '#,  ##    ##  ,#'     '#,    #''#        ######   ,####,        
            ##       ##  ##   ,#'  ##            #'  '#       #        #'  '#        
            ##       ##  #######   ##           ,######,      #####,   #    #        
            '#,     ,#'  ##    ##  '#,     ,#' ,#      #,         ##   #,  ,#        
             '#######'   ##     ##  '#######'  #'      '#     #####' # '####'        



                  #######################################################
                  #                        -***-                        #
                  #          Department of theory and spectroscopy      #
                  #    Directorship and core code : Frank Neese         #
                  #        Max Planck Institute fuer Kohlenforschung    #
                  #                Kaiser Wilhelm Platz 1               #
                  #                 D-45470 Muelheim/Ruhr               #
                  #                      Germany                        #
                  #                                                     #
                  #                  All rights reserved                #
                  #                        -***-                        #
                  #######################################################


                         Program Version 5.0.0 -  RELEASE  -
                                (SVN: $Rev: 19529$)
                ($Date: 2021-06-28 11:36:33 +0200 (Mo, 28 Jun 2021) $)


 With contributions from (in alphabetic order):
   Daniel Aravena         : Magnetic Suceptibility
   Michael Atanasov       : Ab Initio Ligand Field Theory (pilot matlab implementation)
   Alexander A. Auer      : GIAO ZORA, VPT2 properties, NMR spectrum
   Ute Becker             : Parallelization
   Giovanni Bistoni       : ED, misc. LED, open-shell LED, HFLD
   Martin Brehm           : Molecular dynamics
   Dmytro Bykov           : SCF Hessian
   Vijay G. Chilkuri      : MRCI spin determinant printing, contributions to CSF-ICE
   Dipayan Datta          : RHF DLPNO-CCSD density
   Achintya Kumar Dutta   : EOM-CC, STEOM-CC
   Dmitry Ganyushin       : Spin-Orbit,Spin-Spin,Magnetic field MRCI
   Miquel Garcia          : C-PCM Hessian, Gaussian charge scheme
   Yang Guo               : DLPNO-NEVPT2, F12-NEVPT2, CIM, IAO-localization
   Andreas Hansen         : Spin unrestricted coupled pair/coupled cluster methods
   Benjamin Helmich-Paris : MC-RPA, TRAH-SCF, COSX integrals
   Lee Huntington         : MR-EOM, pCC
   Robert Izsak           : Overlap fitted RIJCOSX, COSX-SCS-MP3, EOM
   Marcus Kettner         : VPT2
   Christian Kollmar      : KDIIS, OOCD, Brueckner-CCSD(T), CCSD density, CASPT2, CASPT2-K
   Simone Kossmann        : Meta GGA functionals, TD-DFT gradient, OOMP2, MP2 Hessian
   Martin Krupicka        : Initial AUTO-CI
   Lucas Lang             : DCDCAS
   Marvin Lechner         : AUTO-CI (C++ implementation), FIC-MRCC
   Dagmar Lenk            : GEPOL surface, SMD
   Dimitrios Liakos       : Extrapolation schemes; Compound Job, initial MDCI parallelization
   Dimitrios Manganas     : Further ROCIS development; embedding schemes
   Dimitrios Pantazis     : SARC Basis sets
   Anastasios Papadopoulos: AUTO-CI, single reference methods and gradients
   Taras Petrenko         : DFT Hessian,TD-DFT gradient, ASA, ECA, R-Raman, ABS, FL, XAS/XES, NRVS
   Peter Pinski           : DLPNO-MP2, DLPNO-MP2 Gradient
   Christoph Reimann      : Effective Core Potentials
   Marius Retegan         : Local ZFS, SOC
   Christoph Riplinger    : Optimizer, TS searches, QM/MM, DLPNO-CCSD(T), (RO)-DLPNO pert. Triples
   Tobias Risthaus        : Range-separated hybrids, TD-DFT gradient, RPA, STAB
   Michael Roemelt        : Original ROCIS implementation
   Masaaki Saitow         : Open-shell DLPNO-CCSD energy and density
   Barbara Sandhoefer     : DKH picture change effects
   Avijit Sen             : IP-ROCIS
   Kantharuban Sivalingam : CASSCF convergence, NEVPT2, FIC-MRCI
   Bernardo de Souza      : ESD, SOC TD-DFT
   Georgi Stoychev        : AutoAux, RI-MP2 NMR
   Willem Van den Heuvel  : Paramagnetic NMR
   Boris Wezisla          : Elementary symmetry handling
   Frank Wennmohs         : Technical directorship


 We gratefully acknowledge several colleagues who have allowed us to
 interface, adapt or use parts of their codes:
   Stefan Grimme, W. Hujo, H. Kruse, P. Pracht,  : VdW corrections, initial TS optimization,
                  C. Bannwarth, S. Ehlert          DFT functionals, gCP, sTDA/sTD-DF
   Ed Valeev, F. Pavosevic, A. Kumar             : LibInt (2-el integral package), F12 methods
   Garnet Chan, S. Sharma, J. Yang, R. Olivares  : DMRG
   Ulf Ekstrom                                   : XCFun DFT Library
   Mihaly Kallay                                 : mrcc  (arbitrary order and MRCC methods)
   Jiri Pittner, Ondrej Demel                    : Mk-CCSD
   Frank Weinhold                                : gennbo (NPA and NBO analysis)
   Christopher J. Cramer and Donald G. Truhlar   : smd solvation model
   Lars Goerigk                                  : TD-DFT with DH, B97 family of functionals
   V. Asgeirsson, H. Jonsson                     : NEB implementation
   FAccTs GmbH                                   : IRC, NEB, NEB-TS, DLPNO-Multilevel, CI-OPT
                                                   MM, QMMM, 2- and 3-layer-ONIOM, Crystal-QMMM,
                                                   LR-CPCM, SF, NACMEs, symmetry and pop. for TD-DFT,
                                                   nearIR, NL-DFT gradient (VV10), updates on ESD,
                                                   ML-optimized integration grids
   S Lehtola, MJT Oliveira, MAL Marques          : LibXC Library
   Liviu Ungur et al                             : ANISO software


 Your calculation uses the libint2 library for the computation of 2-el integrals
 For citations please refer to: http://libint.valeyev.net

 Your ORCA version has been built with support for libXC version: 5.1.0
 For citations please refer to: https://tddft.org/programs/libxc/

 This ORCA versions uses:
   CBLAS   interface :  Fast vector & matrix operations
   LAPACKE interface :  Fast linear algebra routines
   SCALAPACK package :  Parallel linear algebra routines
   Shared memory     :  Shared parallel matrices
   BLAS/LAPACK       :  OpenBLAS 0.3.15  USE64BITINT DYNAMIC_ARCH NO_AFFINITY Haswell SINGLE_THREADED
        Core in use  :  Haswell
   Copyright (c) 2011-2014, The OpenBLAS Project




***************************************
The coordinates will be read from file: B.xyz
***************************************


Your calculation utilizes the atom-pairwise dispersion correction
with the Becke-Johnson damping scheme (D3BJ)
Cite in your paper:
S.Grimme, S.Ehrlich, L.Goerigk, J Comput Chem, (2011), 32, 1456–1465 
S.Grimme, J.Antony, S.Ehrlich and H.Krieg, J.Chem.Phys., 132, (2010), 154104 
   

================================================================================

----- Orbital basis set information -----
Your calculation utilizes the basis: def2-SVPD
   F. Weigend and R. Ahlrichs, Phys. Chem. Chem. Phys. 7, 3297 (2005).
   D. Rappoport and F. Furche, J. Chem. Phys. 133 134105 (2010).

----- AuxJ basis set information -----
Your calculation utilizes the auxiliary basis: def2/J
   F. Weigend, Phys. Chem. Chem. Phys. 8, 1057 (2006).

================================================================================
                                        WARNINGS
                       Please study these warnings very carefully!
================================================================================



WARNING: Found flag for RIJCOSX approximation but no HF exchange needed!
  ===> : RIJCOSX  will be disabled and Split-RI-J is turned on

INFO   : the flag for use of the SHARK integral package has been found!

================================================================================
                                       INPUT FILE
================================================================================
NAME = 28Oct_SVPD_BLYP_B_wt_wb97.com
|  1> !BLYP D3BJ RIJCOSX def2-SVPD def2/J TightSCF xyzfile                                                                                         
|  2> 
|  3> *xyzfile 0 1 B.xyz
|  4> 
|  5> %MaxCore 64000
|  6> 
|  7> %pal nprocs 4                                                                                                                                                  
|  8> end  
|  9> 
| 10> %scf
| 11>   MaxIter 150
| 12> end
| 13> 
| 14> 
| 15>                          ****END OF INPUT****
================================================================================

                       ****************************
                       * Single Point Calculation *
                       ****************************

---------------------------------
CARTESIAN COORDINATES (ANGSTROEM)
---------------------------------
  C     -0.461293    2.234686   -4.989619
  C      0.848883    2.667967   -4.302351
  C      2.093434    1.861037   -4.656845
  H      2.444814    2.041567   -5.674990
  H      2.901748    2.137864   -3.980338
  S      1.879644    0.078594   -4.462965
  C     -0.423841    2.398772   -6.474317
  N     -0.959467    3.492647   -7.007401
  N      0.145585    1.486891   -7.203987
  H      0.565371    0.696807   -6.723858
  H      0.220682    1.581768   -8.207520
  H     -1.406243    4.181507   -6.403261
  H     -0.934215    3.681601   -7.999468
  O      3.207574   -0.466111   -4.420259
  O      1.075064   -0.056160   -3.268758
  O      1.131661   -0.319960   -5.679031
  H      0.668432    2.559427   -3.232850
  H      1.034074    3.729426   -4.497081
  H     -1.288884    2.826737   -4.594997
  H     -0.651696    1.186343   -4.756552

----------------------------
CARTESIAN COORDINATES (A.U.)
----------------------------
  NO LB      ZA    FRAG     MASS         X           Y           Z
   0 C     6.0000    0    12.011   -0.871717    4.222944   -9.429013
   1 C     6.0000    0    12.011    1.604156    5.041727   -8.130266
   2 C     6.0000    0    12.011    3.956017    3.516850   -8.800161
   3 H     1.0000    0     1.008    4.620028    3.858002  -10.724178
   4 H     1.0000    0     1.008    5.483509    4.039977   -7.521748
   5 S    16.0000    0    32.060    3.552012    0.148521   -8.433782
   6 C     6.0000    0    12.011   -0.800943    4.533022  -12.234685
   7 N     7.0000    0    14.007   -1.813129    6.600147  -13.242068
   8 N     7.0000    0    14.007    0.275115    2.809816  -13.613563
   9 H     1.0000    0     1.008    1.068396    1.316775  -12.706251
  10 H     1.0000    0     1.008    0.417028    2.989109  -15.509964
  11 H     1.0000    0     1.008   -2.657413    7.901902  -12.100409
  12 H     1.0000    0     1.008   -1.765410    6.957218  -15.116805
  13 O     8.0000    0    15.999    6.061437   -0.880823   -8.353079
  14 O     8.0000    0    15.999    2.031576   -0.106127   -6.177057
  15 O     8.0000    0    15.999    2.138530   -0.604636  -10.731813
  16 H     1.0000    0     1.008    1.263154    4.836616   -6.109201
  17 H     1.0000    0     1.008    1.954117    7.047595   -8.498252
  18 H     1.0000    0     1.008   -2.435638    5.341759   -8.683286
  19 H     1.0000    0     1.008   -1.231526    2.241864   -8.988580

--------------------------------
INTERNAL COORDINATES (ANGSTROEM)
--------------------------------
 C      0   0   0     0.000000000000     0.00000000     0.00000000
 C      1   0   0     1.541631965111     0.00000000     0.00000000
 C      2   1   0     1.525027590294   116.18172614     0.00000000
 H      3   2   1     1.092098690696   113.06752036    71.01548842
 H      3   2   1     1.089800875004   109.06216866   190.35286741
 S      3   2   1     1.805657593026   113.62435890   308.07249457
 C      1   2   3     1.494206744861   113.00444366   296.28133312
 N      7   1   2     1.329525396380   118.59788130   262.68978212
 N      7   1   2     1.299304241243   119.46724797    81.59831966
 H      9   7   1     1.015370050484   117.49951858   358.73951065
 H      9   7   1     1.010801007465   121.61653338   182.37307597
 H      8   7   1     1.019372588134   119.66533631   358.25279225
 H      8   7   1     1.010217642510   122.51868751   177.49247968
 O      6   3   2     1.435941290310   105.55473738   197.66009361
 O      6   3   2     1.446249762107   104.27088318   321.55561304
 O      6   3   2     1.482274821591   103.71425996    78.73693654
 H      2   1   3     1.090034998608   105.58874260   240.24018957
 H      2   1   3     1.094948251900   109.68893549   124.80108786
 H      1   2   3     1.091402020806   109.31625547   175.23624021
 H      1   2   3     1.090685786809   108.85901801    57.27750679

---------------------------
INTERNAL COORDINATES (A.U.)
---------------------------
 C      0   0   0     0.000000000000     0.00000000     0.00000000
 C      1   0   0     2.913262213359     0.00000000     0.00000000
 C      2   1   0     2.881884492329   116.18172614     0.00000000
 H      3   2   1     2.063767436629   113.06752036    71.01548842
 H      3   2   1     2.059425194266   109.06216866   190.35286741
 S      3   2   1     3.412198342455   113.62435890   308.07249457
 C      1   2   3     2.823641535245   113.00444366   296.28133312
 N      7   1   2     2.512438887251   118.59788130   262.68978212
 N      7   1   2     2.455329180592   119.46724797    81.59831966
 H      9   7   1     1.918771320000   117.49951858   358.73951065
 H      9   7   1     1.910137080000   121.61653338   182.37307597
 H      8   7   1     1.926335020000   119.66533631   358.25279225
 H      8   7   1     1.909034680000   122.51868751   177.49247968
 O      6   3   2     2.713535783076   105.55473738   197.66009361
 O      6   3   2     2.733015971631   104.27088318   321.55561304
 O      6   3   2     2.801093468014   103.71425996    78.73693654
 H      2   1   3     2.059867623758   105.58874260   240.24018957
 H      2   1   3     2.069152326907   109.68893549   124.80108786
 H      1   2   3     2.062450921331   109.31625547   175.23624021
 H      1   2   3     2.061097435229   108.85901801    57.27750679

---------------------
BASIS SET INFORMATION
---------------------
There are 5 groups of distinct atoms

 Group   1 Type C   : 8s4p2d contracted to 4s2p2d pattern {5111/31/11}
 Group   2 Type H   : 4s2p contracted to 2s2p pattern {31/11}
 Group   3 Type S   : 11s8p2d contracted to 5s4p2d pattern {53111/5111/11}
 Group   4 Type N   : 8s4p2d contracted to 4s2p2d pattern {5111/31/11}
 Group   5 Type O   : 8s5p2d contracted to 4s3p2d pattern {5111/311/11}

Atom   0C    basis set group =>   1
Atom   1C    basis set group =>   1
Atom   2C    basis set group =>   1
Atom   3H    basis set group =>   2
Atom   4H    basis set group =>   2
Atom   5S    basis set group =>   3
Atom   6C    basis set group =>   1
Atom   7N    basis set group =>   4
Atom   8N    basis set group =>   4
Atom   9H    basis set group =>   2
Atom  10H    basis set group =>   2
Atom  11H    basis set group =>   2
Atom  12H    basis set group =>   2
Atom  13O    basis set group =>   5
Atom  14O    basis set group =>   5
Atom  15O    basis set group =>   5
Atom  16H    basis set group =>   2
Atom  17H    basis set group =>   2
Atom  18H    basis set group =>   2
Atom  19H    basis set group =>   2
---------------------------------
AUXILIARY/J BASIS SET INFORMATION
---------------------------------
There are 5 groups of distinct atoms

 Group   1 Type C   : 12s5p4d2f1g contracted to 6s4p3d1f1g pattern {711111/2111/211/2/1}
 Group   2 Type H   : 5s2p1d contracted to 3s1p1d pattern {311/2/1}
 Group   3 Type S   : 14s5p5d2f1g contracted to 8s4p3d1f1g pattern {71111111/2111/311/2/1}
 Group   4 Type N   : 12s5p4d2f1g contracted to 6s4p3d1f1g pattern {711111/2111/211/2/1}
 Group   5 Type O   : 12s5p4d2f1g contracted to 6s4p3d1f1g pattern {711111/2111/211/2/1}

Atom   0C    basis set group =>   1
Atom   1C    basis set group =>   1
Atom   2C    basis set group =>   1
Atom   3H    basis set group =>   2
Atom   4H    basis set group =>   2
Atom   5S    basis set group =>   3
Atom   6C    basis set group =>   1
Atom   7N    basis set group =>   4
Atom   8N    basis set group =>   4
Atom   9H    basis set group =>   2
Atom  10H    basis set group =>   2
Atom  11H    basis set group =>   2
Atom  12H    basis set group =>   2
Atom  13O    basis set group =>   5
Atom  14O    basis set group =>   5
Atom  15O    basis set group =>   5
Atom  16H    basis set group =>   2
Atom  17H    basis set group =>   2
Atom  18H    basis set group =>   2
Atom  19H    basis set group =>   2


           ************************************************************
           *        Program running with 4 parallel MPI-processes     *
           *              working on a common directory               *
           ************************************************************
------------------------------------------------------------------------------
                           ORCA GTO INTEGRAL CALCULATION
                           -- RI-GTO INTEGRALS CHOSEN --
------------------------------------------------------------------------------
------------------------------------------------------------------------------
                   ___                                                        
                  /   \      - P O W E R E D   B Y -                         
                 /     \                                                     
                 |  |  |   _    _      __       _____    __    __             
                 |  |  |  | |  | |    /  \     |  _  \  |  |  /  |          
                  \  \/   | |  | |   /    \    | | | |  |  | /  /          
                 / \  \   | |__| |  /  /\  \   | |_| |  |  |/  /          
                |  |  |   |  __  | /  /__\  \  |    /   |      \           
                |  |  |   | |  | | |   __   |  |    \   |  |\   \          
                \     /   | |  | | |  |  |  |  | |\  \  |  | \   \       
                 \___/    |_|  |_| |__|  |__|  |_| \__\ |__|  \__/        
                                                                              
                      - O R C A' S   B I G   F R I E N D -                    
                                      &                                       
                       - I N T E G R A L  F E E D E R -                       
                                                                              
 v1 FN, 2020, v2 2021                                                         
------------------------------------------------------------------------------


Reading SHARK input file 28Oct_SVPD_BLYP_B_wt_wb97.SHARKINP.tmp ... ok
----------------------
SHARK INTEGRAL PACKAGE
----------------------

Number of atoms                             ...     20
Number of basis functions                   ...    296
Number of shells                            ...    126
Maximum angular momentum                    ...      2
Integral batch strategy                     ... SHARK/LIBINT Hybrid
RI-J (if used) integral strategy            ... SPLIT-RIJ (Revised 2003 algorithm where possible)
Printlevel                                  ...      1
Contraction scheme used                     ... SEGMENTED contraction
Coulomb Range Separation                    ... NOT USED
Exchange Range Separation                   ... NOT USED
Finite Nucleus Model                        ... NOT USED
Auxiliary Coulomb fitting basis             ... AVAILABLE
   # of basis functions in Aux-J            ...    602
   # of shells in Aux-J                     ...    202
   Maximum angular momentum in Aux-J        ...      4
Auxiliary J/K fitting basis                 ... NOT available
Auxiliary Correlation fitting basis         ... NOT available
Auxiliary 'external' fitting basis          ... NOT available
Integral threshold                          ...     2.500000e-11
Primitive cut-off                           ...     2.500000e-12
Primitive pair pre-selection threshold      ...     2.500000e-12

Calculating pre-screening integrals         ... done (  0.1 sec) Dimension = 126
Organizing shell pair data                  ... done (  0.1 sec)
Shell pair information
Total number of shell pairs                 ...      8001
Shell pairs after pre-screening             ...      7643
Total number of primitive shell pairs       ...     22325
Primitive shell pairs kept                  ...     16852
          la=0 lb=0:   1784 shell pairs
          la=1 lb=0:   2619 shell pairs
          la=1 lb=1:   1002 shell pairs
          la=2 lb=0:   1168 shell pairs
          la=2 lb=1:    868 shell pairs
          la=2 lb=2:    202 shell pairs

Calculating one electron integrals          ... done (  0.0 sec)
Calculating RI/J V-Matrix + Cholesky decomp.... done (  0.0 sec)
Calculating Nuclear repulsion               ... done (  0.0 sec) ENN=    724.783451992922 Eh

SHARK setup successfully completed in   0.3 seconds

Maximum memory used throughout the entire GTOINT-calculation: 13.8 MB


           ************************************************************
           *        Program running with 4 parallel MPI-processes     *
           *              working on a common directory               *
           ************************************************************
-------------------------------------------------------------------------------
                                 ORCA SCF
-------------------------------------------------------------------------------

------------
SCF SETTINGS
------------
Hamiltonian:
 Density Functional     Method          .... DFT(GTOs)
 Exchange Functional    Exchange        .... B88
   X-Alpha parameter    XAlpha          ....  0.666667
   Becke's b parameter  XBeta           ....  0.004200
 Correlation Functional Correlation     .... LYP
 Gradients option       PostSCFGGA      .... off
   Density functional embedding theory  .... OFF
   NL short-range parameter             ....  4.000000
 RI-approximation to the Coulomb term is turned on
   Number of AuxJ basis functions       .... 602


General Settings:
 Integral files         IntName         .... 28Oct_SVPD_BLYP_B_wt_wb97
 Hartree-Fock type      HFTyp           .... RHF
 Total Charge           Charge          ....    0
 Multiplicity           Mult            ....    1
 Number of Electrons    NEL             ....   88
 Basis Dimension        Dim             ....  296
 Nuclear Repulsion      ENuc            ....    724.7834519929 Eh

Convergence Acceleration:
 DIIS                   CNVDIIS         .... on
   Start iteration      DIISMaxIt       ....    12
   Startup error        DIISStart       ....  0.200000
   # of expansion vecs  DIISMaxEq       ....     5
   Bias factor          DIISBfac        ....   1.050
   Max. coefficient     DIISMaxC        ....  10.000
 Trust-Rad. Augm. Hess. CNVTRAH         .... auto
   Auto Start mean grad. ratio tolernc. ....  1.125000
   Auto Start start iteration           ....    20
   Auto Start num. interpolation iter.  ....    10
   Max. Number of Micro iterations      ....    16
   Max. Number of Macro iterations      .... Maxiter - #DIIS iter
   Number of Davidson start vectors     ....     2
   Converg. threshold I  (grad. norm)   ....   1.000e-05
   Converg. threshold II (energy diff.) ....   1.000e-08
   Grad. Scal. Fac. for Micro threshold ....   0.100
   Minimum threshold for Micro iter.    ....   0.010
   NR start threshold (gradient norm)   ....   0.001
   Initial trust radius                 ....   0.400
   Minimum AH scaling param. (alpha)    ....   1.000
   Maximum AH scaling param. (alpha)    .... 1000.000
   Orbital update algorithm             .... Taylor
   White noise on init. David. guess    .... on
   Maximum white noise                  ....   0.010
   Quad. conv. algorithm                .... NR
 SOSCF                  CNVSOSCF        .... on
   Start iteration      SOSCFMaxIt      ....   150
   Startup grad/error   SOSCFStart      ....  0.003300
 Level Shifting         CNVShift        .... on
   Level shift para.    LevelShift      ....    0.2500
   Turn off err/grad.   ShiftErr        ....    0.0010
 Zerner damping         CNVZerner       .... off
 Static damping         CNVDamp         .... on
   Fraction old density DampFac         ....    0.7000
   Max. Damping (<1)    DampMax         ....    0.9800
   Min. Damping (>=0)   DampMin         ....    0.0000
   Turn off err/grad.   DampErr         ....    0.1000
 Fernandez-Rico         CNVRico         .... off

SCF Procedure:
 Maximum # iterations   MaxIter         ....   150
 SCF integral mode      SCFMode         .... Direct
   Integral package                     .... SHARK and LIBINT hybrid scheme
 Reset frequency        DirectResetFreq ....    20
 Integral Threshold     Thresh          ....  2.500e-11 Eh
 Primitive CutOff       TCut            ....  2.500e-12 Eh

Convergence Tolerance:
 Convergence Check Mode ConvCheckMode   .... Total+1el-Energy
 Convergence forced     ConvForced      .... 0
 Energy Change          TolE            ....  1.000e-08 Eh
 1-El. energy change                    ....  1.000e-05 Eh
 Orbital Gradient       TolG            ....  1.000e-05
 Orbital Rotation angle TolX            ....  1.000e-05
 DIIS Error             TolErr          ....  5.000e-07


Diagonalization of the overlap matrix:
Smallest eigenvalue                        ... 4.202e-05
Time for diagonalization                   ...    0.019 sec
Threshold for overlap eigenvalues          ... 1.000e-08
Number of eigenvalues below threshold      ... 0
Time for construction of square roots      ...    0.015 sec
Total time needed                          ...    0.035 sec

Time for model grid setup =    0.186 sec

------------------------------
INITIAL GUESS: MODEL POTENTIAL
------------------------------
Loading Hartree-Fock densities                     ... done
Calculating cut-offs                               ... done
Initializing the effective Hamiltonian             ... done
Setting up the integral package (SHARK)            ... done
Starting the Coulomb interaction                   ... done (   0.1 sec)
Reading the grid                                   ... done
Mapping shells                                     ... done
Starting the XC term evaluation                    ... done (   0.2 sec)
  promolecular density results
     # of electrons  =     87.996942730
     EX              =    -86.513427060
     EC              =     -3.164799230
     EX+EC           =    -89.678226290
Transforming the Hamiltonian                       ... done (   0.0 sec)
Diagonalizing the Hamiltonian                      ... done (   0.0 sec)
Back transforming the eigenvectors                 ... done (   0.0 sec)
Now organizing SCF variables                       ... done
                      ------------------
                      INITIAL GUESS DONE (   0.6 sec)
                      ------------------
-------------------
DFT GRID GENERATION
-------------------

General Integration Accuracy     IntAcc      ... 4.388
Radial Grid Type                 RadialGrid  ... OptM3 with GC (2021)
Angular Grid (max. ang.)         AngularGrid ... 4 (Lebedev-302)
Angular grid pruning method      GridPruning ... 4 (adaptive)
Weight generation scheme         WeightScheme... Becke
Basis function cutoff            BFCut       ... 1.0000e-11
Integration weight cutoff        WCut        ... 1.0000e-14
Angular grids for H and He will be reduced by one unit
Partially contracted basis set               ... off
Rotationally invariant grid construction     ... off

Total number of grid points                  ...    96250
Total number of batches                      ...     1515
Average number of points per batch           ...       63
Average number of grid points per atom       ...     4812
Time for grid setup =    0.710 sec

--------------
SCF ITERATIONS
--------------
ITER       Energy         Delta-E        Max-DP      RMS-DP      [F,P]     Damp
               ***  Starting incremental Fock matrix formation  ***
  0   -890.6449984711   0.000000000000 0.21873101  0.00314336  0.2916495 0.7000
  1   -890.9067460991  -0.261747627947 0.08247980  0.00171726  0.0916409 0.7000
                               ***Turning on DIIS***
  2   -890.9796899741  -0.072943874988 0.09818666  0.00244861  0.0293010 0.0000
  3   -891.1262336005  -0.146543626426 0.04836077  0.00108663  0.0515489 0.0000
  4   -891.1498263789  -0.023592778405 0.02685617  0.00044649  0.0201924 0.0000
                      *** Initiating the SOSCF procedure ***
                           *** Shutting down DIIS ***
                      *** Re-Reading the Fockian *** 
                      *** Removing any level shift *** 
ITER      Energy       Delta-E        Grad      Rot      Max-DP    RMS-DP
  5   -891.15294369  -0.0031173125  0.000645  0.000645  0.006222  0.000200
               *** Restarting incremental Fock matrix formation ***
  6   -891.15307904  -0.0001353455  0.000523  0.003949  0.005421  0.000170
  7   -891.15304217   0.0000368621  0.001077  0.001496  0.002282  0.000059
  8   -891.15310384  -0.0000616623  0.000139  0.000817  0.001804  0.000049
  9   -891.15310070   0.0000031405  0.000234  0.000248  0.000805  0.000018
 10   -891.15310636  -0.0000056618  0.000047  0.000475  0.000693  0.000019
 11   -891.15310610   0.0000002551  0.000078  0.000182  0.000244  0.000008
 12   -891.15310671  -0.0000006102  0.000022  0.000100  0.000178  0.000006
 13   -891.15310671   0.0000000048  0.000034  0.000076  0.000085  0.000003
 14   -891.15310675  -0.0000000384  0.000015  0.000037  0.000056  0.000002
 15   -891.15310674   0.0000000091  0.000019  0.000022  0.000038  0.000001
 16   -891.15310675  -0.0000000075  0.000003  0.000008  0.000045  0.000001
 17   -891.15310674   0.0000000064  0.000005  0.000005  0.000023  0.000001
                  ***Gradient check signals convergence***
              ***Rediagonalizing the Fockian in SOSCF/NRSCF***

               *****************************************************
               *                     SUCCESS                       *
               *           SCF CONVERGED AFTER  18 CYCLES          *
               *****************************************************


----------------
TOTAL SCF ENERGY
----------------

Total Energy       :         -891.15310674 Eh          -24249.50886 eV

Components:
Nuclear Repulsion  :          724.78345199 Eh           19722.36039 eV
Electronic Energy  :        -1615.93655874 Eh          -43971.86925 eV
One Electron Energy:        -2661.54466958 Eh          -72424.31244 eV
Two Electron Energy:         1045.60811084 Eh           28452.44319 eV

Virial components:
Potential Energy   :        -1776.95574562 Eh          -48353.42408 eV
Kinetic Energy     :          885.80263887 Eh           24103.91522 eV
Virial Ratio       :            2.00604025


DFT components:
N(Alpha)           :       44.000230459637 electrons
N(Beta)            :       44.000230459637 electrons
N(Total)           :       88.000460919273 electrons
E(X)               :      -87.564776680660 Eh       
E(C)               :       -3.176646819633 Eh       
E(XC)              :      -90.741423500293 Eh       
DFET-embed. en.    :        0.000000000000 Eh       

---------------
SCF CONVERGENCE
---------------

  Last Energy change         ...   -5.7521e-09  Tolerance :   1.0000e-08
  Last MAX-Density change    ...    2.5138e-05  Tolerance :   1.0000e-07
  Last RMS-Density change    ...    5.8064e-07  Tolerance :   5.0000e-09
  Last Orbital Gradient      ...    7.6856e-07  Tolerance :   1.0000e-05
  Last Orbital Rotation      ...    3.9321e-06  Tolerance :   1.0000e-05

             **** THE GBW FILE WAS UPDATED (28Oct_SVPD_BLYP_B_wt_wb97.gbw) ****
             **** DENSITY 28Oct_SVPD_BLYP_B_wt_wb97.scfp WAS UPDATED ****
             **** ENERGY FILE WAS UPDATED (28Oct_SVPD_BLYP_B_wt_wb97.en.tmp) ****
             **** THE GBW FILE WAS UPDATED (28Oct_SVPD_BLYP_B_wt_wb97.gbw) ****
             **** DENSITY 28Oct_SVPD_BLYP_B_wt_wb97.scfp WAS UPDATED ****
----------------
ORBITAL ENERGIES
----------------

  NO   OCC          E(Eh)            E(eV) 
   0   2.0000     -88.281127     -2402.2516 
   1   2.0000     -18.729068      -509.6439 
   2   2.0000     -18.715849      -509.2841 
   3   2.0000     -18.714256      -509.2408 
   4   2.0000     -14.133307      -384.5868 
   5   2.0000     -14.099905      -383.6779 
   6   2.0000     -10.087631      -274.4984 
   7   2.0000      -9.972125      -271.3553 
   8   2.0000      -9.952637      -270.8250 
   9   2.0000      -9.928195      -270.1599 
  10   2.0000      -7.817115      -212.7145 
  11   2.0000      -5.852780      -159.2622 
  12   2.0000      -5.851781      -159.2351 
  13   2.0000      -5.851244      -159.2205 
  14   2.0000      -0.988645       -26.9024 
  15   2.0000      -0.958885       -26.0926 
  16   2.0000      -0.872173       -23.7330 
  17   2.0000      -0.847442       -23.0601 
  18   2.0000      -0.844402       -22.9774 
  19   2.0000      -0.749725       -20.4011 
  20   2.0000      -0.678394       -18.4600 
  21   2.0000      -0.625917       -17.0321 
  22   2.0000      -0.585037       -15.9197 
  23   2.0000      -0.576334       -15.6828 
  24   2.0000      -0.542601       -14.7649 
  25   2.0000      -0.508070       -13.8253 
  26   2.0000      -0.462449       -12.5839 
  27   2.0000      -0.460277       -12.5248 
  28   2.0000      -0.430436       -11.7128 
  29   2.0000      -0.421669       -11.4742 
  30   2.0000      -0.396572       -10.7913 
  31   2.0000      -0.386279       -10.5112 
  32   2.0000      -0.361982        -9.8500 
  33   2.0000      -0.353068        -9.6075 
  34   2.0000      -0.345633        -9.4052 
  35   2.0000      -0.331126        -9.0104 
  36   2.0000      -0.316280        -8.6064 
  37   2.0000      -0.305079        -8.3016 
  38   2.0000      -0.254361        -6.9215 
  39   2.0000      -0.248687        -6.7671 
  40   2.0000      -0.223533        -6.0827 
  41   2.0000      -0.211976        -5.7682 
  42   2.0000      -0.209001        -5.6872 
  43   2.0000      -0.172919        -4.7054 
  44   0.0000      -0.096034        -2.6132 
  45   0.0000      -0.062840        -1.7100 
  46   0.0000      -0.025070        -0.6822 
  47   0.0000      -0.005077        -0.1381 
  48   0.0000       0.011519         0.3135 
  49   0.0000       0.020005         0.5444 
  50   0.0000       0.026554         0.7226 
  51   0.0000       0.047935         1.3044 
  52   0.0000       0.055428         1.5083 
  53   0.0000       0.062010         1.6874 
  54   0.0000       0.065863         1.7922 
  55   0.0000       0.072541         1.9739 
  56   0.0000       0.084663         2.3038 
  57   0.0000       0.088263         2.4018 
  58   0.0000       0.097971         2.6659 
  59   0.0000       0.101218         2.7543 
  60   0.0000       0.112390         3.0583 
  61   0.0000       0.121517         3.3067 
  62   0.0000       0.123285         3.3548 
  63   0.0000       0.132115         3.5950 
  64   0.0000       0.141310         3.8453 
  65   0.0000       0.143251         3.8980 
  66   0.0000       0.149385         4.0650 
  67   0.0000       0.157768         4.2931 
  68   0.0000       0.158832         4.3220 
  69   0.0000       0.163028         4.4362 
  70   0.0000       0.167376         4.5545 
  71   0.0000       0.178743         4.8638 
  72   0.0000       0.180951         4.9239 
  73   0.0000       0.189360         5.1527 
  74   0.0000       0.198462         5.4004 
  75   0.0000       0.205140         5.5822 
  76   0.0000       0.208320         5.6687 
  77   0.0000       0.212289         5.7767 
  78   0.0000       0.218937         5.9576 
  79   0.0000       0.225110         6.1256 
  80   0.0000       0.227898         6.2014 
  81   0.0000       0.235303         6.4029 
  82   0.0000       0.238592         6.4924 
  83   0.0000       0.250259         6.8099 
  84   0.0000       0.252425         6.8688 
  85   0.0000       0.262129         7.1329 
  86   0.0000       0.265358         7.2208 
  87   0.0000       0.271460         7.3868 
  88   0.0000       0.277430         7.5492 
  89   0.0000       0.281290         7.6543 
  90   0.0000       0.287894         7.8340 
  91   0.0000       0.292814         7.9679 
  92   0.0000       0.294453         8.0125 
  93   0.0000       0.302722         8.2375 
  94   0.0000       0.307239         8.3604 
  95   0.0000       0.315090         8.5740 
  96   0.0000       0.321050         8.7362 
  97   0.0000       0.333211         9.0671 
  98   0.0000       0.334880         9.1126 
  99   0.0000       0.339955         9.2507 
 100   0.0000       0.349400         9.5076 
 101   0.0000       0.358975         9.7682 
 102   0.0000       0.359443         9.7809 
 103   0.0000       0.363658         9.8956 
 104   0.0000       0.369194        10.0463 
 105   0.0000       0.375184        10.2093 
 106   0.0000       0.383253        10.4288 
 107   0.0000       0.389682        10.6038 
 108   0.0000       0.399217        10.8632 
 109   0.0000       0.406182        11.0528 
 110   0.0000       0.410179        11.1615 
 111   0.0000       0.418150        11.3784 
 112   0.0000       0.420090        11.4312 
 113   0.0000       0.426168        11.5966 
 114   0.0000       0.438248        11.9253 
 115   0.0000       0.441578        12.0160 
 116   0.0000       0.450020        12.2457 
 117   0.0000       0.453704        12.3459 
 118   0.0000       0.462246        12.5784 
 119   0.0000       0.476367        12.9626 
 120   0.0000       0.481299        13.0968 
 121   0.0000       0.485630        13.2147 
 122   0.0000       0.492239        13.3945 
 123   0.0000       0.495881        13.4936 
 124   0.0000       0.502494        13.6736 
 125   0.0000       0.507834        13.8189 
 126   0.0000       0.508703        13.8425 
 127   0.0000       0.518530        14.1099 
 128   0.0000       0.524221        14.2648 
 129   0.0000       0.526860        14.3366 
 130   0.0000       0.534174        14.5356 
 131   0.0000       0.543397        14.7866 
 132   0.0000       0.547162        14.8890 
 133   0.0000       0.561750        15.2860 
 134   0.0000       0.564915        15.3721 
 135   0.0000       0.575645        15.6641 
 136   0.0000       0.580108        15.7855 
 137   0.0000       0.590456        16.0671 
 138   0.0000       0.596446        16.2301 
 139   0.0000       0.606862        16.5135 
 140   0.0000       0.620112        16.8741 
 141   0.0000       0.627092        17.0640 
 142   0.0000       0.636629        17.3236 
 143   0.0000       0.643112        17.5000 
 144   0.0000       0.657176        17.8827 
 145   0.0000       0.662966        18.0402 
 146   0.0000       0.668159        18.1815 
 147   0.0000       0.678259        18.4564 
 148   0.0000       0.686111        18.6700 
 149   0.0000       0.686862        18.6905 
 150   0.0000       0.690953        18.8018 
 151   0.0000       0.710539        19.3347 
 152   0.0000       0.713410        19.4129 
 153   0.0000       0.717873        19.5343 
 154   0.0000       0.729151        19.8412 
 155   0.0000       0.735127        20.0038 
 156   0.0000       0.739837        20.1320 
 157   0.0000       0.757510        20.6129 
 158   0.0000       0.768977        20.9249 
 159   0.0000       0.785393        21.3716 
 160   0.0000       0.803563        21.8660 
 161   0.0000       0.806550        21.9474 
 162   0.0000       0.819901        22.3106 
 163   0.0000       0.843634        22.9564 
 164   0.0000       0.855156        23.2700 
 165   0.0000       0.862909        23.4809 
 166   0.0000       0.887390        24.1471 
 167   0.0000       0.894412        24.3382 
 168   0.0000       0.919135        25.0109 
 169   0.0000       0.938426        25.5359 
 170   0.0000       0.948275        25.8039 
 171   0.0000       0.955147        25.9909 
 172   0.0000       0.973041        26.4778 
 173   0.0000       0.975548        26.5460 
 174   0.0000       0.995821        27.0977 
 175   0.0000       0.999123        27.1875 
 176   0.0000       1.012409        27.5490 
 177   0.0000       1.026399        27.9297 
 178   0.0000       1.032782        28.1034 
 179   0.0000       1.034385        28.1470 
 180   0.0000       1.049561        28.5600 
 181   0.0000       1.055978        28.7346 
 182   0.0000       1.069610        29.1056 
 183   0.0000       1.085042        29.5255 
 184   0.0000       1.092487        29.7281 
 185   0.0000       1.123472        30.5712 
 186   0.0000       1.139540        31.0085 
 187   0.0000       1.141243        31.0548 
 188   0.0000       1.150570        31.3086 
 189   0.0000       1.176057        32.0021 
 190   0.0000       1.189585        32.3703 
 191   0.0000       1.191941        32.4344 
 192   0.0000       1.201486        32.6941 
 193   0.0000       1.242160        33.8009 
 194   0.0000       1.259543        34.2739 
 195   0.0000       1.284279        34.9470 
 196   0.0000       1.296902        35.2905 
 197   0.0000       1.307472        35.5781 
 198   0.0000       1.354331        36.8532 
 199   0.0000       1.381952        37.6048 
 200   0.0000       1.397455        38.0267 
 201   0.0000       1.405797        38.2537 
 202   0.0000       1.417081        38.5607 
 203   0.0000       1.451721        39.5033 
 204   0.0000       1.481074        40.3021 
 205   0.0000       1.507581        41.0234 
 206   0.0000       1.530522        41.6476 
 207   0.0000       1.550024        42.1783 
 208   0.0000       1.557449        42.3803 
 209   0.0000       1.564914        42.5835 
 210   0.0000       1.576546        42.9000 
 211   0.0000       1.598214        43.4896 
 212   0.0000       1.610107        43.8132 
 213   0.0000       1.619612        44.0719 
 214   0.0000       1.625217        44.2244 
 215   0.0000       1.648291        44.8523 
 216   0.0000       1.660731        45.1908 
 217   0.0000       1.677261        45.6406 
 218   0.0000       1.683440        45.8087 
 219   0.0000       1.696706        46.1697 
 220   0.0000       1.714503        46.6540 
 221   0.0000       1.730053        47.0771 
 222   0.0000       1.744924        47.4818 
 223   0.0000       1.755847        47.7790 
 224   0.0000       1.765494        48.0415 
 225   0.0000       1.789666        48.6993 
 226   0.0000       1.815661        49.4066 
 227   0.0000       1.823301        49.6145 
 228   0.0000       1.838630        50.0317 
 229   0.0000       1.881309        51.1930 
 230   0.0000       1.895496        51.5791 
 231   0.0000       1.908080        51.9215 
 232   0.0000       1.927160        52.4407 
 233   0.0000       1.933743        52.6198 
 234   0.0000       1.946801        52.9751 
 235   0.0000       1.955921        53.2233 
 236   0.0000       1.961939        53.3871 
 237   0.0000       1.968521        53.5662 
 238   0.0000       1.985890        54.0388 
 239   0.0000       1.999557        54.4107 
 240   0.0000       2.022474        55.0343 
 241   0.0000       2.041516        55.5525 
 242   0.0000       2.054444        55.9043 
 243   0.0000       2.077530        56.5325 
 244   0.0000       2.096714        57.0545 
 245   0.0000       2.138267        58.1852 
 246   0.0000       2.153001        58.5861 
 247   0.0000       2.175341        59.1940 
 248   0.0000       2.216652        60.3182 
 249   0.0000       2.232904        60.7604 
 250   0.0000       2.270011        61.7701 
 251   0.0000       2.272041        61.8254 
 252   0.0000       2.331667        63.4479 
 253   0.0000       2.341153        63.7060 
 254   0.0000       2.395174        65.1760 
 255   0.0000       2.432024        66.1787 
 256   0.0000       2.437207        66.3198 
 257   0.0000       2.456521        66.8453 
 258   0.0000       2.465869        67.0997 
 259   0.0000       2.484805        67.6150 
 260   0.0000       2.498467        67.9867 
 261   0.0000       2.513783        68.4035 
 262   0.0000       2.549058        69.3634 
 263   0.0000       2.581267        70.2398 
 264   0.0000       2.632723        71.6400 
 265   0.0000       2.656022        72.2740 
 266   0.0000       2.684908        73.0601 
 267   0.0000       2.717832        73.9560 
 268   0.0000       2.754169        74.9448 
 269   0.0000       2.770736        75.3955 
 270   0.0000       2.853936        77.6595 
 271   0.0000       2.865647        77.9782 
 272   0.0000       2.890212        78.6467 
 273   0.0000       2.891359        78.6779 
 274   0.0000       2.903084        78.9969 
 275   0.0000       2.909236        79.1643 
 276   0.0000       2.916340        79.3576 
 277   0.0000       2.928140        79.6787 
 278   0.0000       2.944518        80.1244 
 279   0.0000       2.951094        80.3034 
 280   0.0000       2.979794        81.0843 
 281   0.0000       3.022508        82.2466 
 282   0.0000       3.038882        82.6922 
 283   0.0000       3.083611        83.9093 
 284   0.0000       3.090393        84.0939 
 285   0.0000       3.118171        84.8497 
 286   0.0000       3.138755        85.4099 
 287   0.0000       3.150075        85.7179 
 288   0.0000       3.180351        86.5418 
 289   0.0000       3.197270        87.0021 
 290   0.0000       3.294010        89.6346 
 291   0.0000       3.412095        92.8478 
 292   0.0000       3.467761        94.3626 
 293   0.0000       3.528698        96.0208 
 294   0.0000       3.586533        97.5945 
 295   0.0000       3.678845       100.1065 

                    ********************************
                    * MULLIKEN POPULATION ANALYSIS *
                    ********************************

-----------------------
MULLIKEN ATOMIC CHARGES
-----------------------
   0 C :    0.464094
   1 C :    0.454200
   2 C :    0.482770
   3 H :   -0.055757
   4 H :   -0.333617
   5 S :    1.220455
   6 C :    0.488800
   7 N :    0.289386
   8 N :    0.707936
   9 H :   -0.293190
  10 H :   -0.260561
  11 H :   -0.080616
  12 H :   -0.265046
  13 O :   -0.688410
  14 O :   -0.733379
  15 O :   -0.809332
  16 H :    0.022477
  17 H :   -0.367171
  18 H :   -0.246421
  19 H :    0.003381
Sum of atomic charges:    0.0000000

--------------------------------
MULLIKEN REDUCED ORBITAL CHARGES
--------------------------------
  0 C s       :     2.536847  s :     2.536847
      pz      :     0.916343  p :     2.703274
      px      :     0.941367
      py      :     0.845565
      dz2     :     0.038485  d :     0.295784
      dxz     :     0.091843
      dyz     :     0.022411
      dx2y2   :     0.039183
      dxy     :     0.103862
  1 C s       :     2.552707  s :     2.552707
      pz      :     0.804190  p :     2.506571
      px      :     0.920752
      py      :     0.781629
      dz2     :     0.097713  d :     0.486522
      dxz     :     0.115995
      dyz     :     0.008272
      dx2y2   :     0.193811
      dxy     :     0.070731
  2 C s       :     2.628137  s :     2.628137
      pz      :     0.796547  p :     2.618379
      px      :     0.897336
      py      :     0.924496
      dz2     :     0.033673  d :     0.270715
      dxz     :     0.098868
      dyz     :     0.007964
      dx2y2   :     0.089235
      dxy     :     0.040974
  3 H s       :     1.040179  s :     1.040179
      pz      :     0.011673  p :     0.015578
      px      :    -0.001472
      py      :     0.005377
  4 H s       :     1.312998  s :     1.312998
      pz      :    -0.007244  p :     0.020620
      px      :     0.018739
      py      :     0.009124
  5 S s       :     4.939878  s :     4.939878
      pz      :     2.882424  p :     8.871439
      px      :     2.913244
      py      :     3.075771
      dz2     :     0.221290  d :     0.968228
      dxz     :     0.233939
      dyz     :     0.122075
      dx2y2   :     0.218217
      dxy     :     0.172706
  6 C s       :     3.247575  s :     3.247575
      pz      :     0.824151  p :     2.405998
      px      :     0.747777
      py      :     0.834071
      dz2     :    -0.144786  d :    -0.142373
      dxz     :     0.026620
      dyz     :    -0.005591
      dx2y2   :    -0.008892
      dxy     :    -0.009724
  7 N s       :     3.246842  s :     3.246842
      pz      :     0.976303  p :     3.484811
      px      :     1.427302
      py      :     1.081206
      dz2     :    -0.024280  d :    -0.021039
      dxz     :    -0.003744
      dyz     :    -0.006029
      dx2y2   :     0.010670
      dxy     :     0.002345
  8 N s       :     2.895322  s :     2.895322
      pz      :     0.929679  p :     3.412988
      px      :     1.358168
      py      :     1.125141
      dz2     :    -0.044079  d :    -0.016245
      dxz     :     0.008988
      dyz     :     0.003681
      dx2y2   :     0.013829
      dxy     :     0.001336
  9 H s       :     1.175781  s :     1.175781
      pz      :    -0.046350  p :     0.117409
      px      :     0.053911
      py      :     0.109847
 10 H s       :     1.258409  s :     1.258409
      pz      :    -0.021253  p :     0.002152
      px      :     0.035620
      py      :    -0.012216
 11 H s       :     1.065354  s :     1.065354
      pz      :    -0.045118  p :     0.015262
      px      :     0.045084
      py      :     0.015296
 12 H s       :     1.225159  s :     1.225159
      pz      :     0.000864  p :     0.039887
      px      :     0.040509
      py      :    -0.001486
 13 O s       :     3.961363  s :     3.961363
      pz      :     1.768384  p :     4.710481
      px      :     1.280900
      py      :     1.661197
      dz2     :    -0.000404  d :     0.016565
      dxz     :     0.001452
      dyz     :     0.003622
      dx2y2   :     0.007948
      dxy     :     0.003947
 14 O s       :     3.983230  s :     3.983230
      pz      :     1.395496  p :     4.738948
      px      :     1.599364
      py      :     1.744089
      dz2     :     0.001474  d :     0.011201
      dxz     :     0.001305
      dyz     :     0.004609
      dx2y2   :     0.003989
      dxy     :    -0.000176
 15 O s       :     3.989336  s :     3.989336
      pz      :     1.427571  p :     4.832287
      px      :     1.669077
      py      :     1.735639
      dz2     :    -0.002248  d :    -0.012290
      dxz     :     0.000160
      dyz     :    -0.011730
      dx2y2   :    -0.000367
      dxy     :     0.001894
 16 H s       :     1.012349  s :     1.012349
      pz      :     0.056714  p :    -0.034826
      px      :    -0.043179
      py      :    -0.048361
 17 H s       :     1.363192  s :     1.363192
      pz      :    -0.046404  p :     0.003980
      px      :    -0.017293
      py      :     0.067676
 18 H s       :     1.208819  s :     1.208819
      pz      :     0.017202  p :     0.037602
      px      :     0.020130
      py      :     0.000270
 19 H s       :     0.951515  s :     0.951515
      pz      :     0.001675  p :     0.045104
      px      :     0.003541
      py      :     0.039888


                     *******************************
                     * LOEWDIN POPULATION ANALYSIS *
                     *******************************

----------------------
LOEWDIN ATOMIC CHARGES
----------------------
   0 C :    0.062124
   1 C :   -0.007830
   2 C :   -0.062017
   3 H :    0.001300
   4 H :    0.012377
   5 S :    0.899740
   6 C :   -0.057551
   7 N :    0.268037
   8 N :    0.324175
   9 H :   -0.125910
  10 H :    0.037590
  11 H :    0.030131
  12 H :    0.019759
  13 O :   -0.490734
  14 O :   -0.501712
  15 O :   -0.505335
  16 H :    0.029288
  17 H :    0.016866
  18 H :    0.024609
  19 H :    0.025092

-------------------------------
LOEWDIN REDUCED ORBITAL CHARGES
-------------------------------
  0 C s       :     2.677378  s :     2.677378
      pz      :     0.828993  p :     2.656903
      px      :     0.901252
      py      :     0.926658
      dz2     :     0.163638  d :     0.603595
      dxz     :     0.135073
      dyz     :     0.091264
      dx2y2   :     0.093898
      dxy     :     0.119722
  1 C s       :     2.682978  s :     2.682978
      pz      :     0.901130  p :     2.662745
      px      :     0.866645
      py      :     0.894970
      dz2     :     0.143324  d :     0.662108
      dxz     :     0.131581
      dyz     :     0.050826
      dx2y2   :     0.199711
      dxy     :     0.136665
  2 C s       :     2.719716  s :     2.719716
      pz      :     0.930858  p :     2.721329
      px      :     0.906545
      py      :     0.883925
      dz2     :     0.102267  d :     0.620973
      dxz     :     0.126231
      dyz     :     0.094867
      dx2y2   :     0.149781
      dxy     :     0.147826
  3 H s       :     0.728576  s :     0.728576
      pz      :     0.126649  p :     0.270124
      px      :     0.074221
      py      :     0.069254
  4 H s       :     0.721583  s :     0.721583
      pz      :     0.094937  p :     0.266039
      px      :     0.097002
      py      :     0.074100
  5 S s       :     4.668668  s :     4.668668
      pz      :     2.814363  p :     8.457834
      px      :     2.829347
      py      :     2.814125
      dz2     :     0.432467  d :     1.973758
      dxz     :     0.479494
      dyz     :     0.298610
      dx2y2   :     0.419184
      dxy     :     0.344002
  6 C s       :     2.643986  s :     2.643986
      pz      :     0.924283  p :     2.436133
      px      :     0.692635
      py      :     0.819216
      dz2     :     0.206513  d :     0.977432
      dxz     :     0.171069
      dyz     :     0.247348
      dx2y2   :     0.190333
      dxy     :     0.162169
  7 N s       :     2.939775  s :     2.939775
      pz      :     1.068935  p :     3.475491
      px      :     1.276472
      py      :     1.130083
      dz2     :     0.077636  d :     0.316698
      dxz     :     0.027251
      dyz     :     0.094413
      dx2y2   :     0.054504
      dxy     :     0.062894
  8 N s       :     2.923739  s :     2.923739
      pz      :     1.062111  p :     3.404618
      px      :     1.207063
      py      :     1.135444
      dz2     :     0.100849  d :     0.347468
      dxz     :     0.043348
      dyz     :     0.084973
      dx2y2   :     0.054341
      dxy     :     0.063956
  9 H s       :     0.573425  s :     0.573425
      pz      :     0.172676  p :     0.552484
      px      :     0.148092
      py      :     0.231717
 10 H s       :     0.658116  s :     0.658116
      pz      :     0.140844  p :     0.304294
      px      :     0.088949
      py      :     0.074501
 11 H s       :     0.643958  s :     0.643958
      pz      :     0.105479  p :     0.325911
      px      :     0.110231
      py      :     0.110201
 12 H s       :     0.658592  s :     0.658592
      pz      :     0.146524  p :     0.321649
      px      :     0.097220
      py      :     0.077905
 13 O s       :     3.555660  s :     3.555660
      pz      :     1.647261  p :     4.686993
      px      :     1.449373
      py      :     1.590360
      dz2     :     0.027895  d :     0.248080
      dxz     :     0.068433
      dyz     :     0.011098
      dx2y2   :     0.074368
      dxy     :     0.066286
 14 O s       :     3.552734  s :     3.552734
      pz      :     1.499461  p :     4.693749
      px      :     1.578545
      py      :     1.615744
      dz2     :     0.075371  d :     0.255229
      dxz     :     0.070737
      dyz     :     0.048548
      dx2y2   :     0.033140
      dxy     :     0.027432
 15 O s       :     3.493480  s :     3.493480
      pz      :     1.473976  p :     4.701153
      px      :     1.601052
      py      :     1.626124
      dz2     :     0.080360  d :     0.310702
      dxz     :     0.076374
      dyz     :     0.076021
      dx2y2   :     0.038060
      dxy     :     0.039887
 16 H s       :     0.703788  s :     0.703788
      pz      :     0.123192  p :     0.266924
      px      :     0.062102
      py      :     0.081631
 17 H s       :     0.733968  s :     0.733968
      pz      :     0.069756  p :     0.249166
      px      :     0.060916
      py      :     0.118493
 18 H s       :     0.723966  s :     0.723966
      pz      :     0.068117  p :     0.251425
      px      :     0.094808
      py      :     0.088501
 19 H s       :     0.678360  s :     0.678360
      pz      :     0.071678  p :     0.296548
      px      :     0.081070
      py      :     0.143800


                      *****************************
                      * MAYER POPULATION ANALYSIS *
                      *****************************

  NA   - Mulliken gross atomic population
  ZA   - Total nuclear charge
  QA   - Mulliken gross atomic charge
  VA   - Mayer's total valence
  BVA  - Mayer's bonded valence
  FA   - Mayer's free valence

  ATOM       NA         ZA         QA         VA         BVA        FA
  0 C      5.5359     6.0000     0.4641     4.1825     4.1825     0.0000
  1 C      5.5458     6.0000     0.4542     4.8094     4.8094     0.0000
  2 C      5.5172     6.0000     0.4828     4.4136     4.4136     0.0000
  3 H      1.0558     1.0000    -0.0558     0.9727     0.9727     0.0000
  4 H      1.3336     1.0000    -0.3336     0.9767     0.9767    -0.0000
  5 S     14.7795    16.0000     1.2205     5.0364     5.0364    -0.0000
  6 C      5.5112     6.0000     0.4888     3.2032     3.2032     0.0000
  7 N      6.7106     7.0000     0.2894     3.9025     3.9025     0.0000
  8 N      6.2921     7.0000     0.7079     3.8869     3.8869     0.0000
  9 H      1.2932     1.0000    -0.2932     0.9765     0.9765     0.0000
 10 H      1.2606     1.0000    -0.2606     0.7839     0.7839     0.0000
 11 H      1.0806     1.0000    -0.0806     0.8608     0.8608     0.0000
 12 H      1.2650     1.0000    -0.2650     0.9163     0.9163    -0.0000
 13 O      8.6884     8.0000    -0.6884     1.6662     1.6662     0.0000
 14 O      8.7334     8.0000    -0.7334     1.6530     1.6530     0.0000
 15 O      8.8093     8.0000    -0.8093     1.6983     1.6983     0.0000
 16 H      0.9775     1.0000     0.0225     0.8960     0.8960     0.0000
 17 H      1.3672     1.0000    -0.3672     0.9596     0.9596     0.0000
 18 H      1.2464     1.0000    -0.2464     1.0846     1.0846     0.0000
 19 H      0.9966     1.0000     0.0034     1.1224     1.1224     0.0000

  Mayer bond orders larger than 0.100000
B(  0-C ,  1-C ) :   1.1844 B(  0-C ,  6-C ) :   1.0906 B(  0-C ,  8-N ) :   0.1094 
B(  0-C , 16-H ) :   0.1947 B(  0-C , 18-H ) :   0.6476 B(  0-C , 19-H ) :   0.7586 
B(  1-C ,  2-C ) :   1.2800 B(  1-C ,  3-H ) :   0.1642 B(  1-C ,  4-H ) :   0.2434 
B(  1-C ,  6-C ) :   0.1145 B(  1-C , 16-H ) :   0.7293 B(  1-C , 17-H ) :   0.7074 
B(  1-C , 18-H ) :   0.1835 B(  1-C , 19-H ) :   0.1753 B(  2-C ,  3-H ) :   0.8338 
B(  2-C ,  4-H ) :   0.6776 B(  2-C ,  5-S ) :   0.8465 B(  2-C , 14-O ) :   0.1155 
B(  2-C , 15-O ) :   0.1531 B(  2-C , 16-H ) :   0.1874 B(  2-C , 17-H ) :   0.1626 
B(  4-H ,  5-S ) :   0.1204 B(  5-S , 13-O ) :   1.4555 B(  5-S , 14-O ) :   1.3590 
B(  5-S , 15-O ) :   1.1753 B(  6-C ,  7-N ) :   1.0569 B(  6-C ,  8-N ) :   1.2064 
B(  6-C , 10-H ) :  -0.2432 B(  6-C , 11-H ) :  -0.1392 B(  6-C , 12-H ) :  -0.1716 
B(  6-C , 18-H ) :   0.1786 B(  6-C , 19-H ) :   0.1021 B(  7-N ,  8-N ) :   0.1838 
B(  7-N , 11-H ) :   1.1750 B(  7-N , 12-H ) :   1.3129 B(  8-N ,  9-H ) :   1.0871 
B(  8-N , 10-H ) :   1.2695 B(  9-H , 10-H ) :  -0.2529 B(  9-H , 15-O ) :   0.2470 
B( 11-H , 12-H ) :  -0.1959 B( 16-H , 17-H ) :  -0.1197 

-------
TIMINGS
-------

Total SCF time: 0 days 0 hours 0 min 20 sec 

Total time                  ....      20.059 sec
Sum of individual times     ....      19.745 sec  ( 98.4%)

Fock matrix formation       ....      17.966 sec  ( 89.6%)
  Split-RI-J                ....       5.174 sec  ( 28.8% of F)
  XC integration            ....      12.672 sec  ( 70.5% of F)
    Basis function eval.    ....       3.860 sec  ( 30.5% of XC)
    Density eval.           ....       3.722 sec  ( 29.4% of XC)
    XC-Functional eval.     ....       0.342 sec  (  2.7% of XC)
    XC-Potential eval.      ....       4.274 sec  ( 33.7% of XC)
Diagonalization             ....       0.142 sec  (  0.7%)
Density matrix formation    ....       0.017 sec  (  0.1%)
Population analysis         ....       0.022 sec  (  0.1%)
Initial guess               ....       0.392 sec  (  2.0%)
Orbital Transformation      ....       0.000 sec  (  0.0%)
Orbital Orthonormalization  ....       0.000 sec  (  0.0%)
DIIS solution               ....       0.072 sec  (  0.4%)
SOSCF solution              ....       0.237 sec  (  1.2%)
Grid generation             ....       0.896 sec  (  4.5%)

Maximum memory used throughout the entire SCF-calculation: 38.2 MB


-------------------------------------------------------------------------------
                          DFT DISPERSION CORRECTION                            
                                                                               
                              DFTD3 V3.1  Rev 1                                
                          USING Becke-Johnson damping                          
-------------------------------------------------------------------------------
The BLYP functional is recognized
Active option DFTDOPT                   ...         4   

molecular C6(AA) [au] = 4217.201618 


            DFT-D V3
 parameters
 s6 scaling factor         :     1.0000 
 a1 scaling factor         :     0.4298 
 s8 scaling factor         :     2.6996 
 a2 scaling factor         :     4.2359 
 ad hoc parameters k1-k3   :    16.0000     1.3333    -4.0000 

 Edisp/kcal,au: -29.565187778931  -0.047115120723 
 E6   /kcal   : -11.701098706 
 E8   /kcal   : -17.864089073 
 % E8         :  60.422714737 

-------------------------   ----------------
Dispersion correction           -0.047115121
-------------------------   ----------------


-------------------------   --------------------
FINAL SINGLE POINT ENERGY      -891.200221865640
-------------------------   --------------------


                            ***************************************
                            *     ORCA property calculations      *
                            ***************************************

                                    ---------------------
                                    Active property flags
                                    ---------------------
   (+) Dipole Moment


------------------------------------------------------------------------------
                       ORCA ELECTRIC PROPERTIES CALCULATION
------------------------------------------------------------------------------

Dipole Moment Calculation                       ... on
Quadrupole Moment Calculation                   ... off
Polarizability Calculation                      ... off
GBWName                                         ... 28Oct_SVPD_BLYP_B_wt_wb97.gbw
Electron density file                           ... 28Oct_SVPD_BLYP_B_wt_wb97.scfp
The origin for moment calculation is the CENTER OF MASS  = ( 1.862221,  2.202059 -9.754085)

-------------
DIPOLE MOMENT
-------------
                                X             Y             Z
Electronic contribution:      3.13665      -7.71960       1.12814
Nuclear contribution   :     -5.91573      12.15027      -4.18945
                        -----------------------------------------
Total Dipole Moment    :     -2.77908       4.43068      -3.06132
                        -----------------------------------------
Magnitude (a.u.)       :      6.06018
Magnitude (Debye)      :     15.40376



--------------------
Rotational spectrum 
--------------------
 
Rotational constants in cm-1:     0.082044     0.024757     0.022371 
Rotational constants in MHz :  2459.631375   742.181961   670.660570 

 Dipole components along the rotational axes: 
x,y,z [a.u.] :    -5.981416     0.262653     0.937821 
x,y,z [Debye]:   -15.203551     0.667611     2.383751 

 

Timings for individual modules:

Sum of individual times         ...       21.025 sec (=   0.350 min)
GTO integral calculation        ...        0.608 sec (=   0.010 min)   2.9 %
SCF iterations                  ...       20.418 sec (=   0.340 min)  97.1 %
                             ****ORCA TERMINATED NORMALLY****
TOTAL RUN TIME: 0 days 0 hours 0 minutes 21 seconds 610 msec
