
                                        *****************
                                        * O   R   C   A *
                                        *****************

                                            #,                                       
                                            ###                                      
                                            ####                                     
                                            #####                                    
                                            ######                                   
                                           ########,                                 
                                     ,,################,,,,,                         
                               ,,#################################,,                 
                          ,,##########################################,,             
                       ,#########################################, ''#####,          
                    ,#############################################,,   '####,        
                  ,##################################################,,,,####,       
                ,###########''''           ''''###############################       
              ,#####''   ,,,,##########,,,,          '''####'''          '####       
            ,##' ,,,,###########################,,,                        '##       
           ' ,,###''''                  '''############,,,                           
         ,,##''                                '''############,,,,        ,,,,,,###''
      ,#''                                            '''#######################'''  
     '                                                          ''''####''''         
             ,#######,   #######,   ,#######,      ##                                
            ,#'     '#,  ##    ##  ,#'     '#,    #''#        ######   ,####,        
            ##       ##  ##   ,#'  ##            #'  '#       #        #'  '#        
            ##       ##  #######   ##           ,######,      #####,   #    #        
            '#,     ,#'  ##    ##  '#,     ,#' ,#      #,         ##   #,  ,#        
             '#######'   ##     ##  '#######'  #'      '#     #####' # '####'        



                  #######################################################
                  #                        -***-                        #
                  #          Department of theory and spectroscopy      #
                  #    Directorship and core code : Frank Neese         #
                  #        Max Planck Institute fuer Kohlenforschung    #
                  #                Kaiser Wilhelm Platz 1               #
                  #                 D-45470 Muelheim/Ruhr               #
                  #                      Germany                        #
                  #                                                     #
                  #                  All rights reserved                #
                  #                        -***-                        #
                  #######################################################


                         Program Version 5.0.0 -  RELEASE  -
                                (SVN: $Rev: 19529$)
                ($Date: 2021-06-28 11:36:33 +0200 (Mo, 28 Jun 2021) $)


 With contributions from (in alphabetic order):
   Daniel Aravena         : Magnetic Suceptibility
   Michael Atanasov       : Ab Initio Ligand Field Theory (pilot matlab implementation)
   Alexander A. Auer      : GIAO ZORA, VPT2 properties, NMR spectrum
   Ute Becker             : Parallelization
   Giovanni Bistoni       : ED, misc. LED, open-shell LED, HFLD
   Martin Brehm           : Molecular dynamics
   Dmytro Bykov           : SCF Hessian
   Vijay G. Chilkuri      : MRCI spin determinant printing, contributions to CSF-ICE
   Dipayan Datta          : RHF DLPNO-CCSD density
   Achintya Kumar Dutta   : EOM-CC, STEOM-CC
   Dmitry Ganyushin       : Spin-Orbit,Spin-Spin,Magnetic field MRCI
   Miquel Garcia          : C-PCM Hessian, Gaussian charge scheme
   Yang Guo               : DLPNO-NEVPT2, F12-NEVPT2, CIM, IAO-localization
   Andreas Hansen         : Spin unrestricted coupled pair/coupled cluster methods
   Benjamin Helmich-Paris : MC-RPA, TRAH-SCF, COSX integrals
   Lee Huntington         : MR-EOM, pCC
   Robert Izsak           : Overlap fitted RIJCOSX, COSX-SCS-MP3, EOM
   Marcus Kettner         : VPT2
   Christian Kollmar      : KDIIS, OOCD, Brueckner-CCSD(T), CCSD density, CASPT2, CASPT2-K
   Simone Kossmann        : Meta GGA functionals, TD-DFT gradient, OOMP2, MP2 Hessian
   Martin Krupicka        : Initial AUTO-CI
   Lucas Lang             : DCDCAS
   Marvin Lechner         : AUTO-CI (C++ implementation), FIC-MRCC
   Dagmar Lenk            : GEPOL surface, SMD
   Dimitrios Liakos       : Extrapolation schemes; Compound Job, initial MDCI parallelization
   Dimitrios Manganas     : Further ROCIS development; embedding schemes
   Dimitrios Pantazis     : SARC Basis sets
   Anastasios Papadopoulos: AUTO-CI, single reference methods and gradients
   Taras Petrenko         : DFT Hessian,TD-DFT gradient, ASA, ECA, R-Raman, ABS, FL, XAS/XES, NRVS
   Peter Pinski           : DLPNO-MP2, DLPNO-MP2 Gradient
   Christoph Reimann      : Effective Core Potentials
   Marius Retegan         : Local ZFS, SOC
   Christoph Riplinger    : Optimizer, TS searches, QM/MM, DLPNO-CCSD(T), (RO)-DLPNO pert. Triples
   Tobias Risthaus        : Range-separated hybrids, TD-DFT gradient, RPA, STAB
   Michael Roemelt        : Original ROCIS implementation
   Masaaki Saitow         : Open-shell DLPNO-CCSD energy and density
   Barbara Sandhoefer     : DKH picture change effects
   Avijit Sen             : IP-ROCIS
   Kantharuban Sivalingam : CASSCF convergence, NEVPT2, FIC-MRCI
   Bernardo de Souza      : ESD, SOC TD-DFT
   Georgi Stoychev        : AutoAux, RI-MP2 NMR
   Willem Van den Heuvel  : Paramagnetic NMR
   Boris Wezisla          : Elementary symmetry handling
   Frank Wennmohs         : Technical directorship


 We gratefully acknowledge several colleagues who have allowed us to
 interface, adapt or use parts of their codes:
   Stefan Grimme, W. Hujo, H. Kruse, P. Pracht,  : VdW corrections, initial TS optimization,
                  C. Bannwarth, S. Ehlert          DFT functionals, gCP, sTDA/sTD-DF
   Ed Valeev, F. Pavosevic, A. Kumar             : LibInt (2-el integral package), F12 methods
   Garnet Chan, S. Sharma, J. Yang, R. Olivares  : DMRG
   Ulf Ekstrom                                   : XCFun DFT Library
   Mihaly Kallay                                 : mrcc  (arbitrary order and MRCC methods)
   Jiri Pittner, Ondrej Demel                    : Mk-CCSD
   Frank Weinhold                                : gennbo (NPA and NBO analysis)
   Christopher J. Cramer and Donald G. Truhlar   : smd solvation model
   Lars Goerigk                                  : TD-DFT with DH, B97 family of functionals
   V. Asgeirsson, H. Jonsson                     : NEB implementation
   FAccTs GmbH                                   : IRC, NEB, NEB-TS, DLPNO-Multilevel, CI-OPT
                                                   MM, QMMM, 2- and 3-layer-ONIOM, Crystal-QMMM,
                                                   LR-CPCM, SF, NACMEs, symmetry and pop. for TD-DFT,
                                                   nearIR, NL-DFT gradient (VV10), updates on ESD,
                                                   ML-optimized integration grids
   S Lehtola, MJT Oliveira, MAL Marques          : LibXC Library
   Liviu Ungur et al                             : ANISO software


 Your calculation uses the libint2 library for the computation of 2-el integrals
 For citations please refer to: http://libint.valeyev.net

 Your ORCA version has been built with support for libXC version: 5.1.0
 For citations please refer to: https://tddft.org/programs/libxc/

 This ORCA versions uses:
   CBLAS   interface :  Fast vector & matrix operations
   LAPACKE interface :  Fast linear algebra routines
   SCALAPACK package :  Parallel linear algebra routines
   Shared memory     :  Shared parallel matrices
   BLAS/LAPACK       :  OpenBLAS 0.3.15  USE64BITINT DYNAMIC_ARCH NO_AFFINITY Haswell SINGLE_THREADED
        Core in use  :  Haswell
   Copyright (c) 2011-2014, The OpenBLAS Project


Your calculation utilizes the atom-pairwise dispersion correction
with the zero-damping scheme (D30)
Cite in your paper:
S.Grimme, J.Antony, S.Ehrlich and H.Krieg, J.Chem.Phys., 132, (2010), 154104 
   

XCFun DFT library Copyright 2009-2010 Ulf Ekstrom and contributors.
See http://admol.org/xcfun for more information.
This is free software; see the source code for copying conditions.
There is ABSOLUTELY NO WARRANTY; not even for MERCHANTABILITY or FITNESS FOR A PARTICULAR PURPOSE.
For details see the documentation.
Scientific users of this library should cite U. Ekstrom, L. Visscher, R. Bast, A. J. Thorvaldsen and K. Ruud;
J.Chem.Theor.Comp. 2010, DOI: 10.1021/ct100117s
XCFun Version 0.99 

================================================================================

----- Orbital basis set information -----
Your calculation utilizes the basis: def2-SVP
   F. Weigend and R. Ahlrichs, Phys. Chem. Chem. Phys. 7, 3297 (2005).

----- AuxJ basis set information -----
Your calculation utilizes the auxiliary basis: def2/J
   F. Weigend, Phys. Chem. Chem. Phys. 8, 1057 (2006).

================================================================================
                                        WARNINGS
                       Please study these warnings very carefully!
================================================================================


INFO   : the flag for use of the SHARK integral package has been found!

================================================================================
                                       INPUT FILE
================================================================================
NAME = C2_pos.com
|  1> !wB97X-D3 RIJCOSX def2-SVP def2/J TightSCF 
|  2> *xyz 0 1 
|  3> C          3.48828        1.60092       -1.52204
|  4> C          4.34297        1.31342       -2.75683
|  5> N          2.81029        0.42878       -1.01420
|  6> H          5.13203        0.60499       -2.48447
|  7> C          3.53590        0.74925       -3.92460
|  8> H          4.84125        2.24214       -3.05408
|  9> H          2.71455        2.33145       -1.76030
| 10> H          4.09099        2.06315       -0.73338
| 11> C          3.29098       -0.41802       -0.12908
| 12> C          2.51754       -1.43202        0.23936
| 13> N          4.53549       -0.28441        0.39580
| 14> H          5.04363        0.57189        0.22290
| 15> H          4.72335       -0.73327        1.28180
| 16> H          1.93479        0.10230       -1.40379
| 17> H          1.67464       -1.50562       -0.31610
| 18> H          2.92850       -2.21850        0.72549
| 19> H          4.18704        0.56990       -4.75451
| 20> H          2.78096        1.45217       -4.20898
| 21> H          3.07436       -0.16949       -3.62832
| 22> *
| 23> %MaxCore 64000
| 24> 
| 25> %pal nprocs 18
| 26> end  
| 27> 
| 28> %scf
| 29>   MaxIter 150
| 30> end
| 31> 
| 32> 
| 33>                          ****END OF INPUT****
================================================================================

                       ****************************
                       * Single Point Calculation *
                       ****************************

---------------------------------
CARTESIAN COORDINATES (ANGSTROEM)
---------------------------------
  C      3.488280    1.600920   -1.522040
  C      4.342970    1.313420   -2.756830
  N      2.810290    0.428780   -1.014200
  H      5.132030    0.604990   -2.484470
  C      3.535900    0.749250   -3.924600
  H      4.841250    2.242140   -3.054080
  H      2.714550    2.331450   -1.760300
  H      4.090990    2.063150   -0.733380
  C      3.290980   -0.418020   -0.129080
  C      2.517540   -1.432020    0.239360
  N      4.535490   -0.284410    0.395800
  H      5.043630    0.571890    0.222900
  H      4.723350   -0.733270    1.281800
  H      1.934790    0.102300   -1.403790
  H      1.674640   -1.505620   -0.316100
  H      2.928500   -2.218500    0.725490
  H      4.187040    0.569900   -4.754510
  H      2.780960    1.452170   -4.208980
  H      3.074360   -0.169490   -3.628320

----------------------------
CARTESIAN COORDINATES (A.U.)
----------------------------
  NO LB      ZA    FRAG     MASS         X           Y           Z
   0 C     6.0000    0    12.011    6.591894    3.025300   -2.876239
   1 C     6.0000    0    12.011    8.207024    2.482004   -5.209654
   2 N     7.0000    0    14.007    5.310678    0.810277   -1.916560
   3 H     1.0000    0     1.008    9.698131    1.143265   -4.694968
   4 C     6.0000    0    12.011    6.681883    1.415877   -7.416419
   5 H     1.0000    0     1.008    9.148637    4.237031   -5.771375
   6 H     1.0000    0     1.008    5.129756    4.405802   -3.326485
   7 H     1.0000    0     1.008    7.730851    3.898788   -1.385887
   8 C     6.0000    0    12.011    6.219051   -0.789943   -0.243926
   9 C     6.0000    0    12.011    4.757461   -2.706126    0.452325
  10 N     7.0000    0    14.007    8.570834   -0.537457    0.747954
  11 H     1.0000    0     1.008    9.531079    1.080715    0.421220
  12 H     1.0000    0     1.008    8.925838   -1.385679    2.422251
  13 H     1.0000    0     1.008    3.656223    0.193319   -2.652779
  14 H     1.0000    0     1.008    3.164611   -2.845209   -0.597342
  15 H     1.0000    0     1.008    5.534063   -4.192357    1.370977
  16 H     1.0000    0     1.008    7.912359    1.076955   -8.984722
  17 H     1.0000    0     1.008    5.255253    2.744204   -7.953820
  18 H     1.0000    0     1.008    5.809698   -0.320290   -6.856531

--------------------------------
INTERNAL COORDINATES (ANGSTROEM)
--------------------------------
 C      0   0   0     0.000000000000     0.00000000     0.00000000
 C      1   0   0     1.529005425170     0.00000000     0.00000000
 N      1   2   0     1.446196420027   113.15647526     0.00000000
 H      2   1   3     1.094837302114   108.88286054   297.46237499
 C      2   1   3     1.527526283473   113.04704254    59.25317797
 H      2   1   3     1.095062262750   108.30627380   181.72995780
 H      1   2   3     1.090458628926   110.25141732   240.62087931
 H      1   2   3     1.094943154963   110.69312197   124.42402746
 C      3   1   2     1.315891534474   125.91025238    89.02804164
 C      9   3   1     1.327461286516   117.73705795   178.95874270
 N      9   3   1     1.357260397492   122.12206254   358.50918587
 H     11   9   3     1.010618800340   118.57313099    10.64293628
 H     11   9   3     1.010822773388   117.75308784   158.14426892
 H      3   1   2     1.012358537525   122.11879420   277.16183776
 H     10   9   3     1.012142866200   112.85787808     8.15033951
 H     10   9   3     1.011810895820   119.37039034   164.55796622
 H      5   2   1     1.070000154299   109.47101777   179.99982193
 H      5   2   1     1.070001361868   109.47103773    60.00027570
 H      5   2   1     1.069992615675   109.47195647   300.00054596

---------------------------
INTERNAL COORDINATES (A.U.)
---------------------------
 C      0   0   0     0.000000000000     0.00000000     0.00000000
 C      1   0   0     2.889401510852     0.00000000     0.00000000
 N      1   2   0     2.732915169709   113.15647526     0.00000000
 H      2   1   3     2.068942662196   108.88286054   297.46237499
 C      2   1   3     2.886606338130   113.04704254    59.25317797
 H      2   1   3     2.069367776190   108.30627380   181.72995780
 H      1   2   3     2.060668169042   110.25141732   240.62087931
 H      1   2   3     2.069142695091   110.69312197   124.42402746
 C      3   1   2     2.486674622101   125.91025238    89.02804164
 C      9   3   1     2.508538284899   117.73705795   178.95874270
 N      9   3   1     2.564850443677   122.12206254   358.50918587
 H     11   9   3     1.909792758434   118.57313099    10.64293628
 H     11   9   3     1.910178211634   117.75308784   158.14426892
 H      3   1   2     1.913080385260   122.11879420   277.16183776
 H     10   9   3     1.912672825521   112.85787808     8.15033951
 H     10   9   3     1.912045492417   119.37039034   164.55796622
 H      5   2   1     2.022007254879   109.47101777   179.99982193
 H      5   2   1     2.022009536854   109.47103773    60.00027570
 H      5   2   1     2.021993008945   109.47195647   300.00054596

---------------------
BASIS SET INFORMATION
---------------------
There are 3 groups of distinct atoms

 Group   1 Type C   : 7s4p1d contracted to 3s2p1d pattern {511/31/1}
 Group   2 Type N   : 7s4p1d contracted to 3s2p1d pattern {511/31/1}
 Group   3 Type H   : 4s1p contracted to 2s1p pattern {31/1}

Atom   0C    basis set group =>   1
Atom   1C    basis set group =>   1
Atom   2N    basis set group =>   2
Atom   3H    basis set group =>   3
Atom   4C    basis set group =>   1
Atom   5H    basis set group =>   3
Atom   6H    basis set group =>   3
Atom   7H    basis set group =>   3
Atom   8C    basis set group =>   1
Atom   9C    basis set group =>   1
Atom  10N    basis set group =>   2
Atom  11H    basis set group =>   3
Atom  12H    basis set group =>   3
Atom  13H    basis set group =>   3
Atom  14H    basis set group =>   3
Atom  15H    basis set group =>   3
Atom  16H    basis set group =>   3
Atom  17H    basis set group =>   3
Atom  18H    basis set group =>   3
---------------------------------
AUXILIARY/J BASIS SET INFORMATION
---------------------------------
There are 3 groups of distinct atoms

 Group   1 Type C   : 12s5p4d2f1g contracted to 6s4p3d1f1g pattern {711111/2111/211/2/1}
 Group   2 Type N   : 12s5p4d2f1g contracted to 6s4p3d1f1g pattern {711111/2111/211/2/1}
 Group   3 Type H   : 5s2p1d contracted to 3s1p1d pattern {311/2/1}

Atom   0C    basis set group =>   1
Atom   1C    basis set group =>   1
Atom   2N    basis set group =>   2
Atom   3H    basis set group =>   3
Atom   4C    basis set group =>   1
Atom   5H    basis set group =>   3
Atom   6H    basis set group =>   3
Atom   7H    basis set group =>   3
Atom   8C    basis set group =>   1
Atom   9C    basis set group =>   1
Atom  10N    basis set group =>   2
Atom  11H    basis set group =>   3
Atom  12H    basis set group =>   3
Atom  13H    basis set group =>   3
Atom  14H    basis set group =>   3
Atom  15H    basis set group =>   3
Atom  16H    basis set group =>   3
Atom  17H    basis set group =>   3
Atom  18H    basis set group =>   3


           ************************************************************
           *        Program running with 18 parallel MPI-processes    *
           *              working on a common directory               *
           ************************************************************
------------------------------------------------------------------------------
                           ORCA GTO INTEGRAL CALCULATION
                           -- RI-GTO INTEGRALS CHOSEN --
------------------------------------------------------------------------------
------------------------------------------------------------------------------
                   ___                                                        
                  /   \      - P O W E R E D   B Y -                         
                 /     \                                                     
                 |  |  |   _    _      __       _____    __    __             
                 |  |  |  | |  | |    /  \     |  _  \  |  |  /  |          
                  \  \/   | |  | |   /    \    | | | |  |  | /  /          
                 / \  \   | |__| |  /  /\  \   | |_| |  |  |/  /          
                |  |  |   |  __  | /  /__\  \  |    /   |      \           
                |  |  |   | |  | | |   __   |  |    \   |  |\   \          
                \     /   | |  | | |  |  |  |  | |\  \  |  | \   \       
                 \___/    |_|  |_| |__|  |__|  |_| \__\ |__|  \__/        
                                                                              
                      - O R C A' S   B I G   F R I E N D -                    
                                      &                                       
                       - I N T E G R A L  F E E D E R -                       
                                                                              
 v1 FN, 2020, v2 2021                                                         
------------------------------------------------------------------------------


Reading SHARK input file C2_pos.SHARKINP.tmp ... ok
----------------------
SHARK INTEGRAL PACKAGE
----------------------

Number of atoms                             ...     19
Number of basis functions                   ...    158
Number of shells                            ...     78
Maximum angular momentum                    ...      2
Integral batch strategy                     ... SHARK/LIBINT Hybrid
RI-J (if used) integral strategy            ... SPLIT-RIJ (Revised 2003 algorithm where possible)
Printlevel                                  ...      1
Contraction scheme used                     ... SEGMENTED contraction
Coulomb Range Separation                    ... NOT USED
Exchange Range Separation                   ... Long Range
   Mu parameter                             ...  0.250000
   Scaling (regular/separated)              ...  0.195728  0.804272
Finite Nucleus Model                        ... NOT USED
Auxiliary Coulomb fitting basis             ... AVAILABLE
   # of basis functions in Aux-J            ...    475
   # of shells in Aux-J                     ...    165
   Maximum angular momentum in Aux-J        ...      4
Auxiliary J/K fitting basis                 ... NOT available
Auxiliary Correlation fitting basis         ... NOT available
Auxiliary 'external' fitting basis          ... NOT available
Integral threshold                          ...     2.500000e-11
Primitive cut-off                           ...     2.500000e-12
Primitive pair pre-selection threshold      ...     2.500000e-12

Calculating pre-screening integrals         ... done (  0.0 sec) Dimension = 78
Organizing shell pair data                  ... done (  0.0 sec)
Shell pair information
Total number of shell pairs                 ...      3081
Shell pairs after pre-screening             ...      2923
Total number of primitive shell pairs       ...     10567
Primitive shell pairs kept                  ...      7542
          la=0 lb=0:    989 shell pairs
          la=1 lb=0:   1110 shell pairs
          la=1 lb=1:    326 shell pairs
          la=2 lb=0:    297 shell pairs
          la=2 lb=1:    173 shell pairs
          la=2 lb=2:     28 shell pairs

Calculating one electron integrals          ... done (  0.0 sec)
Calculating RI/J V-Matrix + Cholesky decomp.... done (  0.0 sec)
Calculating Nuclear repulsion               ... done (  0.0 sec) ENN=    320.557984005964 Eh

SHARK setup successfully completed in   0.2 seconds

Maximum memory used throughout the entire GTOINT-calculation: 8.9 MB


           ************************************************************
           *        Program running with 18 parallel MPI-processes    *
           *              working on a common directory               *
           ************************************************************
-------------------------------------------------------------------------------
                                 ORCA SCF
-------------------------------------------------------------------------------

------------
SCF SETTINGS
------------
Hamiltonian:
 Density Functional     Method          .... DFT(GTOs)
 Exchange Functional    Exchange        .... WB97X-D3
 Correlation Functional Correlation     .... WB97X-D3
 Gradients option       PostSCFGGA      .... off
 Hybrid DFT is turned on
   Fraction HF Exchange ScalHFX         ....  0.195728
   Scaling of DF-GGA-X  ScalDFX         ....  0.000000
   Scaling of DF-GGA-C  ScalDFC         ....  1.000000
   Scaling of DF-LDA-C  ScalLDAC        ....  1.000000
   Perturbative correction              ....  0.000000
   Density functional embedding theory  .... OFF
 Long-range corrected/Screened/Range-Separated Hybrid DFT is turned on
   Amount of maximum screened exact exchange              ....  0.804272
   Range separation parameter mu (erf(mu*r12)/r12)        ....  0.250000
 RI-approximation to the Coulomb term is turned on
   Number of AuxJ basis functions       .... 475
   RIJ-COSX (HFX calculated with COS-X)).... on


General Settings:
 Integral files         IntName         .... C2_pos
 Hartree-Fock type      HFTyp           .... RHF
 Total Charge           Charge          ....    0
 Multiplicity           Mult            ....    1
 Number of Electrons    NEL             ....   56
 Basis Dimension        Dim             ....  158
 Nuclear Repulsion      ENuc            ....    320.5579840060 Eh

Convergence Acceleration:
 DIIS                   CNVDIIS         .... on
   Start iteration      DIISMaxIt       ....    12
   Startup error        DIISStart       ....  0.200000
   # of expansion vecs  DIISMaxEq       ....     5
   Bias factor          DIISBfac        ....   1.050
   Max. coefficient     DIISMaxC        ....  10.000
 Trust-Rad. Augm. Hess. CNVTRAH         .... auto
   Auto Start mean grad. ratio tolernc. ....  1.125000
   Auto Start start iteration           ....    20
   Auto Start num. interpolation iter.  ....    10
   Max. Number of Micro iterations      ....    16
   Max. Number of Macro iterations      .... Maxiter - #DIIS iter
   Number of Davidson start vectors     ....     2
   Converg. threshold I  (grad. norm)   ....   1.000e-05
   Converg. threshold II (energy diff.) ....   1.000e-08
   Grad. Scal. Fac. for Micro threshold ....   0.100
   Minimum threshold for Micro iter.    ....   0.010
   NR start threshold (gradient norm)   ....   0.001
   Initial trust radius                 ....   0.400
   Minimum AH scaling param. (alpha)    ....   1.000
   Maximum AH scaling param. (alpha)    .... 1000.000
   Orbital update algorithm             .... Taylor
   White noise on init. David. guess    .... on
   Maximum white noise                  ....   0.010
   Quad. conv. algorithm                .... NR
 SOSCF                  CNVSOSCF        .... on
   Start iteration      SOSCFMaxIt      ....   150
   Startup grad/error   SOSCFStart      ....  0.003300
 Level Shifting         CNVShift        .... on
   Level shift para.    LevelShift      ....    0.2500
   Turn off err/grad.   ShiftErr        ....    0.0010
 Zerner damping         CNVZerner       .... off
 Static damping         CNVDamp         .... on
   Fraction old density DampFac         ....    0.7000
   Max. Damping (<1)    DampMax         ....    0.9800
   Min. Damping (>=0)   DampMin         ....    0.0000
   Turn off err/grad.   DampErr         ....    0.1000
 Fernandez-Rico         CNVRico         .... off

SCF Procedure:
 Maximum # iterations   MaxIter         ....   150
 SCF integral mode      SCFMode         .... Direct
   Integral package                     .... SHARK and LIBINT hybrid scheme
 Reset frequency        DirectResetFreq ....    20
 Integral Threshold     Thresh          ....  2.500e-11 Eh
 Primitive CutOff       TCut            ....  2.500e-12 Eh

Convergence Tolerance:
 Convergence Check Mode ConvCheckMode   .... Total+1el-Energy
 Convergence forced     ConvForced      .... 0
 Energy Change          TolE            ....  1.000e-08 Eh
 1-El. energy change                    ....  1.000e-05 Eh
 Orbital Gradient       TolG            ....  1.000e-05
 Orbital Rotation angle TolX            ....  1.000e-05
 DIIS Error             TolErr          ....  5.000e-07


Diagonalization of the overlap matrix:
Smallest eigenvalue                        ... 1.610e-03
Time for diagonalization                   ...    0.006 sec
Threshold for overlap eigenvalues          ... 1.000e-08
Number of eigenvalues below threshold      ... 0
Time for construction of square roots      ...    0.011 sec
Total time needed                          ...    0.018 sec

Time for model grid setup =    0.074 sec

------------------------------
INITIAL GUESS: MODEL POTENTIAL
------------------------------
Loading Hartree-Fock densities                     ... done
Calculating cut-offs                               ... done
Initializing the effective Hamiltonian             ... done
Setting up the integral package (SHARK)            ... done
Starting the Coulomb interaction                   ... done (   0.0 sec)
Reading the grid                                   ... done
Mapping shells                                     ... done
Starting the XC term evaluation                    ... done (   0.0 sec)
  promolecular density results
     # of electrons  =     55.991100825
     EX              =    -42.293095650
     EC              =     -1.841508502
     EX+EC           =    -44.134604152
Transforming the Hamiltonian                       ... done (   0.0 sec)
Diagonalizing the Hamiltonian                      ... done (   0.0 sec)
Back transforming the eigenvectors                 ... done (   0.0 sec)
Now organizing SCF variables                       ... done
                      ------------------
                      INITIAL GUESS DONE (   0.1 sec)
                      ------------------
-------------------
DFT GRID GENERATION
-------------------

General Integration Accuracy     IntAcc      ... 4.388
Radial Grid Type                 RadialGrid  ... OptM3 with GC (2021)
Angular Grid (max. ang.)         AngularGrid ... 4 (Lebedev-302)
Angular grid pruning method      GridPruning ... 4 (adaptive)
Weight generation scheme         WeightScheme... Becke
Basis function cutoff            BFCut       ... 1.0000e-11
Integration weight cutoff        WCut        ... 1.0000e-14
Angular grids for H and He will be reduced by one unit
Partially contracted basis set               ... off
Rotationally invariant grid construction     ... off

Total number of grid points                  ...    80702
Total number of batches                      ...     1272
Average number of points per batch           ...       63
Average number of grid points per atom       ...     4247
Time for grid setup =    0.419 sec

--------------------
COSX GRID GENERATION
--------------------

GRIDX 1
-------
General Integration Accuracy     IntAcc      ... 3.816
Radial Grid Type                 RadialGrid  ... OptM3 with GC (2021)
Angular Grid (max. ang.)         AngularGrid ... 1 (Lebedev-50)
Angular grid pruning method      GridPruning ... 4 (adaptive)
Weight generation scheme         WeightScheme... Becke
Basis function cutoff            BFCut       ... 1.0000e-11
Integration weight cutoff        WCut        ... 1.0000e-14
Angular grids for H and He will be reduced by one unit
Partially contracted basis set               ... on
Rotationally invariant grid construction     ... off

Total number of grid points                  ...    10368
Total number of batches                      ...      173
Average number of points per batch           ...       59
Average number of grid points per atom       ...      546
UseSFitting                                  ... on

GRIDX 2
-------
General Integration Accuracy     IntAcc      ... 4.020
Radial Grid Type                 RadialGrid  ... OptM3 with GC (2021)
Angular Grid (max. ang.)         AngularGrid ... 2 (Lebedev-110)
Angular grid pruning method      GridPruning ... 4 (adaptive)
Weight generation scheme         WeightScheme... Becke
Basis function cutoff            BFCut       ... 1.0000e-11
Integration weight cutoff        WCut        ... 1.0000e-14
Angular grids for H and He will be reduced by one unit
Partially contracted basis set               ... on
Rotationally invariant grid construction     ... off

Total number of grid points                  ...    21671
Total number of batches                      ...      347
Average number of points per batch           ...       62
Average number of grid points per atom       ...     1141
UseSFitting                                  ... on

GRIDX 3
-------
General Integration Accuracy     IntAcc      ... 4.338
Radial Grid Type                 RadialGrid  ... OptM3 with GC (2021)
Angular Grid (max. ang.)         AngularGrid ... 3 (Lebedev-194)
Angular grid pruning method      GridPruning ... 4 (adaptive)
Weight generation scheme         WeightScheme... Becke
Basis function cutoff            BFCut       ... 1.0000e-11
Integration weight cutoff        WCut        ... 1.0000e-14
Angular grids for H and He will be reduced by one unit
Partially contracted basis set               ... on
Rotationally invariant grid construction     ... off

Total number of grid points                  ...    47250
Total number of batches                      ...      748
Average number of points per batch           ...       63
Average number of grid points per atom       ...     2487
UseSFitting                                  ... on

Time for X-Grid setup             =    0.279 sec

--------------
SCF ITERATIONS
--------------
ITER       Energy         Delta-E        Max-DP      RMS-DP      [F,P]     Damp
               ***  Starting incremental Fock matrix formation  ***
  0   -306.6210385565   0.000000000000 0.08591366  0.00221270  0.2236859 0.7000
  1   -306.7362102946  -0.115171738126 0.05792571  0.00161552  0.1361685 0.7000
                               ***Turning on DIIS***
  2   -306.7963529975  -0.060142702847 0.11287250  0.00314138  0.0709084 0.0000
  3   -306.8918168859  -0.095463888491 0.04429654  0.00105426  0.0514371 0.0000
  4   -306.9061970310  -0.014380145026 0.00743065  0.00019679  0.0090314 0.0000
                      *** Initiating the SOSCF procedure ***
                           *** Shutting down DIIS ***
                      *** Re-Reading the Fockian *** 
                      *** Removing any level shift *** 
ITER      Energy       Delta-E        Grad      Rot      Max-DP    RMS-DP
  5   -306.90657402  -0.0003769908  0.000917  0.000917  0.001955  0.000076
               *** Restarting incremental Fock matrix formation ***
  6   -306.90648239   0.0000916291  0.000390  0.000922  0.001609  0.000054
  7   -306.90649158  -0.0000091877  0.000273  0.001044  0.001037  0.000040
  8   -306.90649361  -0.0000020331  0.000098  0.000205  0.000249  0.000010
  9   -306.90649388  -0.0000002704  0.000023  0.000029  0.000061  0.000003
 10   -306.90649391  -0.0000000231  0.000007  0.000018  0.000032  0.000001
                  ***Gradient check signals convergence***
              ***Rediagonalizing the Fockian in SOSCF/NRSCF***

               *****************************************************
               *                     SUCCESS                       *
               *           SCF CONVERGED AFTER  11 CYCLES          *
               *****************************************************

Old exchange energy                            =    -14.516622391 Eh
New exchange energy                            =    -14.516680128 Eh
Exchange energy change after final integration =     -0.000057737 Eh
Total energy after final integration           =   -306.906551651 Eh
Final COS-X integration done in                =     1.117 sec

----------------
TOTAL SCF ENERGY
----------------

Total Energy       :         -306.90655165 Eh           -8351.35184 eV

Components:
Nuclear Repulsion  :          320.55798401 Eh            8722.82620 eV
Electronic Energy  :         -627.46453566 Eh          -17074.17805 eV
One Electron Energy:        -1048.25233238 Eh          -28524.39612 eV
Two Electron Energy:          420.78779673 Eh           11450.21807 eV
Max COSX asymmetry :            0.00000261 Eh               0.00007 eV

Virial components:
Potential Energy   :         -610.89972731 Eh          -16623.42670 eV
Kinetic Energy     :          303.99317566 Eh            8272.07485 eV
Virial Ratio       :            2.00958369


DFT components:
N(Alpha)           :       28.000042710656 electrons
N(Beta)            :       28.000042710656 electrons
N(Total)           :       56.000085421312 electrons
E(XC)              :      -31.010712920594 Eh       
DFET-embed. en.    :        0.000000000000 Eh       

---------------
SCF CONVERGENCE
---------------

  Last Energy change         ...   -7.3564e-09  Tolerance :   1.0000e-08
  Last MAX-Density change    ...    3.1086e-15  Tolerance :   1.0000e-07
  Last RMS-Density change    ...    4.5432e-17  Tolerance :   5.0000e-09
  Last Orbital Gradient      ...    1.9817e-06  Tolerance :   1.0000e-05
  Last Orbital Rotation      ...    4.2987e-06  Tolerance :   1.0000e-05

             **** THE GBW FILE WAS UPDATED (C2_pos.gbw) ****
             **** DENSITY C2_pos.scfp WAS UPDATED ****
             **** ENERGY FILE WAS UPDATED (C2_pos.en.tmp) ****
             **** THE GBW FILE WAS UPDATED (C2_pos.gbw) ****
             **** DENSITY C2_pos.scfp WAS UPDATED ****
----------------
ORBITAL ENERGIES
----------------

  NO   OCC          E(Eh)            E(eV) 
   0   2.0000     -14.431256      -392.6944 
   1   2.0000     -14.429362      -392.6429 
   2   2.0000     -10.328877      -281.0630 
   3   2.0000     -10.328478      -281.0522 
   4   2.0000     -10.288482      -279.9638 
   5   2.0000     -10.276642      -279.6416 
   6   2.0000     -10.191781      -277.3325 
   7   2.0000      -1.075020       -29.2528 
   8   2.0000      -0.985969       -26.8296 
   9   2.0000      -0.900449       -24.5025 
  10   2.0000      -0.832719       -22.6594 
  11   2.0000      -0.773352       -21.0440 
  12   2.0000      -0.710022       -19.3207 
  13   2.0000      -0.690298       -18.7840 
  14   2.0000      -0.631569       -17.1859 
  15   2.0000      -0.600999       -16.3540 
  16   2.0000      -0.575559       -15.6618 
  17   2.0000      -0.554640       -15.0925 
  18   2.0000      -0.540500       -14.7077 
  19   2.0000      -0.508556       -13.8385 
  20   2.0000      -0.484317       -13.1789 
  21   2.0000      -0.477447       -12.9920 
  22   2.0000      -0.468200       -12.7404 
  23   2.0000      -0.443551       -12.0696 
  24   2.0000      -0.442611       -12.0440 
  25   2.0000      -0.433920       -11.8076 
  26   2.0000      -0.345362        -9.3978 
  27   2.0000      -0.241947        -6.5837 
  28   0.0000       0.128476         3.4960 
  29   0.0000       0.149657         4.0724 
  30   0.0000       0.162961         4.4344 
  31   0.0000       0.181740         4.9454 
  32   0.0000       0.186524         5.0756 
  33   0.0000       0.204224         5.5572 
  34   0.0000       0.214900         5.8477 
  35   0.0000       0.221196         6.0191 
  36   0.0000       0.237115         6.4522 
  37   0.0000       0.247267         6.7285 
  38   0.0000       0.259166         7.0523 
  39   0.0000       0.270716         7.3666 
  40   0.0000       0.274594         7.4721 
  41   0.0000       0.297257         8.0888 
  42   0.0000       0.325963         8.8699 
  43   0.0000       0.338109         9.2004 
  44   0.0000       0.385870        10.5000 
  45   0.0000       0.439017        11.9463 
  46   0.0000       0.478367        13.0170 
  47   0.0000       0.503599        13.7036 
  48   0.0000       0.520388        14.1605 
  49   0.0000       0.521801        14.1989 
  50   0.0000       0.548008        14.9121 
  51   0.0000       0.555694        15.1212 
  52   0.0000       0.575027        15.6473 
  53   0.0000       0.622296        16.9335 
  54   0.0000       0.636125        17.3098 
  55   0.0000       0.648376        17.6432 
  56   0.0000       0.677231        18.4284 
  57   0.0000       0.683807        18.6073 
  58   0.0000       0.707859        19.2618 
  59   0.0000       0.732738        19.9388 
  60   0.0000       0.738445        20.0941 
  61   0.0000       0.744054        20.2468 
  62   0.0000       0.756766        20.5926 
  63   0.0000       0.771931        21.0053 
  64   0.0000       0.782088        21.2817 
  65   0.0000       0.787631        21.4325 
  66   0.0000       0.799230        21.7482 
  67   0.0000       0.806701        21.9514 
  68   0.0000       0.809135        22.0177 
  69   0.0000       0.825719        22.4690 
  70   0.0000       0.839764        22.8512 
  71   0.0000       0.849702        23.1216 
  72   0.0000       0.857597        23.3364 
  73   0.0000       0.878037        23.8926 
  74   0.0000       0.909491        24.7485 
  75   0.0000       0.936700        25.4889 
  76   0.0000       0.975166        26.5356 
  77   0.0000       1.002952        27.2917 
  78   0.0000       1.034289        28.1444 
  79   0.0000       1.051530        28.6136 
  80   0.0000       1.088481        29.6191 
  81   0.0000       1.109185        30.1825 
  82   0.0000       1.140331        31.0300 
  83   0.0000       1.185516        32.2595 
  84   0.0000       1.227823        33.4108 
  85   0.0000       1.271181        34.5906 
  86   0.0000       1.280489        34.8439 
  87   0.0000       1.338728        36.4286 
  88   0.0000       1.421720        38.6870 
  89   0.0000       1.435160        39.0527 
  90   0.0000       1.444195        39.2986 
  91   0.0000       1.451109        39.4867 
  92   0.0000       1.506997        41.0075 
  93   0.0000       1.554634        42.3037 
  94   0.0000       1.599190        43.5162 
  95   0.0000       1.648157        44.8486 
  96   0.0000       1.667564        45.3767 
  97   0.0000       1.686319        45.8871 
  98   0.0000       1.756988        47.8101 
  99   0.0000       1.802404        49.0459 
 100   0.0000       1.825097        49.6634 
 101   0.0000       1.834831        49.9283 
 102   0.0000       1.854611        50.4665 
 103   0.0000       1.883638        51.2564 
 104   0.0000       1.889734        51.4223 
 105   0.0000       1.902896        51.7804 
 106   0.0000       1.911703        52.0201 
 107   0.0000       1.918610        52.2080 
 108   0.0000       1.928552        52.4786 
 109   0.0000       1.936332        52.6903 
 110   0.0000       1.949344        53.0444 
 111   0.0000       1.974351        53.7248 
 112   0.0000       1.988339        54.1055 
 113   0.0000       1.990679        54.1691 
 114   0.0000       2.011668        54.7403 
 115   0.0000       2.018299        54.9207 
 116   0.0000       2.068230        56.2794 
 117   0.0000       2.072729        56.4018 
 118   0.0000       2.104528        57.2671 
 119   0.0000       2.149828        58.4998 
 120   0.0000       2.167469        58.9798 
 121   0.0000       2.184112        59.4327 
 122   0.0000       2.263491        61.5927 
 123   0.0000       2.271880        61.8210 
 124   0.0000       2.292789        62.3899 
 125   0.0000       2.365421        64.3664 
 126   0.0000       2.390358        65.0450 
 127   0.0000       2.407492        65.5112 
 128   0.0000       2.426685        66.0335 
 129   0.0000       2.451238        66.7016 
 130   0.0000       2.472082        67.2688 
 131   0.0000       2.524442        68.6936 
 132   0.0000       2.541500        69.1577 
 133   0.0000       2.566552        69.8394 
 134   0.0000       2.618308        71.2478 
 135   0.0000       2.673697        72.7550 
 136   0.0000       2.684892        73.0596 
 137   0.0000       2.708333        73.6975 
 138   0.0000       2.731219        74.3202 
 139   0.0000       2.762736        75.1779 
 140   0.0000       2.846302        77.4518 
 141   0.0000       2.865941        77.9862 
 142   0.0000       2.955724        80.4294 
 143   0.0000       2.966551        80.7240 
 144   0.0000       2.994546        81.4857 
 145   0.0000       3.025573        82.3300 
 146   0.0000       3.059830        83.2622 
 147   0.0000       3.086320        83.9830 
 148   0.0000       3.094463        84.2046 
 149   0.0000       3.123771        85.0021 
 150   0.0000       3.178381        86.4881 
 151   0.0000       3.182662        86.6046 
 152   0.0000       3.207849        87.2900 
 153   0.0000       3.276417        89.1559 
 154   0.0000       3.330605        90.6304 
 155   0.0000       3.420760        93.0836 
 156   0.0000       3.687725       100.3481 
 157   0.0000       3.751467       102.0826 

                    ********************************
                    * MULLIKEN POPULATION ANALYSIS *
                    ********************************

-----------------------
MULLIKEN ATOMIC CHARGES
-----------------------
   0 C :    0.068168
   1 C :   -0.060882
   2 N :   -0.174750
   3 H :    0.026521
   4 C :   -0.033605
   5 H :    0.023849
   6 H :    0.025695
   7 H :    0.025672
   8 C :   -0.019165
   9 C :   -0.114810
  10 N :   -0.138450
  11 H :    0.108098
  12 H :    0.136658
  13 H :    0.136762
  14 H :   -0.056943
  15 H :   -0.036700
  16 H :    0.034586
  17 H :    0.018741
  18 H :    0.030555
Sum of atomic charges:    0.0000000

--------------------------------
MULLIKEN REDUCED ORBITAL CHARGES
--------------------------------
  0 C s       :     3.014230  s :     3.014230
      pz      :     0.981322  p :     2.865883
      px      :     0.987573
      py      :     0.896988
      dz2     :     0.008831  d :     0.051718
      dxz     :     0.012355
      dyz     :     0.009445
      dx2y2   :     0.007540
      dxy     :     0.013548
  1 C s       :     3.033909  s :     3.033909
      pz      :     0.966816  p :     2.990931
      px      :     1.010935
      py      :     1.013180
      dz2     :     0.008670  d :     0.036043
      dxz     :     0.008967
      dyz     :     0.005607
      dx2y2   :     0.003214
      dxy     :     0.009584
  2 N s       :     3.298063  s :     3.298063
      pz      :     1.409693  p :     3.854348
      px      :     1.213108
      py      :     1.231546
      dz2     :     0.003673  d :     0.022339
      dxz     :     0.003359
      dyz     :     0.005305
      dx2y2   :     0.004572
      dxy     :     0.005431
  3 H s       :     0.951106  s :     0.951106
      pz      :     0.004317  p :     0.022372
      px      :     0.009079
      py      :     0.008976
  4 C s       :     2.992443  s :     2.992443
      pz      :     0.993517  p :     3.012267
      px      :     1.002942
      py      :     1.015808
      dz2     :     0.005412  d :     0.028894
      dxz     :     0.008173
      dyz     :     0.004100
      dx2y2   :     0.002898
      dxy     :     0.008311
  5 H s       :     0.953811  s :     0.953811
      pz      :     0.004656  p :     0.022340
      px      :     0.006259
      py      :     0.011425
  6 H s       :     0.952620  s :     0.952620
      pz      :     0.004584  p :     0.021684
      px      :     0.009142
      py      :     0.007959
  7 H s       :     0.952291  s :     0.952291
      pz      :     0.009011  p :     0.022036
      px      :     0.007298
      py      :     0.005727
  8 C s       :     3.011460  s :     3.011460
      pz      :     0.958896  p :     2.912312
      px      :     0.970696
      py      :     0.982720
      dz2     :     0.020127  d :     0.095394
      dxz     :     0.018844
      dyz     :     0.015244
      dx2y2   :     0.022260
      dxy     :     0.018919
  9 C s       :     3.003310  s :     3.003310
      pz      :     1.156469  p :     3.086136
      px      :     0.951123
      py      :     0.978544
      dz2     :     0.001985  d :     0.025363
      dxz     :     0.006628
      dyz     :     0.003546
      dx2y2   :     0.005702
      dxy     :     0.007503
 10 N s       :     3.286098  s :     3.286098
      pz      :     1.308604  p :     3.836183
      px      :     1.239293
      py      :     1.288287
      dz2     :     0.004250  d :     0.016169
      dxz     :     0.002667
      dyz     :     0.001348
      dx2y2   :     0.004342
      dxy     :     0.003560
 11 H s       :     0.845000  s :     0.845000
      pz      :     0.011631  p :     0.046902
      px      :     0.013826
      py      :     0.021445
 12 H s       :     0.817965  s :     0.817965
      pz      :     0.021786  p :     0.045378
      px      :     0.009059
      py      :     0.014532
 13 H s       :     0.818041  s :     0.818041
      pz      :     0.012832  p :     0.045197
      px      :     0.021981
      py      :     0.010384
 14 H s       :     1.026117  s :     1.026117
      pz      :     0.010348  p :     0.030826
      px      :     0.014151
      py      :     0.006327
 15 H s       :     1.006507  s :     1.006507
      pz      :     0.010771  p :     0.030193
      px      :     0.007249
      py      :     0.012173
 16 H s       :     0.940651  s :     0.940651
      pz      :     0.010608  p :     0.024763
      px      :     0.008657
      py      :     0.005498
 17 H s       :     0.956424  s :     0.956424
      pz      :     0.005564  p :     0.024835
      px      :     0.009871
      py      :     0.009400
 18 H s       :     0.944234  s :     0.944234
      pz      :     0.005849  p :     0.025211
      px      :     0.006784
      py      :     0.012578


                     *******************************
                     * LOEWDIN POPULATION ANALYSIS *
                     *******************************

----------------------
LOEWDIN ATOMIC CHARGES
----------------------
   0 C :    0.028701
   1 C :   -0.056994
   2 N :   -0.026846
   3 H :    0.022548
   4 C :   -0.056702
   5 H :    0.022260
   6 H :    0.024335
   7 H :    0.019157
   8 C :    0.049338
   9 C :   -0.266677
  10 N :   -0.039894
  11 H :    0.061103
  12 H :    0.084653
  13 H :    0.085823
  14 H :   -0.011299
  15 H :   -0.007397
  16 H :    0.026763
  17 H :    0.019638
  18 H :    0.021489

-------------------------------
LOEWDIN REDUCED ORBITAL CHARGES
-------------------------------
  0 C s       :     2.824095  s :     2.824095
      pz      :     1.032949  p :     3.024192
      px      :     1.040124
      py      :     0.951119
      dz2     :     0.020714  d :     0.123013
      dxz     :     0.032525
      dyz     :     0.021111
      dx2y2   :     0.016307
      dxy     :     0.032357
  1 C s       :     2.840947  s :     2.840947
      pz      :     1.023377  p :     3.127551
      px      :     1.045451
      py      :     1.058723
      dz2     :     0.020107  d :     0.088496
      dxz     :     0.023817
      dyz     :     0.013354
      dx2y2   :     0.007289
      dxy     :     0.023929
  2 N s       :     3.012768  s :     3.012768
      pz      :     1.405147  p :     3.957026
      px      :     1.265226
      py      :     1.286652
      dz2     :     0.008017  d :     0.057051
      dxz     :     0.009588
      dyz     :     0.013130
      dx2y2   :     0.012903
      dxy     :     0.013413
  3 H s       :     0.910419  s :     0.910419
      pz      :     0.014908  p :     0.067034
      px      :     0.027344
      py      :     0.024781
  4 C s       :     2.816169  s :     2.816169
      pz      :     1.040420  p :     3.165937
      px      :     1.058757
      py      :     1.066760
      dz2     :     0.013623  d :     0.074596
      dxz     :     0.021986
      dyz     :     0.010688
      dx2y2   :     0.006947
      dxy     :     0.021352
  5 H s       :     0.911151  s :     0.911151
      pz      :     0.015705  p :     0.066589
      px      :     0.019180
      py      :     0.031704
  6 H s       :     0.910060  s :     0.910060
      pz      :     0.014197  p :     0.065605
      px      :     0.026887
      py      :     0.024520
  7 H s       :     0.915189  s :     0.915189
      pz      :     0.027549  p :     0.065654
      px      :     0.020830
      py      :     0.017276
  8 C s       :     2.797480  s :     2.797480
      pz      :     0.937267  p :     2.933467
      px      :     0.978196
      py      :     1.018003
      dz2     :     0.043605  d :     0.219715
      dxz     :     0.042115
      dyz     :     0.036238
      dx2y2   :     0.052869
      dxy     :     0.044887
  9 C s       :     2.822093  s :     2.822093
      pz      :     1.209116  p :     3.371231
      px      :     1.080230
      py      :     1.081885
      dz2     :     0.004834  d :     0.073353
      dxz     :     0.016879
      dyz     :     0.011741
      dx2y2   :     0.017358
      dxy     :     0.022540
 10 N s       :     3.024807  s :     3.024807
      pz      :     1.349742  p :     3.972171
      px      :     1.281578
      py      :     1.340851
      dz2     :     0.010969  d :     0.042916
      dxz     :     0.007107
      dyz     :     0.004143
      dx2y2   :     0.010886
      dxy     :     0.009811
 11 H s       :     0.811068  s :     0.811068
      pz      :     0.029615  p :     0.127830
      px      :     0.037332
      py      :     0.060883
 12 H s       :     0.792411  s :     0.792411
      pz      :     0.061225  p :     0.122936
      px      :     0.024145
      py      :     0.037566
 13 H s       :     0.788454  s :     0.788454
      pz      :     0.036524  p :     0.125723
      px      :     0.060357
      py      :     0.028842
 14 H s       :     0.921622  s :     0.921622
      pz      :     0.032994  p :     0.089677
      px      :     0.038165
      py      :     0.018519
 15 H s       :     0.918048  s :     0.918048
      pz      :     0.033632  p :     0.089349
      px      :     0.021972
      py      :     0.033745
 16 H s       :     0.903554  s :     0.903554
      pz      :     0.030504  p :     0.069684
      px      :     0.024196
      py      :     0.014984
 17 H s       :     0.910734  s :     0.910734
      pz      :     0.016350  p :     0.069629
      px      :     0.027617
      py      :     0.025661
 18 H s       :     0.907634  s :     0.907634
      pz      :     0.017206  p :     0.070876
      px      :     0.019141
      py      :     0.034529


                      *****************************
                      * MAYER POPULATION ANALYSIS *
                      *****************************

  NA   - Mulliken gross atomic population
  ZA   - Total nuclear charge
  QA   - Mulliken gross atomic charge
  VA   - Mayer's total valence
  BVA  - Mayer's bonded valence
  FA   - Mayer's free valence

  ATOM       NA         ZA         QA         VA         BVA        FA
  0 C      5.9318     6.0000     0.0682     4.0295     4.0295    -0.0000
  1 C      6.0609     6.0000    -0.0609     4.0120     4.0120     0.0000
  2 N      7.1747     7.0000    -0.1747     3.1752     3.1752    -0.0000
  3 H      0.9735     1.0000     0.0265     0.9923     0.9923     0.0000
  4 C      6.0336     6.0000    -0.0336     4.0067     4.0067    -0.0000
  5 H      0.9762     1.0000     0.0238     0.9790     0.9790    -0.0000
  6 H      0.9743     1.0000     0.0257     0.9864     0.9864    -0.0000
  7 H      0.9743     1.0000     0.0257     0.9905     0.9905    -0.0000
  8 C      6.0192     6.0000    -0.0192     4.3998     4.3998     0.0000
  9 C      6.1148     6.0000    -0.1148     3.7311     3.7311     0.0000
 10 N      7.1385     7.0000    -0.1385     3.1728     3.1728    -0.0000
 11 H      0.8919     1.0000     0.1081     1.0146     1.0146     0.0000
 12 H      0.8633     1.0000     0.1367     0.9979     0.9979     0.0000
 13 H      0.8632     1.0000     0.1368     0.9970     0.9970    -0.0000
 14 H      1.0569     1.0000    -0.0569     1.0008     1.0008     0.0000
 15 H      1.0367     1.0000    -0.0367     1.0018     1.0018     0.0000
 16 H      0.9654     1.0000     0.0346     0.9901     0.9901    -0.0000
 17 H      0.9813     1.0000     0.0187     0.9910     0.9910     0.0000
 18 H      0.9694     1.0000     0.0306     1.0055     1.0055     0.0000

  Mayer bond orders larger than 0.100000
B(  0-C ,  1-C ) :   1.0500 B(  0-C ,  2-N ) :   1.0041 B(  0-C ,  6-H ) :   0.9548 
B(  0-C ,  7-H ) :   0.9563 B(  1-C ,  3-H ) :   0.9483 B(  1-C ,  4-C ) :   1.0764 
B(  1-C ,  5-H ) :   0.9511 B(  2-N ,  8-C ) :   1.2044 B(  2-N , 13-H ) :   0.9206 
B(  4-C , 16-H ) :   0.9740 B(  4-C , 17-H ) :   0.9777 B(  4-C , 18-H ) :   0.9741 
B(  8-C ,  9-C ) :   1.7448 B(  8-C , 10-N ) :   1.2062 B(  9-C , 14-H ) :   0.9362 
B(  9-C , 15-H ) :   0.9617 B( 10-N , 11-H ) :   0.9537 B( 10-N , 12-H ) :   0.9485 


-------
TIMINGS
-------

Total SCF time: 0 days 0 hours 0 min 8 sec 

Total time                  ....       8.232 sec
Sum of individual times     ....       8.029 sec  ( 97.5%)

Fock matrix formation       ....       7.070 sec  ( 85.9%)
  Split-RI-J                ....       0.592 sec  (  8.4% of F)
  Chain of spheres X        ....       5.675 sec  ( 80.3% of F)
  XC integration            ....       0.758 sec  ( 10.7% of F)
    Basis function eval.    ....       0.245 sec  ( 32.3% of XC)
    Density eval.           ....       0.126 sec  ( 16.7% of XC)
    XC-Functional eval.     ....       0.087 sec  ( 11.4% of XC)
    XC-Potential eval.      ....       0.118 sec  ( 15.6% of XC)
Diagonalization             ....       0.044 sec  (  0.5%)
Density matrix formation    ....       0.006 sec  (  0.1%)
Population analysis         ....       0.008 sec  (  0.1%)
Initial guess               ....       0.063 sec  (  0.8%)
Orbital Transformation      ....       0.000 sec  (  0.0%)
Orbital Orthonormalization  ....       0.000 sec  (  0.0%)
DIIS solution               ....       0.032 sec  (  0.4%)
SOSCF solution              ....       0.033 sec  (  0.4%)
Grid generation             ....       0.773 sec  (  9.4%)

Maximum memory used throughout the entire SCF-calculation: 52.4 MB


-------------------------------------------------------------------------------
                          DFT DISPERSION CORRECTION                            
                                                                               
                              DFTD3 V3.1  Rev 1                                
                              USING zero damping                               
-------------------------------------------------------------------------------
The omegaB97X-D3 functional is recognized. Fit by Chai et al.
Active option DFTDOPT                   ...         3   

molecular C6(AA) [au] = 2679.336524 


            DFT-D V3
 parameters
 s6 scaling factor         :     1.0000 
 rs6 scaling factor        :     1.2810 
 s8 scaling factor         :     1.0000 
 rs8 scaling factor        :     1.0940 
 Damping factor alpha6     :    14.0000 
 Damping factor alpha8     :    16.0000 
 ad hoc parameters k1-k3   :    16.0000     1.3333    -4.0000 

 Edisp/kcal,au: -3.358840199969  -0.005352652001 
 E6   /kcal   :  -1.427897359 
 E8   /kcal   :  -1.930942841 
 % E8         :  57.488380699 

-------------------------   ----------------
Dispersion correction           -0.005352652
-------------------------   ----------------


-------------------------   --------------------
FINAL SINGLE POINT ENERGY      -306.911904303104
-------------------------   --------------------


                            ***************************************
                            *     ORCA property calculations      *
                            ***************************************

                                    ---------------------
                                    Active property flags
                                    ---------------------
   (+) Dipole Moment


------------------------------------------------------------------------------
                       ORCA ELECTRIC PROPERTIES CALCULATION
------------------------------------------------------------------------------

Dipole Moment Calculation                       ... on
Quadrupole Moment Calculation                   ... off
Polarizability Calculation                      ... off
GBWName                                         ... C2_pos.gbw
Electron density file                           ... C2_pos.scfp
The origin for moment calculation is the CENTER OF MASS  = ( 6.653338,  0.550105 -2.379847)

-------------
DIPOLE MOMENT
-------------
                                X             Y             Z
Electronic contribution:     -0.25421      -0.76805       4.32582
Nuclear contribution   :      0.82404       1.70307      -4.68174
                        -----------------------------------------
Total Dipole Moment    :      0.56982       0.93502      -0.35592
                        -----------------------------------------
Magnitude (a.u.)       :      1.15137
Magnitude (Debye)      :      2.92654



--------------------
Rotational spectrum 
--------------------
 
Rotational constants in cm-1:     0.164049     0.050262     0.045260 
Rotational constants in MHz :  4918.051182  1506.829450  1356.872102 

 Dipole components along the rotational axes: 
x,y,z [a.u.] :    -0.828621     0.771479     0.209413 
x,y,z [Debye]:    -2.106187     1.960943     0.532286 

 

Timings for individual modules:

Sum of individual times         ...        9.211 sec (=   0.154 min)
GTO integral calculation        ...        0.584 sec (=   0.010 min)   6.3 %
SCF iterations                  ...        8.627 sec (=   0.144 min)  93.7 %
                             ****ORCA TERMINATED NORMALLY****
TOTAL RUN TIME: 0 days 0 hours 0 minutes 9 seconds 771 msec
