
                                        *****************
                                        * O   R   C   A *
                                        *****************

                                            #,                                       
                                            ###                                      
                                            ####                                     
                                            #####                                    
                                            ######                                   
                                           ########,                                 
                                     ,,################,,,,,                         
                               ,,#################################,,                 
                          ,,##########################################,,             
                       ,#########################################, ''#####,          
                    ,#############################################,,   '####,        
                  ,##################################################,,,,####,       
                ,###########''''           ''''###############################       
              ,#####''   ,,,,##########,,,,          '''####'''          '####       
            ,##' ,,,,###########################,,,                        '##       
           ' ,,###''''                  '''############,,,                           
         ,,##''                                '''############,,,,        ,,,,,,###''
      ,#''                                            '''#######################'''  
     '                                                          ''''####''''         
             ,#######,   #######,   ,#######,      ##                                
            ,#'     '#,  ##    ##  ,#'     '#,    #''#        ######   ,####,        
            ##       ##  ##   ,#'  ##            #'  '#       #        #'  '#        
            ##       ##  #######   ##           ,######,      #####,   #    #        
            '#,     ,#'  ##    ##  '#,     ,#' ,#      #,         ##   #,  ,#        
             '#######'   ##     ##  '#######'  #'      '#     #####' # '####'        



                  #######################################################
                  #                        -***-                        #
                  #          Department of theory and spectroscopy      #
                  #    Directorship and core code : Frank Neese         #
                  #        Max Planck Institute fuer Kohlenforschung    #
                  #                Kaiser Wilhelm Platz 1               #
                  #                 D-45470 Muelheim/Ruhr               #
                  #                      Germany                        #
                  #                                                     #
                  #                  All rights reserved                #
                  #                        -***-                        #
                  #######################################################


                         Program Version 5.0.0 -  RELEASE  -
                                (SVN: $Rev: 19529$)
                ($Date: 2021-06-28 11:36:33 +0200 (Mo, 28 Jun 2021) $)


 With contributions from (in alphabetic order):
   Daniel Aravena         : Magnetic Suceptibility
   Michael Atanasov       : Ab Initio Ligand Field Theory (pilot matlab implementation)
   Alexander A. Auer      : GIAO ZORA, VPT2 properties, NMR spectrum
   Ute Becker             : Parallelization
   Giovanni Bistoni       : ED, misc. LED, open-shell LED, HFLD
   Martin Brehm           : Molecular dynamics
   Dmytro Bykov           : SCF Hessian
   Vijay G. Chilkuri      : MRCI spin determinant printing, contributions to CSF-ICE
   Dipayan Datta          : RHF DLPNO-CCSD density
   Achintya Kumar Dutta   : EOM-CC, STEOM-CC
   Dmitry Ganyushin       : Spin-Orbit,Spin-Spin,Magnetic field MRCI
   Miquel Garcia          : C-PCM Hessian, Gaussian charge scheme
   Yang Guo               : DLPNO-NEVPT2, F12-NEVPT2, CIM, IAO-localization
   Andreas Hansen         : Spin unrestricted coupled pair/coupled cluster methods
   Benjamin Helmich-Paris : MC-RPA, TRAH-SCF, COSX integrals
   Lee Huntington         : MR-EOM, pCC
   Robert Izsak           : Overlap fitted RIJCOSX, COSX-SCS-MP3, EOM
   Marcus Kettner         : VPT2
   Christian Kollmar      : KDIIS, OOCD, Brueckner-CCSD(T), CCSD density, CASPT2, CASPT2-K
   Simone Kossmann        : Meta GGA functionals, TD-DFT gradient, OOMP2, MP2 Hessian
   Martin Krupicka        : Initial AUTO-CI
   Lucas Lang             : DCDCAS
   Marvin Lechner         : AUTO-CI (C++ implementation), FIC-MRCC
   Dagmar Lenk            : GEPOL surface, SMD
   Dimitrios Liakos       : Extrapolation schemes; Compound Job, initial MDCI parallelization
   Dimitrios Manganas     : Further ROCIS development; embedding schemes
   Dimitrios Pantazis     : SARC Basis sets
   Anastasios Papadopoulos: AUTO-CI, single reference methods and gradients
   Taras Petrenko         : DFT Hessian,TD-DFT gradient, ASA, ECA, R-Raman, ABS, FL, XAS/XES, NRVS
   Peter Pinski           : DLPNO-MP2, DLPNO-MP2 Gradient
   Christoph Reimann      : Effective Core Potentials
   Marius Retegan         : Local ZFS, SOC
   Christoph Riplinger    : Optimizer, TS searches, QM/MM, DLPNO-CCSD(T), (RO)-DLPNO pert. Triples
   Tobias Risthaus        : Range-separated hybrids, TD-DFT gradient, RPA, STAB
   Michael Roemelt        : Original ROCIS implementation
   Masaaki Saitow         : Open-shell DLPNO-CCSD energy and density
   Barbara Sandhoefer     : DKH picture change effects
   Avijit Sen             : IP-ROCIS
   Kantharuban Sivalingam : CASSCF convergence, NEVPT2, FIC-MRCI
   Bernardo de Souza      : ESD, SOC TD-DFT
   Georgi Stoychev        : AutoAux, RI-MP2 NMR
   Willem Van den Heuvel  : Paramagnetic NMR
   Boris Wezisla          : Elementary symmetry handling
   Frank Wennmohs         : Technical directorship


 We gratefully acknowledge several colleagues who have allowed us to
 interface, adapt or use parts of their codes:
   Stefan Grimme, W. Hujo, H. Kruse, P. Pracht,  : VdW corrections, initial TS optimization,
                  C. Bannwarth, S. Ehlert          DFT functionals, gCP, sTDA/sTD-DF
   Ed Valeev, F. Pavosevic, A. Kumar             : LibInt (2-el integral package), F12 methods
   Garnet Chan, S. Sharma, J. Yang, R. Olivares  : DMRG
   Ulf Ekstrom                                   : XCFun DFT Library
   Mihaly Kallay                                 : mrcc  (arbitrary order and MRCC methods)
   Jiri Pittner, Ondrej Demel                    : Mk-CCSD
   Frank Weinhold                                : gennbo (NPA and NBO analysis)
   Christopher J. Cramer and Donald G. Truhlar   : smd solvation model
   Lars Goerigk                                  : TD-DFT with DH, B97 family of functionals
   V. Asgeirsson, H. Jonsson                     : NEB implementation
   FAccTs GmbH                                   : IRC, NEB, NEB-TS, DLPNO-Multilevel, CI-OPT
                                                   MM, QMMM, 2- and 3-layer-ONIOM, Crystal-QMMM,
                                                   LR-CPCM, SF, NACMEs, symmetry and pop. for TD-DFT,
                                                   nearIR, NL-DFT gradient (VV10), updates on ESD,
                                                   ML-optimized integration grids
   S Lehtola, MJT Oliveira, MAL Marques          : LibXC Library
   Liviu Ungur et al                             : ANISO software


 Your calculation uses the libint2 library for the computation of 2-el integrals
 For citations please refer to: http://libint.valeyev.net

 Your ORCA version has been built with support for libXC version: 5.1.0
 For citations please refer to: https://tddft.org/programs/libxc/

 This ORCA versions uses:
   CBLAS   interface :  Fast vector & matrix operations
   LAPACKE interface :  Fast linear algebra routines
   SCALAPACK package :  Parallel linear algebra routines
   Shared memory     :  Shared parallel matrices
   BLAS/LAPACK       :  OpenBLAS 0.3.15  USE64BITINT DYNAMIC_ARCH NO_AFFINITY Haswell SINGLE_THREADED
        Core in use  :  Haswell
   Copyright (c) 2011-2014, The OpenBLAS Project


Your calculation utilizes the atom-pairwise dispersion correction
with the zero-damping scheme (D30)
Cite in your paper:
S.Grimme, J.Antony, S.Ehrlich and H.Krieg, J.Chem.Phys., 132, (2010), 154104 
   

XCFun DFT library Copyright 2009-2010 Ulf Ekstrom and contributors.
See http://admol.org/xcfun for more information.
This is free software; see the source code for copying conditions.
There is ABSOLUTELY NO WARRANTY; not even for MERCHANTABILITY or FITNESS FOR A PARTICULAR PURPOSE.
For details see the documentation.
Scientific users of this library should cite U. Ekstrom, L. Visscher, R. Bast, A. J. Thorvaldsen and K. Ruud;
J.Chem.Theor.Comp. 2010, DOI: 10.1021/ct100117s
XCFun Version 0.99 

================================================================================

----- Orbital basis set information -----
Your calculation utilizes the basis: def2-SVPD
   F. Weigend and R. Ahlrichs, Phys. Chem. Chem. Phys. 7, 3297 (2005).
   D. Rappoport and F. Furche, J. Chem. Phys. 133 134105 (2010).

----- AuxJ basis set information -----
Your calculation utilizes the auxiliary basis: def2/J
   F. Weigend, Phys. Chem. Chem. Phys. 8, 1057 (2006).

================================================================================
                                        WARNINGS
                       Please study these warnings very carefully!
================================================================================


INFO   : the flag for use of the SHARK integral package has been found!

================================================================================
                                       INPUT FILE
================================================================================
NAME = A_dlpno_new_neg.com
|  1> !wB97X-D3 RIJCOSX def2-SVPD def2/J TightSCF 
|  2> *xyz -1 1 
|  3> C          4.08422        1.74208       -2.11472
|  4> C          4.26524        2.50052       -0.79589
|  5> H          4.86853        3.39267       -0.98113
|  6> H          3.30764        2.82457       -0.38781
|  7> C          4.98224        1.65026        0.24742
|  8> O          4.36806        1.38927        1.31371
|  9> O          6.12892        1.23351       -0.04562
| 10> H          3.57911        2.36849       -2.81997
| 11> H          3.50424        0.85965       -1.94198
| 12> H          5.04288        1.46841       -2.50327
| 13> *
| 14> %MaxCore 64000
| 15> %pal nprocs 8
| 16> end  
| 17> %scf
| 18>   MaxIter 150
| 19> end
| 20> 
| 21> 
| 22>                          ****END OF INPUT****
================================================================================

                       ****************************
                       * Single Point Calculation *
                       ****************************

---------------------------------
CARTESIAN COORDINATES (ANGSTROEM)
---------------------------------
  C      4.084220    1.742080   -2.114720
  C      4.265240    2.500520   -0.795890
  H      4.868530    3.392670   -0.981130
  H      3.307640    2.824570   -0.387810
  C      4.982240    1.650260    0.247420
  O      4.368060    1.389270    1.313710
  O      6.128920    1.233510   -0.045620
  H      3.579110    2.368490   -2.819970
  H      3.504240    0.859650   -1.941980
  H      5.042880    1.468410   -2.503270

----------------------------
CARTESIAN COORDINATES (A.U.)
----------------------------
  NO LB      ZA    FRAG     MASS         X           Y           Z
   0 C     6.0000    0    12.011    7.718057    3.292054   -3.996242
   1 C     6.0000    0    12.011    8.060135    4.725298   -1.504014
   2 H     1.0000    0     1.008    9.200188    6.411217   -1.854067
   3 H     1.0000    0     1.008    6.250534    5.337664   -0.732855
   4 C     6.0000    0    12.011    9.415069    3.118539    0.467556
   5 O     8.0000    0    15.999    8.254437    2.625340    2.482552
   6 O     8.0000    0    15.999   11.581980    2.330996   -0.086209
   7 H     1.0000    0     1.008    6.763538    4.475797   -5.328971
   8 H     1.0000    0     1.008    6.622054    1.624503   -3.669810
   9 H     1.0000    0     1.008    9.529662    2.774893   -4.730495

--------------------------------
INTERNAL COORDINATES (ANGSTROEM)
--------------------------------
 C      0   0   0     0.000000000000     0.00000000     0.00000000
 C      1   0   0     1.532094005895     0.00000000     0.00000000
 H      2   1   0     1.092796552063   108.87198648     0.00000000
 H      2   1   3     1.090199728903   111.44297969   118.77367229
 C      2   1   3     1.524967810709   111.62069719   240.67919178
 O      5   2   1     1.257897935685   117.77857234   241.09553575
 O      5   2   1     1.254762139411   117.07011776    59.09626179
 H      1   2   3     1.070001477896   109.47114102   299.32086871
 H      1   2   3     1.069999351822   109.47110807   179.32095167
 H      1   2   3     1.069997835045   109.47163885    59.32110217

---------------------------
INTERNAL COORDINATES (A.U.)
---------------------------
 C      0   0   0     0.000000000000     0.00000000     0.00000000
 C      1   0   0     2.895238082564     0.00000000     0.00000000
 H      2   1   0     2.065086203492   108.87198648     0.00000000
 H      2   1   3     2.060178918902   111.44297969   118.77367229
 C      2   1   3     2.881771525286   111.62069719   240.67919178
 O      5   2   1     2.377082602869   117.77857234   241.09553575
 O      5   2   1     2.371156806700   117.07011776    59.09626179
 H      1   2   3     2.022009756115   109.47114102   299.32086871
 H      1   2   3     2.022005738417   109.47110807   179.32095167
 H      1   2   3     2.022002872123   109.47163885    59.32110217

---------------------
BASIS SET INFORMATION
---------------------
There are 3 groups of distinct atoms

 Group   1 Type C   : 8s4p2d contracted to 4s2p2d pattern {5111/31/11}
 Group   2 Type H   : 4s2p contracted to 2s2p pattern {31/11}
 Group   3 Type O   : 8s5p2d contracted to 4s3p2d pattern {5111/311/11}

Atom   0C    basis set group =>   1
Atom   1C    basis set group =>   1
Atom   2H    basis set group =>   2
Atom   3H    basis set group =>   2
Atom   4C    basis set group =>   1
Atom   5O    basis set group =>   3
Atom   6O    basis set group =>   3
Atom   7H    basis set group =>   2
Atom   8H    basis set group =>   2
Atom   9H    basis set group =>   2
---------------------------------
AUXILIARY/J BASIS SET INFORMATION
---------------------------------
There are 3 groups of distinct atoms

 Group   1 Type C   : 12s5p4d2f1g contracted to 6s4p3d1f1g pattern {711111/2111/211/2/1}
 Group   2 Type H   : 5s2p1d contracted to 3s1p1d pattern {311/2/1}
 Group   3 Type O   : 12s5p4d2f1g contracted to 6s4p3d1f1g pattern {711111/2111/211/2/1}

Atom   0C    basis set group =>   1
Atom   1C    basis set group =>   1
Atom   2H    basis set group =>   2
Atom   3H    basis set group =>   2
Atom   4C    basis set group =>   1
Atom   5O    basis set group =>   3
Atom   6O    basis set group =>   3
Atom   7H    basis set group =>   2
Atom   8H    basis set group =>   2
Atom   9H    basis set group =>   2


           ************************************************************
           *        Program running with 8 parallel MPI-processes     *
           *              working on a common directory               *
           ************************************************************
------------------------------------------------------------------------------
                           ORCA GTO INTEGRAL CALCULATION
                           -- RI-GTO INTEGRALS CHOSEN --
------------------------------------------------------------------------------
------------------------------------------------------------------------------
                   ___                                                        
                  /   \      - P O W E R E D   B Y -                         
                 /     \                                                     
                 |  |  |   _    _      __       _____    __    __             
                 |  |  |  | |  | |    /  \     |  _  \  |  |  /  |          
                  \  \/   | |  | |   /    \    | | | |  |  | /  /          
                 / \  \   | |__| |  /  /\  \   | |_| |  |  |/  /          
                |  |  |   |  __  | /  /__\  \  |    /   |      \           
                |  |  |   | |  | | |   __   |  |    \   |  |\   \          
                \     /   | |  | | |  |  |  |  | |\  \  |  | \   \       
                 \___/    |_|  |_| |__|  |__|  |_| \__\ |__|  \__/        
                                                                              
                      - O R C A' S   B I G   F R I E N D -                    
                                      &                                       
                       - I N T E G R A L  F E E D E R -                       
                                                                              
 v1 FN, 2020, v2 2021                                                         
------------------------------------------------------------------------------


Reading SHARK input file A_dlpno_new_neg.SHARKINP.tmp ... ok
----------------------
SHARK INTEGRAL PACKAGE
----------------------

Number of atoms                             ...     10
Number of basis functions                   ...    146
Number of shells                            ...     62
Maximum angular momentum                    ...      2
Integral batch strategy                     ... SHARK/LIBINT Hybrid
RI-J (if used) integral strategy            ... SPLIT-RIJ (Revised 2003 algorithm where possible)
Printlevel                                  ...      1
Contraction scheme used                     ... SEGMENTED contraction
Coulomb Range Separation                    ... NOT USED
Exchange Range Separation                   ... Long Range
   Mu parameter                             ...  0.250000
   Scaling (regular/separated)              ...  0.195728  0.804272
Finite Nucleus Model                        ... NOT USED
Auxiliary Coulomb fitting basis             ... AVAILABLE
   # of basis functions in Aux-J            ...    300
   # of shells in Aux-J                     ...    100
   Maximum angular momentum in Aux-J        ...      4
Auxiliary J/K fitting basis                 ... NOT available
Auxiliary Correlation fitting basis         ... NOT available
Auxiliary 'external' fitting basis          ... NOT available
Integral threshold                          ...     2.500000e-11
Primitive cut-off                           ...     2.500000e-12
Primitive pair pre-selection threshold      ...     2.500000e-12

Calculating pre-screening integrals         ... done (  0.0 sec) Dimension = 62
Organizing shell pair data                  ... done (  0.0 sec)
Shell pair information
Total number of shell pairs                 ...      1953
Shell pairs after pre-screening             ...      1938
Total number of primitive shell pairs       ...      5333
Primitive shell pairs kept                  ...      4533
          la=0 lb=0:    457 shell pairs
          la=1 lb=0:    655 shell pairs
          la=1 lb=1:    253 shell pairs
          la=2 lb=0:    298 shell pairs
          la=2 lb=1:    220 shell pairs
          la=2 lb=2:     55 shell pairs

Calculating one electron integrals          ... done (  0.0 sec)
Calculating RI/J V-Matrix + Cholesky decomp.... done (  0.0 sec)
Calculating Nuclear repulsion               ... done (  0.0 sec) ENN=    169.301072584409 Eh

SHARK setup successfully completed in   0.2 seconds

Maximum memory used throughout the entire GTOINT-calculation: 8.8 MB


           ************************************************************
           *        Program running with 8 parallel MPI-processes     *
           *              working on a common directory               *
           ************************************************************
-------------------------------------------------------------------------------
                                 ORCA SCF
-------------------------------------------------------------------------------

------------
SCF SETTINGS
------------
Hamiltonian:
 Density Functional     Method          .... DFT(GTOs)
 Exchange Functional    Exchange        .... WB97X-D3
 Correlation Functional Correlation     .... WB97X-D3
 Gradients option       PostSCFGGA      .... off
 Hybrid DFT is turned on
   Fraction HF Exchange ScalHFX         ....  0.195728
   Scaling of DF-GGA-X  ScalDFX         ....  0.000000
   Scaling of DF-GGA-C  ScalDFC         ....  1.000000
   Scaling of DF-LDA-C  ScalLDAC        ....  1.000000
   Perturbative correction              ....  0.000000
   Density functional embedding theory  .... OFF
 Long-range corrected/Screened/Range-Separated Hybrid DFT is turned on
   Amount of maximum screened exact exchange              ....  0.804272
   Range separation parameter mu (erf(mu*r12)/r12)        ....  0.250000
 RI-approximation to the Coulomb term is turned on
   Number of AuxJ basis functions       .... 300
   RIJ-COSX (HFX calculated with COS-X)).... on


General Settings:
 Integral files         IntName         .... A_dlpno_new_neg
 Hartree-Fock type      HFTyp           .... RHF
 Total Charge           Charge          ....   -1
 Multiplicity           Mult            ....    1
 Number of Electrons    NEL             ....   40
 Basis Dimension        Dim             ....  146
 Nuclear Repulsion      ENuc            ....    169.3010725844 Eh

Convergence Acceleration:
 DIIS                   CNVDIIS         .... on
   Start iteration      DIISMaxIt       ....    12
   Startup error        DIISStart       ....  0.200000
   # of expansion vecs  DIISMaxEq       ....     5
   Bias factor          DIISBfac        ....   1.050
   Max. coefficient     DIISMaxC        ....  10.000
 Trust-Rad. Augm. Hess. CNVTRAH         .... auto
   Auto Start mean grad. ratio tolernc. ....  1.125000
   Auto Start start iteration           ....    20
   Auto Start num. interpolation iter.  ....    10
   Max. Number of Micro iterations      ....    16
   Max. Number of Macro iterations      .... Maxiter - #DIIS iter
   Number of Davidson start vectors     ....     2
   Converg. threshold I  (grad. norm)   ....   1.000e-05
   Converg. threshold II (energy diff.) ....   1.000e-08
   Grad. Scal. Fac. for Micro threshold ....   0.100
   Minimum threshold for Micro iter.    ....   0.010
   NR start threshold (gradient norm)   ....   0.001
   Initial trust radius                 ....   0.400
   Minimum AH scaling param. (alpha)    ....   1.000
   Maximum AH scaling param. (alpha)    .... 1000.000
   Orbital update algorithm             .... Taylor
   White noise on init. David. guess    .... on
   Maximum white noise                  ....   0.010
   Quad. conv. algorithm                .... NR
 SOSCF                  CNVSOSCF        .... on
   Start iteration      SOSCFMaxIt      ....   150
   Startup grad/error   SOSCFStart      ....  0.003300
 Level Shifting         CNVShift        .... on
   Level shift para.    LevelShift      ....    0.2500
   Turn off err/grad.   ShiftErr        ....    0.0010
 Zerner damping         CNVZerner       .... off
 Static damping         CNVDamp         .... on
   Fraction old density DampFac         ....    0.7000
   Max. Damping (<1)    DampMax         ....    0.9800
   Min. Damping (>=0)   DampMin         ....    0.0000
   Turn off err/grad.   DampErr         ....    0.1000
 Fernandez-Rico         CNVRico         .... off

SCF Procedure:
 Maximum # iterations   MaxIter         ....   150
 SCF integral mode      SCFMode         .... Direct
   Integral package                     .... SHARK and LIBINT hybrid scheme
 Reset frequency        DirectResetFreq ....    20
 Integral Threshold     Thresh          ....  2.500e-11 Eh
 Primitive CutOff       TCut            ....  2.500e-12 Eh

Convergence Tolerance:
 Convergence Check Mode ConvCheckMode   .... Total+1el-Energy
 Convergence forced     ConvForced      .... 0
 Energy Change          TolE            ....  1.000e-08 Eh
 1-El. energy change                    ....  1.000e-05 Eh
 Orbital Gradient       TolG            ....  1.000e-05
 Orbital Rotation angle TolX            ....  1.000e-05
 DIIS Error             TolErr          ....  5.000e-07


Diagonalization of the overlap matrix:
Smallest eigenvalue                        ... 1.130e-04
Time for diagonalization                   ...    0.006 sec
Threshold for overlap eigenvalues          ... 1.000e-08
Number of eigenvalues below threshold      ... 0
Time for construction of square roots      ...    0.006 sec
Total time needed                          ...    0.013 sec

Time for model grid setup =    0.050 sec

------------------------------
INITIAL GUESS: MODEL POTENTIAL
------------------------------
Loading Hartree-Fock densities                     ... done
Calculating cut-offs                               ... done
Initializing the effective Hamiltonian             ... done
Setting up the integral package (SHARK)            ... done
Starting the Coulomb interaction                   ... done (   0.0 sec)
Reading the grid                                   ... done
Mapping shells                                     ... done
Starting the XC term evaluation                    ... done (   0.0 sec)
  promolecular density results
     # of electrons  =     38.996961431
     EX              =    -33.070039454
     EC              =     -1.283221731
     EX+EC           =    -34.353261185
Transforming the Hamiltonian                       ... done (   0.0 sec)
Diagonalizing the Hamiltonian                      ... done (   0.0 sec)
Back transforming the eigenvectors                 ... done (   0.0 sec)
Now organizing SCF variables                       ... done
                      ------------------
                      INITIAL GUESS DONE (   0.1 sec)
                      ------------------
-------------------
DFT GRID GENERATION
-------------------

General Integration Accuracy     IntAcc      ... 4.388
Radial Grid Type                 RadialGrid  ... OptM3 with GC (2021)
Angular Grid (max. ang.)         AngularGrid ... 4 (Lebedev-302)
Angular grid pruning method      GridPruning ... 4 (adaptive)
Weight generation scheme         WeightScheme... Becke
Basis function cutoff            BFCut       ... 1.0000e-11
Integration weight cutoff        WCut        ... 1.0000e-14
Angular grids for H and He will be reduced by one unit
Partially contracted basis set               ... off
Rotationally invariant grid construction     ... off

Total number of grid points                  ...    48177
Total number of batches                      ...      757
Average number of points per batch           ...       63
Average number of grid points per atom       ...     4818
Time for grid setup =    0.279 sec

--------------------
COSX GRID GENERATION
--------------------

GRIDX 1
-------
General Integration Accuracy     IntAcc      ... 3.816
Radial Grid Type                 RadialGrid  ... OptM3 with GC (2021)
Angular Grid (max. ang.)         AngularGrid ... 1 (Lebedev-50)
Angular grid pruning method      GridPruning ... 4 (adaptive)
Weight generation scheme         WeightScheme... Becke
Basis function cutoff            BFCut       ... 1.0000e-11
Integration weight cutoff        WCut        ... 1.0000e-14
Angular grids for H and He will be reduced by one unit
Partially contracted basis set               ... on
Rotationally invariant grid construction     ... off

Total number of grid points                  ...     6049
Total number of batches                      ...      100
Average number of points per batch           ...       60
Average number of grid points per atom       ...      605
UseSFitting                                  ... on

GRIDX 2
-------
General Integration Accuracy     IntAcc      ... 4.020
Radial Grid Type                 RadialGrid  ... OptM3 with GC (2021)
Angular Grid (max. ang.)         AngularGrid ... 2 (Lebedev-110)
Angular grid pruning method      GridPruning ... 4 (adaptive)
Weight generation scheme         WeightScheme... Becke
Basis function cutoff            BFCut       ... 1.0000e-11
Integration weight cutoff        WCut        ... 1.0000e-14
Angular grids for H and He will be reduced by one unit
Partially contracted basis set               ... on
Rotationally invariant grid construction     ... off

Total number of grid points                  ...    14256
Total number of batches                      ...      227
Average number of points per batch           ...       62
Average number of grid points per atom       ...     1426
UseSFitting                                  ... on

GRIDX 3
-------
General Integration Accuracy     IntAcc      ... 4.338
Radial Grid Type                 RadialGrid  ... OptM3 with GC (2021)
Angular Grid (max. ang.)         AngularGrid ... 3 (Lebedev-194)
Angular grid pruning method      GridPruning ... 4 (adaptive)
Weight generation scheme         WeightScheme... Becke
Basis function cutoff            BFCut       ... 1.0000e-11
Integration weight cutoff        WCut        ... 1.0000e-14
Angular grids for H and He will be reduced by one unit
Partially contracted basis set               ... on
Rotationally invariant grid construction     ... off

Total number of grid points                  ...    32159
Total number of batches                      ...      507
Average number of points per batch           ...       63
Average number of grid points per atom       ...     3216
UseSFitting                                  ... on

Time for X-Grid setup             =    0.235 sec

--------------
SCF ITERATIONS
--------------
ITER       Energy         Delta-E        Max-DP      RMS-DP      [F,P]     Damp
               ***  Starting incremental Fock matrix formation  ***
  0   -267.3192322810   0.000000000000 0.09801860  0.00304409  0.2760011 0.7000
  1   -267.4310497925  -0.111817511584 0.05702613  0.00206967  0.1383124 0.7000
                               ***Turning on DIIS***
  2   -267.4831181090  -0.052068316433 0.10162516  0.00410143  0.0541439 0.0000
  3   -267.5671314776  -0.084013368601 0.04926461  0.00162427  0.0713408 0.0000
  4   -267.5816035764  -0.014472098833 0.01413720  0.00039620  0.0075164 0.0000
                      *** Initiating the SOSCF procedure ***
                           *** Shutting down DIIS ***
                      *** Re-Reading the Fockian *** 
                      *** Removing any level shift *** 
ITER      Energy       Delta-E        Grad      Rot      Max-DP    RMS-DP
  5   -267.58196357  -0.0003599972  0.000615  0.000615  0.003012  0.000129
               *** Restarting incremental Fock matrix formation ***
  6   -267.58200964  -0.0000460685  0.000260  0.000497  0.004513  0.000107
  7   -267.58201543  -0.0000057830  0.000196  0.000490  0.003180  0.000078
  8   -267.58201593  -0.0000005058  0.000144  0.000154  0.000503  0.000017
  9   -267.58201639  -0.0000004566  0.000015  0.000014  0.000124  0.000005
 10   -267.58201639  -0.0000000059  0.000005  0.000009  0.000105  0.000003
                  ***Gradient check signals convergence***
              ***Rediagonalizing the Fockian in SOSCF/NRSCF***

               *****************************************************
               *                     SUCCESS                       *
               *           SCF CONVERGED AFTER  11 CYCLES          *
               *****************************************************

Old exchange energy                            =    -10.938180758 Eh
New exchange energy                            =    -10.938176698 Eh
Exchange energy change after final integration =      0.000004060 Eh
Total energy after final integration           =   -267.582012335 Eh
Final COS-X integration done in                =     1.360 sec

----------------
TOTAL SCF ENERGY
----------------

Total Energy       :         -267.58201234 Eh           -7281.27673 eV

Components:
Nuclear Repulsion  :          169.30107258 Eh            4606.91640 eV
Electronic Energy  :         -436.88308492 Eh          -11888.19312 eV
One Electron Energy:         -708.27784997 Eh          -19273.22013 eV
Two Electron Energy:          271.39476505 Eh            7385.02700 eV
Max COSX asymmetry :            0.00000184 Eh               0.00005 eV

Virial components:
Potential Energy   :         -532.64235890 Eh          -14493.93544 eV
Kinetic Energy     :          265.06034657 Eh            7212.65871 eV
Virial Ratio       :            2.00951355


DFT components:
N(Alpha)           :       20.000178560018 electrons
N(Beta)            :       20.000178560018 electrons
N(Total)           :       40.000357120036 electrons
E(XC)              :      -24.518312598389 Eh       
DFET-embed. en.    :        0.000000000000 Eh       

---------------
SCF CONVERGENCE
---------------

  Last Energy change         ...   -2.4247e-09  Tolerance :   1.0000e-08
  Last MAX-Density change    ...    2.2204e-15  Tolerance :   1.0000e-07
  Last RMS-Density change    ...    4.0186e-17  Tolerance :   5.0000e-09
  Last Orbital Gradient      ...    1.3726e-06  Tolerance :   1.0000e-05
  Last Orbital Rotation      ...    4.3200e-06  Tolerance :   1.0000e-05

             **** THE GBW FILE WAS UPDATED (A_dlpno_new_neg.gbw) ****
             **** DENSITY A_dlpno_new_neg.scfp WAS UPDATED ****
             **** ENERGY FILE WAS UPDATED (A_dlpno_new_neg.en.tmp) ****
             **** THE GBW FILE WAS UPDATED (A_dlpno_new_neg.gbw) ****
             **** DENSITY A_dlpno_new_neg.scfp WAS UPDATED ****
----------------
ORBITAL ENERGIES
----------------

  NO   OCC          E(Eh)            E(eV) 
   0   2.0000     -18.981169      -516.5039 
   1   2.0000     -18.981135      -516.5029 
   2   2.0000     -10.175764      -276.8966 
   3   2.0000     -10.128934      -275.6223 
   4   2.0000     -10.116175      -275.2751 
   5   2.0000      -0.927782       -25.2462 
   6   2.0000      -0.831183       -22.6176 
   7   2.0000      -0.717410       -19.5217 
   8   2.0000      -0.581969       -15.8362 
   9   2.0000      -0.424706       -11.5568 
  10   2.0000      -0.395215       -10.7544 
  11   2.0000      -0.360157        -9.8004 
  12   2.0000      -0.332197        -9.0395 
  13   2.0000      -0.313789        -8.5386 
  14   2.0000      -0.308171        -8.3858 
  15   2.0000      -0.275814        -7.5053 
  16   2.0000      -0.260866        -7.0985 
  17   2.0000      -0.143040        -3.8923 
  18   2.0000      -0.137524        -3.7422 
  19   2.0000      -0.124564        -3.3896 
  20   0.0000       0.223355         6.0778 
  21   0.0000       0.256209         6.9718 
  22   0.0000       0.266911         7.2630 
  23   0.0000       0.291717         7.9380 
  24   0.0000       0.314444         8.5564 
  25   0.0000       0.317902         8.6506 
  26   0.0000       0.328197         8.9307 
  27   0.0000       0.334869         9.1123 
  28   0.0000       0.345702         9.4070 
  29   0.0000       0.348266         9.4768 
  30   0.0000       0.365700         9.9512 
  31   0.0000       0.380007        10.3405 
  32   0.0000       0.384314        10.4577 
  33   0.0000       0.391345        10.6490 
  34   0.0000       0.401934        10.9372 
  35   0.0000       0.423279        11.5180 
  36   0.0000       0.429323        11.6825 
  37   0.0000       0.470880        12.8133 
  38   0.0000       0.493288        13.4231 
  39   0.0000       0.496461        13.5094 
  40   0.0000       0.507621        13.8131 
  41   0.0000       0.525816        14.3082 
  42   0.0000       0.537449        14.6247 
  43   0.0000       0.550359        14.9760 
  44   0.0000       0.567010        15.4291 
  45   0.0000       0.568700        15.4751 
  46   0.0000       0.579891        15.7796 
  47   0.0000       0.585175        15.9234 
  48   0.0000       0.595118        16.1940 
  49   0.0000       0.604269        16.4430 
  50   0.0000       0.618310        16.8251 
  51   0.0000       0.635752        17.2997 
  52   0.0000       0.643614        17.5136 
  53   0.0000       0.649277        17.6677 
  54   0.0000       0.662734        18.0339 
  55   0.0000       0.681028        18.5317 
  56   0.0000       0.693133        18.8611 
  57   0.0000       0.702246        19.1091 
  58   0.0000       0.725673        19.7466 
  59   0.0000       0.726237        19.7619 
  60   0.0000       0.733952        19.9719 
  61   0.0000       0.742808        20.2128 
  62   0.0000       0.759137        20.6572 
  63   0.0000       0.770004        20.9529 
  64   0.0000       0.778900        21.1949 
  65   0.0000       0.791567        21.5396 
  66   0.0000       0.808173        21.9915 
  67   0.0000       0.817233        22.2380 
  68   0.0000       0.835254        22.7284 
  69   0.0000       0.840600        22.8739 
  70   0.0000       0.882497        24.0140 
  71   0.0000       0.893547        24.3147 
  72   0.0000       0.917976        24.9794 
  73   0.0000       0.950356        25.8605 
  74   0.0000       0.960911        26.1477 
  75   0.0000       0.974289        26.5118 
  76   0.0000       0.982952        26.7475 
  77   0.0000       0.987838        26.8804 
  78   0.0000       1.006051        27.3760 
  79   0.0000       1.034049        28.1379 
  80   0.0000       1.090958        29.6865 
  81   0.0000       1.108350        30.1597 
  82   0.0000       1.148744        31.2589 
  83   0.0000       1.187977        32.3265 
  84   0.0000       1.208330        32.8803 
  85   0.0000       1.237424        33.6720 
  86   0.0000       1.252250        34.0755 
  87   0.0000       1.261813        34.3357 
  88   0.0000       1.283727        34.9320 
  89   0.0000       1.293186        35.1894 
  90   0.0000       1.311407        35.6852 
  91   0.0000       1.344857        36.5954 
  92   0.0000       1.367539        37.2126 
  93   0.0000       1.423929        38.7471 
  94   0.0000       1.472202        40.0607 
  95   0.0000       1.519677        41.3525 
  96   0.0000       1.560031        42.4506 
  97   0.0000       1.612375        43.8749 
  98   0.0000       1.798670        48.9443 
  99   0.0000       1.802117        49.0381 
 100   0.0000       1.831447        49.8362 
 101   0.0000       1.841689        50.1149 
 102   0.0000       1.857229        50.5378 
 103   0.0000       1.881328        51.1935 
 104   0.0000       1.934327        52.6357 
 105   0.0000       1.943808        52.8937 
 106   0.0000       1.991942        54.2035 
 107   0.0000       1.998655        54.3862 
 108   0.0000       2.051756        55.8311 
 109   0.0000       2.120613        57.7048 
 110   0.0000       2.133010        58.0421 
 111   0.0000       2.173292        59.1383 
 112   0.0000       2.186588        59.5001 
 113   0.0000       2.227531        60.6142 
 114   0.0000       2.242119        61.0112 
 115   0.0000       2.283780        62.1448 
 116   0.0000       2.319941        63.1288 
 117   0.0000       2.330298        63.4106 
 118   0.0000       2.354362        64.0654 
 119   0.0000       2.389119        65.0112 
 120   0.0000       2.420490        65.8649 
 121   0.0000       2.494305        67.8735 
 122   0.0000       2.548233        69.3409 
 123   0.0000       2.591416        70.5160 
 124   0.0000       2.618087        71.2418 
 125   0.0000       2.733637        74.3860 
 126   0.0000       2.771548        75.4176 
 127   0.0000       2.828951        76.9797 
 128   0.0000       2.876028        78.2607 
 129   0.0000       2.927018        79.6482 
 130   0.0000       2.974583        80.9425 
 131   0.0000       3.179129        86.5085 
 132   0.0000       3.191043        86.8327 
 133   0.0000       3.204638        87.2026 
 134   0.0000       3.232568        87.9626 
 135   0.0000       3.286620        89.4335 
 136   0.0000       3.289085        89.5006 
 137   0.0000       3.341397        90.9240 
 138   0.0000       3.377482        91.9060 
 139   0.0000       3.398120        92.4675 
 140   0.0000       3.421055        93.0916 
 141   0.0000       3.545571        96.4799 
 142   0.0000       3.612664        98.3056 
 143   0.0000       3.785462       103.0077 
 144   0.0000       4.026837       109.5758 
 145   0.0000       4.144634       112.7812 

                    ********************************
                    * MULLIKEN POPULATION ANALYSIS *
                    ********************************

-----------------------
MULLIKEN ATOMIC CHARGES
-----------------------
   0 C :    0.490743
   1 C :   -0.298295
   2 H :    0.004682
   3 H :   -0.051618
   4 C :    0.441018
   5 O :   -0.698829
   6 O :   -0.722757
   7 H :   -0.069518
   8 H :   -0.066415
   9 H :   -0.029011
Sum of atomic charges:   -1.0000000

--------------------------------
MULLIKEN REDUCED ORBITAL CHARGES
--------------------------------
  0 C s       :     2.542227  s :     2.542227
      pz      :     0.957157  p :     2.838737
      px      :     0.934453
      py      :     0.947128
      dz2     :     0.022910  d :     0.128293
      dxz     :     0.058221
      dyz     :     0.037810
      dx2y2   :    -0.002732
      dxy     :     0.012084
  1 C s       :     2.850727  s :     2.850727
      pz      :     1.040553  p :     3.059683
      px      :     0.941083
      py      :     1.078047
      dz2     :     0.109444  d :     0.387885
      dxz     :     0.100378
      dyz     :     0.058272
      dx2y2   :     0.051922
      dxy     :     0.067869
  2 H s       :     0.964928  s :     0.964928
      pz      :    -0.029364  p :     0.030391
      px      :     0.009566
      py      :     0.050190
  3 H s       :     0.985599  s :     0.985599
      pz      :     0.004503  p :     0.066019
      px      :     0.052985
      py      :     0.008531
  4 C s       :     2.901313  s :     2.901313
      pz      :     0.806429  p :     2.387959
      px      :     0.810289
      py      :     0.771242
      dz2     :     0.055259  d :     0.269709
      dxz     :     0.048265
      dyz     :     0.051698
      dx2y2   :     0.054817
      dxy     :     0.059670
  5 O s       :     3.878654  s :     3.878654
      pz      :     1.396759  p :     4.795686
      px      :     1.720183
      py      :     1.678744
      dz2     :     0.008761  d :     0.024489
      dxz     :     0.002525
      dyz     :     0.007935
      dx2y2   :     0.000796
      dxy     :     0.004472
  6 O s       :     3.895218  s :     3.895218
      pz      :     1.820839  p :     4.808264
      px      :     1.342604
      py      :     1.644821
      dz2     :     0.003335  d :     0.019275
      dxz     :     0.001228
      dyz     :     0.001630
      dx2y2   :     0.006301
      dxy     :     0.006781
  7 H s       :     1.041901  s :     1.041901
      pz      :     0.006179  p :     0.027616
      px      :    -0.010355
      py      :     0.031792
  8 H s       :     1.017968  s :     1.017968
      pz      :     0.011488  p :     0.048447
      px      :     0.003468
      py      :     0.033492
  9 H s       :     0.971059  s :     0.971059
      pz      :     0.007975  p :     0.057952
      px      :     0.063070
      py      :    -0.013092


                     *******************************
                     * LOEWDIN POPULATION ANALYSIS *
                     *******************************

----------------------
LOEWDIN ATOMIC CHARGES
----------------------
   0 C :    0.098968
   1 C :   -0.043695
   2 H :    0.010113
   3 H :    0.000975
   4 C :   -0.308521
   5 O :   -0.338174
   6 O :   -0.331128
   7 H :   -0.041647
   8 H :   -0.020635
   9 H :   -0.026254

-------------------------------
LOEWDIN REDUCED ORBITAL CHARGES
-------------------------------
  0 C s       :     2.704584  s :     2.704584
      pz      :     0.907654  p :     2.769570
      px      :     0.936717
      py      :     0.925199
      dz2     :     0.096101  d :     0.426878
      dxz     :     0.107488
      dyz     :     0.102704
      dx2y2   :     0.041196
      dxy     :     0.079389
  1 C s       :     2.694111  s :     2.694111
      pz      :     0.895162  p :     2.711179
      px      :     0.908264
      py      :     0.907753
      dz2     :     0.170112  d :     0.638406
      dxz     :     0.132058
      dyz     :     0.138391
      dx2y2   :     0.081643
      dxy     :     0.116202
  2 H s       :     0.734450  s :     0.734450
      pz      :     0.063762  p :     0.255437
      px      :     0.089961
      py      :     0.101715
  3 H s       :     0.736481  s :     0.736481
      pz      :     0.076772  p :     0.262544
      px      :     0.113064
      py      :     0.072708
  4 C s       :     2.673590  s :     2.673590
      pz      :     0.843388  p :     2.418715
      px      :     0.869934
      py      :     0.705392
      dz2     :     0.262973  d :     1.216217
      dxz     :     0.322079
      dyz     :     0.200435
      dx2y2   :     0.206515
      dxy     :     0.224215
  5 O s       :     3.467424  s :     3.467424
      pz      :     1.478498  p :     4.645844
      px      :     1.625448
      py      :     1.541897
      dz2     :     0.064145  d :     0.224907
      dxz     :     0.063758
      dyz     :     0.052421
      dx2y2   :     0.025288
      dxy     :     0.019294
  6 O s       :     3.461603  s :     3.461603
      pz      :     1.660344  p :     4.642499
      px      :     1.454794
      py      :     1.527361
      dz2     :     0.031156  d :     0.227027
      dxz     :     0.068051
      dyz     :     0.012842
      dx2y2   :     0.052708
      dxy     :     0.062269
  7 H s       :     0.758792  s :     0.758792
      pz      :     0.096246  p :     0.282855
      px      :     0.090241
      py      :     0.096368
  8 H s       :     0.746862  s :     0.746862
      pz      :     0.072905  p :     0.273773
      px      :     0.090203
      py      :     0.110665
  9 H s       :     0.736298  s :     0.736298
      pz      :     0.082074  p :     0.289956
      px      :     0.131721
      py      :     0.076162


                      *****************************
                      * MAYER POPULATION ANALYSIS *
                      *****************************

  NA   - Mulliken gross atomic population
  ZA   - Total nuclear charge
  QA   - Mulliken gross atomic charge
  VA   - Mayer's total valence
  BVA  - Mayer's bonded valence
  FA   - Mayer's free valence

  ATOM       NA         ZA         QA         VA         BVA        FA
  0 C      5.5093     6.0000     0.4907     4.0176     4.0176     0.0000
  1 C      6.2983     6.0000    -0.2983     4.6879     4.6879    -0.0000
  2 H      0.9953     1.0000     0.0047     1.0823     1.0823    -0.0000
  3 H      1.0516     1.0000    -0.0516     1.2136     1.2136    -0.0000
  4 C      5.5590     6.0000     0.4410     4.2855     4.2855    -0.0000
  5 O      8.6988     8.0000    -0.6988     1.5576     1.5576    -0.0000
  6 O      8.7228     8.0000    -0.7228     1.6404     1.6404    -0.0000
  7 H      1.0695     1.0000    -0.0695     1.0399     1.0399    -0.0000
  8 H      1.0664     1.0000    -0.0664     1.0840     1.0840     0.0000
  9 H      1.0290     1.0000    -0.0290     1.1050     1.1050     0.0000

  Mayer bond orders larger than 0.100000
B(  0-C ,  1-C ) :   1.2548 B(  0-C ,  7-H ) :   0.8585 B(  0-C ,  8-H ) :   0.8754 
B(  0-C ,  9-H ) :   0.8489 B(  1-C ,  2-H ) :   0.8980 B(  1-C ,  3-H ) :   0.9782 
B(  1-C ,  4-C ) :   1.0292 B(  1-C ,  7-H ) :   0.1417 B(  1-C ,  8-H ) :   0.1540 
B(  1-C ,  9-H ) :   0.1770 B(  3-H ,  4-C ) :   0.1750 B(  4-C ,  5-O ) :   1.5005 
B(  4-C ,  6-O ) :   1.5271 

-------
TIMINGS
-------

Total SCF time: 0 days 0 hours 0 min 9 sec 

Total time                  ....       9.384 sec
Sum of individual times     ....       9.225 sec  ( 98.3%)

Fock matrix formation       ....       8.517 sec  ( 90.8%)
  Split-RI-J                ....       0.481 sec  (  5.6% of F)
  Chain of spheres X        ....       6.864 sec  ( 80.6% of F)
  XC integration            ....       1.139 sec  ( 13.4% of F)
    Basis function eval.    ....       0.374 sec  ( 32.8% of XC)
    Density eval.           ....       0.232 sec  ( 20.3% of XC)
    XC-Functional eval.     ....       0.120 sec  ( 10.5% of XC)
    XC-Potential eval.      ....       0.324 sec  ( 28.4% of XC)
Diagonalization             ....       0.035 sec  (  0.4%)
Density matrix formation    ....       0.004 sec  (  0.0%)
Population analysis         ....       0.006 sec  (  0.1%)
Initial guess               ....       0.051 sec  (  0.5%)
Orbital Transformation      ....       0.000 sec  (  0.0%)
Orbital Orthonormalization  ....       0.000 sec  (  0.0%)
DIIS solution               ....       0.022 sec  (  0.2%)
SOSCF solution              ....       0.025 sec  (  0.3%)
Grid generation             ....       0.565 sec  (  6.0%)

Maximum memory used throughout the entire SCF-calculation: 49.2 MB


-------------------------------------------------------------------------------
                          DFT DISPERSION CORRECTION                            
                                                                               
                              DFTD3 V3.1  Rev 1                                
                              USING zero damping                               
-------------------------------------------------------------------------------
The omegaB97X-D3 functional is recognized. Fit by Chai et al.
Active option DFTDOPT                   ...         3   

molecular C6(AA) [au] = 865.571177 


            DFT-D V3
 parameters
 s6 scaling factor         :     1.0000 
 rs6 scaling factor        :     1.2810 
 s8 scaling factor         :     1.0000 
 rs8 scaling factor        :     1.0940 
 Damping factor alpha6     :    14.0000 
 Damping factor alpha8     :    16.0000 
 ad hoc parameters k1-k3   :    16.0000     1.3333    -4.0000 

 Edisp/kcal,au: -1.229415481683  -0.001959198070 
 E6   /kcal   :  -0.430571473 
 E8   /kcal   :  -0.798844009 
 % E8         :  64.977545895 

-------------------------   ----------------
Dispersion correction           -0.001959198
-------------------------   ----------------


-------------------------   --------------------
FINAL SINGLE POINT ENERGY      -267.583971533549
-------------------------   --------------------


                            ***************************************
                            *     ORCA property calculations      *
                            ***************************************

                                    ---------------------
                                    Active property flags
                                    ---------------------
   (+) Dipole Moment


------------------------------------------------------------------------------
                       ORCA ELECTRIC PROPERTIES CALCULATION
------------------------------------------------------------------------------

Dipole Moment Calculation                       ... on
Quadrupole Moment Calculation                   ... off
Polarizability Calculation                      ... off
GBWName                                         ... A_dlpno_new_neg.gbw
Electron density file                           ... A_dlpno_new_neg.scfp
The origin for moment calculation is the CENTER OF MASS  = ( 9.013590,  3.200157 -0.527643)

-------------
DIPOLE MOMENT
-------------
                                X             Y             Z
Electronic contribution:      2.40141      -1.43388       5.04888
Nuclear contribution   :     -3.31311       2.28398      -6.76358
                        -----------------------------------------
Total Dipole Moment    :     -0.91170       0.85010      -1.71470
                        -----------------------------------------
Magnitude (a.u.)       :      2.11992
Magnitude (Debye)      :      5.38841



--------------------
Rotational spectrum 
--------------------
 
Rotational constants in cm-1:     0.309287     0.135287     0.107346 
Rotational constants in MHz :  9272.201029  4055.789113  3218.155789 

 Dipole components along the rotational axes: 
x,y,z [a.u.] :    -2.052802     0.424735    -0.315703 
x,y,z [Debye]:    -5.217807     1.079590    -0.802454 

 

Timings for individual modules:

Sum of individual times         ...       11.371 sec (=   0.190 min)
GTO integral calculation        ...        1.217 sec (=   0.020 min)  10.7 %
SCF iterations                  ...       10.154 sec (=   0.169 min)  89.3 %
                             ****ORCA TERMINATED NORMALLY****
TOTAL RUN TIME: 0 days 0 hours 0 minutes 11 seconds 922 msec
