
                                        *****************
                                        * O   R   C   A *
                                        *****************

                                            #,                                       
                                            ###                                      
                                            ####                                     
                                            #####                                    
                                            ######                                   
                                           ########,                                 
                                     ,,################,,,,,                         
                               ,,#################################,,                 
                          ,,##########################################,,             
                       ,#########################################, ''#####,          
                    ,#############################################,,   '####,        
                  ,##################################################,,,,####,       
                ,###########''''           ''''###############################       
              ,#####''   ,,,,##########,,,,          '''####'''          '####       
            ,##' ,,,,###########################,,,                        '##       
           ' ,,###''''                  '''############,,,                           
         ,,##''                                '''############,,,,        ,,,,,,###''
      ,#''                                            '''#######################'''  
     '                                                          ''''####''''         
             ,#######,   #######,   ,#######,      ##                                
            ,#'     '#,  ##    ##  ,#'     '#,    #''#        ######   ,####,        
            ##       ##  ##   ,#'  ##            #'  '#       #        #'  '#        
            ##       ##  #######   ##           ,######,      #####,   #    #        
            '#,     ,#'  ##    ##  '#,     ,#' ,#      #,         ##   #,  ,#        
             '#######'   ##     ##  '#######'  #'      '#     #####' # '####'        



                  #######################################################
                  #                        -***-                        #
                  #          Department of theory and spectroscopy      #
                  #    Directorship and core code : Frank Neese         #
                  #        Max Planck Institute fuer Kohlenforschung    #
                  #                Kaiser Wilhelm Platz 1               #
                  #                 D-45470 Muelheim/Ruhr               #
                  #                      Germany                        #
                  #                                                     #
                  #                  All rights reserved                #
                  #                        -***-                        #
                  #######################################################


                         Program Version 5.0.0 -  RELEASE  -
                                (SVN: $Rev: 19529$)
                ($Date: 2021-06-28 11:36:33 +0200 (Mo, 28 Jun 2021) $)


 With contributions from (in alphabetic order):
   Daniel Aravena         : Magnetic Suceptibility
   Michael Atanasov       : Ab Initio Ligand Field Theory (pilot matlab implementation)
   Alexander A. Auer      : GIAO ZORA, VPT2 properties, NMR spectrum
   Ute Becker             : Parallelization
   Giovanni Bistoni       : ED, misc. LED, open-shell LED, HFLD
   Martin Brehm           : Molecular dynamics
   Dmytro Bykov           : SCF Hessian
   Vijay G. Chilkuri      : MRCI spin determinant printing, contributions to CSF-ICE
   Dipayan Datta          : RHF DLPNO-CCSD density
   Achintya Kumar Dutta   : EOM-CC, STEOM-CC
   Dmitry Ganyushin       : Spin-Orbit,Spin-Spin,Magnetic field MRCI
   Miquel Garcia          : C-PCM Hessian, Gaussian charge scheme
   Yang Guo               : DLPNO-NEVPT2, F12-NEVPT2, CIM, IAO-localization
   Andreas Hansen         : Spin unrestricted coupled pair/coupled cluster methods
   Benjamin Helmich-Paris : MC-RPA, TRAH-SCF, COSX integrals
   Lee Huntington         : MR-EOM, pCC
   Robert Izsak           : Overlap fitted RIJCOSX, COSX-SCS-MP3, EOM
   Marcus Kettner         : VPT2
   Christian Kollmar      : KDIIS, OOCD, Brueckner-CCSD(T), CCSD density, CASPT2, CASPT2-K
   Simone Kossmann        : Meta GGA functionals, TD-DFT gradient, OOMP2, MP2 Hessian
   Martin Krupicka        : Initial AUTO-CI
   Lucas Lang             : DCDCAS
   Marvin Lechner         : AUTO-CI (C++ implementation), FIC-MRCC
   Dagmar Lenk            : GEPOL surface, SMD
   Dimitrios Liakos       : Extrapolation schemes; Compound Job, initial MDCI parallelization
   Dimitrios Manganas     : Further ROCIS development; embedding schemes
   Dimitrios Pantazis     : SARC Basis sets
   Anastasios Papadopoulos: AUTO-CI, single reference methods and gradients
   Taras Petrenko         : DFT Hessian,TD-DFT gradient, ASA, ECA, R-Raman, ABS, FL, XAS/XES, NRVS
   Peter Pinski           : DLPNO-MP2, DLPNO-MP2 Gradient
   Christoph Reimann      : Effective Core Potentials
   Marius Retegan         : Local ZFS, SOC
   Christoph Riplinger    : Optimizer, TS searches, QM/MM, DLPNO-CCSD(T), (RO)-DLPNO pert. Triples
   Tobias Risthaus        : Range-separated hybrids, TD-DFT gradient, RPA, STAB
   Michael Roemelt        : Original ROCIS implementation
   Masaaki Saitow         : Open-shell DLPNO-CCSD energy and density
   Barbara Sandhoefer     : DKH picture change effects
   Avijit Sen             : IP-ROCIS
   Kantharuban Sivalingam : CASSCF convergence, NEVPT2, FIC-MRCI
   Bernardo de Souza      : ESD, SOC TD-DFT
   Georgi Stoychev        : AutoAux, RI-MP2 NMR
   Willem Van den Heuvel  : Paramagnetic NMR
   Boris Wezisla          : Elementary symmetry handling
   Frank Wennmohs         : Technical directorship


 We gratefully acknowledge several colleagues who have allowed us to
 interface, adapt or use parts of their codes:
   Stefan Grimme, W. Hujo, H. Kruse, P. Pracht,  : VdW corrections, initial TS optimization,
                  C. Bannwarth, S. Ehlert          DFT functionals, gCP, sTDA/sTD-DF
   Ed Valeev, F. Pavosevic, A. Kumar             : LibInt (2-el integral package), F12 methods
   Garnet Chan, S. Sharma, J. Yang, R. Olivares  : DMRG
   Ulf Ekstrom                                   : XCFun DFT Library
   Mihaly Kallay                                 : mrcc  (arbitrary order and MRCC methods)
   Jiri Pittner, Ondrej Demel                    : Mk-CCSD
   Frank Weinhold                                : gennbo (NPA and NBO analysis)
   Christopher J. Cramer and Donald G. Truhlar   : smd solvation model
   Lars Goerigk                                  : TD-DFT with DH, B97 family of functionals
   V. Asgeirsson, H. Jonsson                     : NEB implementation
   FAccTs GmbH                                   : IRC, NEB, NEB-TS, DLPNO-Multilevel, CI-OPT
                                                   MM, QMMM, 2- and 3-layer-ONIOM, Crystal-QMMM,
                                                   LR-CPCM, SF, NACMEs, symmetry and pop. for TD-DFT,
                                                   nearIR, NL-DFT gradient (VV10), updates on ESD,
                                                   ML-optimized integration grids
   S Lehtola, MJT Oliveira, MAL Marques          : LibXC Library
   Liviu Ungur et al                             : ANISO software


 Your calculation uses the libint2 library for the computation of 2-el integrals
 For citations please refer to: http://libint.valeyev.net

 Your ORCA version has been built with support for libXC version: 5.1.0
 For citations please refer to: https://tddft.org/programs/libxc/

 This ORCA versions uses:
   CBLAS   interface :  Fast vector & matrix operations
   LAPACKE interface :  Fast linear algebra routines
   SCALAPACK package :  Parallel linear algebra routines
   Shared memory     :  Shared parallel matrices
   BLAS/LAPACK       :  OpenBLAS 0.3.15  USE64BITINT DYNAMIC_ARCH NO_AFFINITY Haswell SINGLE_THREADED
        Core in use  :  Haswell
   Copyright (c) 2011-2014, The OpenBLAS Project




***************************************
The coordinates will be read from file: D8.xyz
***************************************


Your calculation utilizes the atom-pairwise dispersion correction
with the zero-damping scheme (D30)
Cite in your paper:
S.Grimme, J.Antony, S.Ehrlich and H.Krieg, J.Chem.Phys., 132, (2010), 154104 
   

XCFun DFT library Copyright 2009-2010 Ulf Ekstrom and contributors.
See http://admol.org/xcfun for more information.
This is free software; see the source code for copying conditions.
There is ABSOLUTELY NO WARRANTY; not even for MERCHANTABILITY or FITNESS FOR A PARTICULAR PURPOSE.
For details see the documentation.
Scientific users of this library should cite U. Ekstrom, L. Visscher, R. Bast, A. J. Thorvaldsen and K. Ruud;
J.Chem.Theor.Comp. 2010, DOI: 10.1021/ct100117s
XCFun Version 0.99 

================================================================================

----- Orbital basis set information -----
Your calculation utilizes the basis: def2-SVPD
   F. Weigend and R. Ahlrichs, Phys. Chem. Chem. Phys. 7, 3297 (2005).
   D. Rappoport and F. Furche, J. Chem. Phys. 133 134105 (2010).

----- AuxJ basis set information -----
Your calculation utilizes the auxiliary basis: def2/J
   F. Weigend, Phys. Chem. Chem. Phys. 8, 1057 (2006).

================================================================================
                                        WARNINGS
                       Please study these warnings very carefully!
================================================================================


INFO   : the flag for use of the SHARK integral package has been found!

================================================================================
                                       INPUT FILE
================================================================================
NAME = D8_wb97.com
|  1> !wB97X-D3 RIJCOSX def2-SVPD def2/J TightSCF CPCM(Water) xyzfile                                        
|  2> 
|  3> *xyzfile 0 1 D8.xyz
|  4> 
|  5> %MaxCore 64000
|  6> 
|  7> %pal nprocs 18                                                                                                                                                  
|  8> end  
|  9> 
| 10> %scf
| 11>   MaxIter 150
| 12> end
| 13> 
| 14> 
| 15>                          ****END OF INPUT****
================================================================================

                       ****************************
                       * Single Point Calculation *
                       ****************************

---------------------------------
CARTESIAN COORDINATES (ANGSTROEM)
---------------------------------
  C      1.963365   -1.749150   -1.896887
  N      2.738490   -2.015170   -3.097113
  C      0.611877    1.657634   -4.500288
  C      1.694991    1.541794   -5.570447
  H      2.697326    1.734659   -5.183996
  H      1.506656    2.272239   -6.358076
  S      1.780287   -0.033128   -6.428739
  C      4.049736   -2.154717   -3.152044
  C      4.658206   -1.986293   -4.318655
  N      4.764231   -2.454435   -2.050491
  H      4.287363   -2.776259   -1.217496
  H      5.750825   -2.658351   -2.125988
  H      2.345176   -1.690274   -3.971447
  H      4.109004   -1.592677   -5.071760
  H      5.649095   -2.156462   -4.427237
  O      2.569287    0.213657   -7.607360
  O      0.416880   -0.462969   -6.618595
  C      2.088520   -0.300912   -1.415204
  H      2.231272   -2.451616   -1.102643
  H      0.930249   -1.977801   -2.155438
  C      0.680356    0.655418   -3.348038
  H     -0.356865    1.549231   -4.991128
  H      0.650228    2.675438   -4.096000
  C      1.968993    0.733582   -2.535654
  H      3.051356   -0.168602   -0.911868
  H      1.316501   -0.136231   -0.657252
  F      2.505129   -0.933263   -5.482570
  H      2.824195    0.624726   -3.208464
  H      2.058919    1.730331   -2.093112
  H      0.542252   -0.344731   -3.766662
  H     -0.174219    0.829692   -2.685182

----------------------------
CARTESIAN COORDINATES (A.U.)
----------------------------
  NO LB      ZA    FRAG     MASS         X           Y           Z
   0 C     6.0000    0    12.011    3.710222   -3.305415   -3.584597
   1 N     7.0000    0    14.007    5.174997   -3.808120   -5.852696
   2 C     6.0000    0    12.011    1.156280    3.132474   -8.504312
   3 C     6.0000    0    12.011    3.203068    2.913568  -10.526619
   4 H     1.0000    0     1.008    5.097208    3.278030   -9.796333
   5 H     1.0000    0     1.008    2.847167    4.293910  -12.015023
   6 S    16.0000    0    32.060    3.364256   -0.062603  -12.148556
   7 C     6.0000    0    12.011    7.652892   -4.071825   -5.956500
   8 C     6.0000    0    12.011    8.802733   -3.753550   -8.161076
   9 N     7.0000    0    14.007    9.003091   -4.638210   -3.874866
  10 H     1.0000    0     1.008    8.101942   -5.246370   -2.300735
  11 H     1.0000    0     1.008   10.867484   -5.023556   -4.017536
  12 H     1.0000    0     1.008    4.431741   -3.194155   -7.504948
  13 H     1.0000    0     1.008    7.764891   -3.009723   -9.584237
  14 H     1.0000    0     1.008   10.675243   -4.075122   -8.366265
  15 O     8.0000    0    15.999    4.855249    0.403753  -14.375827
  16 O     8.0000    0    15.999    0.787789   -0.874885  -12.507332
  17 C     6.0000    0    12.011    3.946732   -0.568641   -2.674348
  18 H     1.0000    0     1.008    4.216494   -4.632882   -2.083694
  19 H     1.0000    0     1.008    1.757916   -3.737502   -4.073188
  20 C     6.0000    0    12.011    1.285686    1.238561   -6.326874
  21 H     1.0000    0     1.008   -0.674378    2.927622   -9.431864
  22 H     1.0000    0     1.008    1.228753    5.055845   -7.740318
  23 C     6.0000    0    12.011    3.720857    1.386269   -4.791692
  24 H     1.0000    0     1.008    5.766228   -0.318612   -1.723180
  25 H     1.0000    0     1.008    2.487826   -0.257439   -1.242026
  26 F     9.0000    0    18.998    4.734008   -1.763612  -10.360556
  27 H     1.0000    0     1.008    5.336955    1.180561   -6.063119
  28 H     1.0000    0     1.008    3.890793    3.269851   -3.955409
  29 H     1.0000    0     1.008    1.024707   -0.651447   -7.117959
  30 H     1.0000    0     1.008   -0.329227    1.567891   -5.074259

--------------------------------
INTERNAL COORDINATES (ANGSTROEM)
--------------------------------
 C      0   0   0     0.000000000000     0.00000000     0.00000000
 N      1   0   0     1.453316573840     0.00000000     0.00000000
 C      2   1   0     4.469997209231    81.66861305     0.00000000
 C      3   2   1     1.527021216669    79.64251634   166.12135406
 H      4   3   2     1.091429426821   112.94516578   291.55283625
 H      4   3   2     1.090587222827   109.44091494   172.19645502
 S      4   3   2     1.795638661190   115.79861088    54.44719017
 C      2   1   3     1.319793651653   125.70564975   125.09350255
 C      8   2   1     1.326492940223   118.61448699   200.38152835
 N      8   2   1     1.346756797244   121.10322660    20.01725842
 H     10   8   2     1.012350189617   119.59467170    13.56884806
 H     10   8   2     1.010272041928   120.12521212   173.22938336
 H      2   1   3     1.012281232535   116.57273408   332.44021856
 H      9   8   2     1.011792023943   117.06639684    10.99993176
 H      9   8   2     1.011241515739   121.50281050   185.08038097
 O      7   4   3     1.439642608659   105.48622831   163.81969223
 O      7   4   3     1.442112520958   106.22702210    38.41533571
 C      1   2   3     1.531364370737   112.91008412   309.77008032
 H      1   2   3     1.093643007341   110.58150833   184.66977938
 H      1   2   3     1.089246810669   105.74823995    70.75156459
 C      3   2   1     1.528661675104    37.19169818   353.30733645
 H      3   2   1     1.091392203112   118.80650564   270.92486636
 H      3   2   1     1.095830634114   129.10111041    61.64766166
 C     21   3   2     1.525339804606   113.93485678    68.35194369
 H     18   1   2     1.094489175769   109.32195284   283.03662940
 H     18   1   2     1.094360929868   107.60847921   167.76527056
 F      7   4   3     1.493611307442   104.40877094   280.72723475
 H     24  21   3     1.093569726740   109.14128749   305.09838428
 H     24  21   3     1.094275188126   109.35928518    60.61257975
 H     21   3   2     1.092985565182   107.79245554   304.75322685
 H     21   3   2     1.095466463975   108.47249356   190.17892582

---------------------------
INTERNAL COORDINATES (A.U.)
---------------------------
 C      0   0   0     0.000000000000     0.00000000     0.00000000
 N      1   0   0     2.746370310446     0.00000000     0.00000000
 C      2   1   0     8.447070544838    81.66861305     0.00000000
 C      3   2   1     2.885651900191    79.64251634   166.12135406
 H      4   3   2     2.062502711195   112.94516578   291.55283625
 H      4   3   2     2.060911176296   109.44091494   172.19645502
 S      4   3   2     3.393265305130   115.79861088    54.44719017
 C      2   1   3     2.494048554913   125.70564975   125.09350255
 C      8   2   1     2.506708375602   118.61448699   200.38152835
 N      8   2   1     2.545001515788   121.10322660    20.01725842
 H     10   8   2     1.913064609999   119.59467170    13.56884806
 H     10   8   2     1.909137480001   120.12521212   173.22938336
 H      2   1   3     1.912934300000   116.57273408   332.44021856
 H      9   8   2     1.912009829738   117.06639684    10.99993176
 H      9   8   2     1.910969519999   121.50281050   185.08038097
 O      7   4   3     2.720530261090   105.48622831   163.81969223
 O      7   4   3     2.725197718909   106.22702210    38.41533571
 C      1   2   3     2.893859271938   112.91008412   309.77008032
 H      1   2   3     2.066685772153   110.58150833   184.66977938
 H      1   2   3     2.058378164411   105.74823995    70.75156459
 C      3   2   1     2.888751917368    37.19169818   353.30733645
 H      3   2   1     2.062432368579   118.80650564   270.92486636
 H      3   2   1     2.070819787638   129.10111041    61.64766166
 C     21   3   2     2.882474491874   113.93485678    68.35194369
 H     18   1   2     2.068284798745   109.32195284   283.03662940
 H     18   1   2     2.068042449114   107.60847921   167.76527056
 F      7   4   3     2.822516321593   104.40877094   280.72723475
 H     24  21   3     2.066547291886   109.14128749   305.09838428
 H     24  21   3     2.067880420702   109.35928518    60.61257975
 H     21   3   2     2.065443386523   107.79245554   304.75322685
 H     21   3   2     2.070131605807   108.47249356   190.17892582

---------------------
BASIS SET INFORMATION
---------------------
There are 6 groups of distinct atoms

 Group   1 Type C   : 8s4p2d contracted to 4s2p2d pattern {5111/31/11}
 Group   2 Type N   : 8s4p2d contracted to 4s2p2d pattern {5111/31/11}
 Group   3 Type H   : 4s2p contracted to 2s2p pattern {31/11}
 Group   4 Type S   : 11s8p2d contracted to 5s4p2d pattern {53111/5111/11}
 Group   5 Type O   : 8s5p2d contracted to 4s3p2d pattern {5111/311/11}
 Group   6 Type F   : 8s5p2d contracted to 4s3p2d pattern {5111/311/11}

Atom   0C    basis set group =>   1
Atom   1N    basis set group =>   2
Atom   2C    basis set group =>   1
Atom   3C    basis set group =>   1
Atom   4H    basis set group =>   3
Atom   5H    basis set group =>   3
Atom   6S    basis set group =>   4
Atom   7C    basis set group =>   1
Atom   8C    basis set group =>   1
Atom   9N    basis set group =>   2
Atom  10H    basis set group =>   3
Atom  11H    basis set group =>   3
Atom  12H    basis set group =>   3
Atom  13H    basis set group =>   3
Atom  14H    basis set group =>   3
Atom  15O    basis set group =>   5
Atom  16O    basis set group =>   5
Atom  17C    basis set group =>   1
Atom  18H    basis set group =>   3
Atom  19H    basis set group =>   3
Atom  20C    basis set group =>   1
Atom  21H    basis set group =>   3
Atom  22H    basis set group =>   3
Atom  23C    basis set group =>   1
Atom  24H    basis set group =>   3
Atom  25H    basis set group =>   3
Atom  26F    basis set group =>   6
Atom  27H    basis set group =>   3
Atom  28H    basis set group =>   3
Atom  29H    basis set group =>   3
Atom  30H    basis set group =>   3
---------------------------------
AUXILIARY/J BASIS SET INFORMATION
---------------------------------
There are 6 groups of distinct atoms

 Group   1 Type C   : 12s5p4d2f1g contracted to 6s4p3d1f1g pattern {711111/2111/211/2/1}
 Group   2 Type N   : 12s5p4d2f1g contracted to 6s4p3d1f1g pattern {711111/2111/211/2/1}
 Group   3 Type H   : 5s2p1d contracted to 3s1p1d pattern {311/2/1}
 Group   4 Type S   : 14s5p5d2f1g contracted to 8s4p3d1f1g pattern {71111111/2111/311/2/1}
 Group   5 Type O   : 12s5p4d2f1g contracted to 6s4p3d1f1g pattern {711111/2111/211/2/1}
 Group   6 Type F   : 12s5p4d2f1g contracted to 6s4p3d1f1g pattern {711111/2111/211/2/1}

Atom   0C    basis set group =>   1
Atom   1N    basis set group =>   2
Atom   2C    basis set group =>   1
Atom   3C    basis set group =>   1
Atom   4H    basis set group =>   3
Atom   5H    basis set group =>   3
Atom   6S    basis set group =>   4
Atom   7C    basis set group =>   1
Atom   8C    basis set group =>   1
Atom   9N    basis set group =>   2
Atom  10H    basis set group =>   3
Atom  11H    basis set group =>   3
Atom  12H    basis set group =>   3
Atom  13H    basis set group =>   3
Atom  14H    basis set group =>   3
Atom  15O    basis set group =>   5
Atom  16O    basis set group =>   5
Atom  17C    basis set group =>   1
Atom  18H    basis set group =>   3
Atom  19H    basis set group =>   3
Atom  20C    basis set group =>   1
Atom  21H    basis set group =>   3
Atom  22H    basis set group =>   3
Atom  23C    basis set group =>   1
Atom  24H    basis set group =>   3
Atom  25H    basis set group =>   3
Atom  26F    basis set group =>   6
Atom  27H    basis set group =>   3
Atom  28H    basis set group =>   3
Atom  29H    basis set group =>   3
Atom  30H    basis set group =>   3


           ************************************************************
           *        Program running with 18 parallel MPI-processes    *
           *              working on a common directory               *
           ************************************************************
------------------------------------------------------------------------------
                           ORCA GTO INTEGRAL CALCULATION
                           -- RI-GTO INTEGRALS CHOSEN --
------------------------------------------------------------------------------
------------------------------------------------------------------------------
                   ___                                                        
                  /   \      - P O W E R E D   B Y -                         
                 /     \                                                     
                 |  |  |   _    _      __       _____    __    __             
                 |  |  |  | |  | |    /  \     |  _  \  |  |  /  |          
                  \  \/   | |  | |   /    \    | | | |  |  | /  /          
                 / \  \   | |__| |  /  /\  \   | |_| |  |  |/  /          
                |  |  |   |  __  | /  /__\  \  |    /   |      \           
                |  |  |   | |  | | |   __   |  |    \   |  |\   \          
                \     /   | |  | | |  |  |  |  | |\  \  |  | \   \       
                 \___/    |_|  |_| |__|  |__|  |_| \__\ |__|  \__/        
                                                                              
                      - O R C A' S   B I G   F R I E N D -                    
                                      &                                       
                       - I N T E G R A L  F E E D E R -                       
                                                                              
 v1 FN, 2020, v2 2021                                                         
------------------------------------------------------------------------------


Reading SHARK input file D8_wb97.SHARKINP.tmp ... ok
----------------------
SHARK INTEGRAL PACKAGE
----------------------

Number of atoms                             ...     31
Number of basis functions                   ...    432
Number of shells                            ...    186
Maximum angular momentum                    ...      2
Integral batch strategy                     ... SHARK/LIBINT Hybrid
RI-J (if used) integral strategy            ... SPLIT-RIJ (Revised 2003 algorithm where possible)
Printlevel                                  ...      1
Contraction scheme used                     ... SEGMENTED contraction
Coulomb Range Separation                    ... NOT USED
Exchange Range Separation                   ... Long Range
   Mu parameter                             ...  0.250000
   Scaling (regular/separated)              ...  0.195728  0.804272
Finite Nucleus Model                        ... NOT USED
Auxiliary Coulomb fitting basis             ... AVAILABLE
   # of basis functions in Aux-J            ...    875
   # of shells in Aux-J                     ...    297
   Maximum angular momentum in Aux-J        ...      4
Auxiliary J/K fitting basis                 ... NOT available
Auxiliary Correlation fitting basis         ... NOT available
Auxiliary 'external' fitting basis          ... NOT available
Integral threshold                          ...     2.500000e-11
Primitive cut-off                           ...     2.500000e-12
Primitive pair pre-selection threshold      ...     2.500000e-12

Calculating pre-screening integrals         ... done (  0.1 sec) Dimension = 186
Organizing shell pair data                  ... done (  0.1 sec)
Shell pair information
Total number of shell pairs                 ...     17391
Shell pairs after pre-screening             ...     16030
Total number of primitive shell pairs       ...     47829
Primitive shell pairs kept                  ...     33507
          la=0 lb=0:   3818 shell pairs
          la=1 lb=0:   5607 shell pairs
          la=1 lb=1:   2114 shell pairs
          la=2 lb=0:   2361 shell pairs
          la=2 lb=1:   1749 shell pairs
          la=2 lb=2:    381 shell pairs

Calculating one electron integrals          ... done (  0.0 sec)
Calculating RI/J V-Matrix + Cholesky decomp.... done (  0.1 sec)
Calculating Nuclear repulsion               ... done (  0.0 sec) ENN=   1191.412586120029 Eh

SHARK setup successfully completed in   0.5 seconds

Maximum memory used throughout the entire GTOINT-calculation: 24.9 MB


           ************************************************************
           *        Program running with 18 parallel MPI-processes    *
           *              working on a common directory               *
           ************************************************************
-------------------------------------------------------------------------------
                                 ORCA SCF
-------------------------------------------------------------------------------

------------
SCF SETTINGS
------------
Hamiltonian:
 Density Functional     Method          .... DFT(GTOs)
 Exchange Functional    Exchange        .... WB97X-D3
 Correlation Functional Correlation     .... WB97X-D3
 Gradients option       PostSCFGGA      .... off
 Hybrid DFT is turned on
   Fraction HF Exchange ScalHFX         ....  0.195728
   Scaling of DF-GGA-X  ScalDFX         ....  0.000000
   Scaling of DF-GGA-C  ScalDFC         ....  1.000000
   Scaling of DF-LDA-C  ScalLDAC        ....  1.000000
   Perturbative correction              ....  0.000000
   Density functional embedding theory  .... OFF
 Long-range corrected/Screened/Range-Separated Hybrid DFT is turned on
   Amount of maximum screened exact exchange              ....  0.804272
   Range separation parameter mu (erf(mu*r12)/r12)        ....  0.250000
 RI-approximation to the Coulomb term is turned on
   Number of AuxJ basis functions       .... 875
   RIJ-COSX (HFX calculated with COS-X)).... on


General Settings:
 Integral files         IntName         .... D8_wb97
 Hartree-Fock type      HFTyp           .... RHF
 Total Charge           Charge          ....    0
 Multiplicity           Mult            ....    1
 Number of Electrons    NEL             ....  120
 Basis Dimension        Dim             ....  432
 Nuclear Repulsion      ENuc            ....   1191.4125861200 Eh

Convergence Acceleration:
 DIIS                   CNVDIIS         .... on
   Start iteration      DIISMaxIt       ....    12
   Startup error        DIISStart       ....  0.200000
   # of expansion vecs  DIISMaxEq       ....     5
   Bias factor          DIISBfac        ....   1.050
   Max. coefficient     DIISMaxC        ....  10.000
 Trust-Rad. Augm. Hess. CNVTRAH         .... auto
   Auto Start mean grad. ratio tolernc. ....  1.125000
   Auto Start start iteration           ....    20
   Auto Start num. interpolation iter.  ....    10
   Max. Number of Micro iterations      ....    16
   Max. Number of Macro iterations      .... Maxiter - #DIIS iter
   Number of Davidson start vectors     ....     2
   Converg. threshold I  (grad. norm)   ....   1.000e-05
   Converg. threshold II (energy diff.) ....   1.000e-08
   Grad. Scal. Fac. for Micro threshold ....   0.100
   Minimum threshold for Micro iter.    ....   0.010
   NR start threshold (gradient norm)   ....   0.001
   Initial trust radius                 ....   0.400
   Minimum AH scaling param. (alpha)    ....   1.000
   Maximum AH scaling param. (alpha)    .... 1000.000
   Orbital update algorithm             .... Taylor
   White noise on init. David. guess    .... on
   Maximum white noise                  ....   0.010
   Quad. conv. algorithm                .... NR
 SOSCF                  CNVSOSCF        .... on
   Start iteration      SOSCFMaxIt      ....   150
   Startup grad/error   SOSCFStart      ....  0.003300
 Level Shifting         CNVShift        .... on
   Level shift para.    LevelShift      ....    0.2500
   Turn off err/grad.   ShiftErr        ....    0.0010
 Zerner damping         CNVZerner       .... off
 Static damping         CNVDamp         .... on
   Fraction old density DampFac         ....    0.7000
   Max. Damping (<1)    DampMax         ....    0.9800
   Min. Damping (>=0)   DampMin         ....    0.0000
   Turn off err/grad.   DampErr         ....    0.1000
 Fernandez-Rico         CNVRico         .... off

SCF Procedure:
 Maximum # iterations   MaxIter         ....   150
 SCF integral mode      SCFMode         .... Direct
   Integral package                     .... SHARK and LIBINT hybrid scheme
 Reset frequency        DirectResetFreq ....    20
 Integral Threshold     Thresh          ....  2.500e-11 Eh
 Primitive CutOff       TCut            ....  2.500e-12 Eh

Convergence Tolerance:
 Convergence Check Mode ConvCheckMode   .... Total+1el-Energy
 Convergence forced     ConvForced      .... 0
 Energy Change          TolE            ....  1.000e-08 Eh
 1-El. energy change                    ....  1.000e-05 Eh
 Orbital Gradient       TolG            ....  1.000e-05
 Orbital Rotation angle TolX            ....  1.000e-05
 DIIS Error             TolErr          ....  5.000e-07


Diagonalization of the overlap matrix:
Smallest eigenvalue                        ... 2.016e-05
Time for diagonalization                   ...    0.046 sec
Threshold for overlap eigenvalues          ... 1.000e-08
Number of eigenvalues below threshold      ... 0
Time for construction of square roots      ...    0.076 sec
Total time needed                          ...    0.125 sec

Time for model grid setup =    0.167 sec

------------------------------
INITIAL GUESS: MODEL POTENTIAL
------------------------------
Loading Hartree-Fock densities                     ... done
Calculating cut-offs                               ... done
Initializing the effective Hamiltonian             ... done
Setting up the integral package (SHARK)            ... done
Starting the Coulomb interaction                   ... done (   0.1 sec)
Reading the grid                                   ... done
Mapping shells                                     ... done
Starting the XC term evaluation                    ... done (   0.1 sec)
  promolecular density results
     # of electrons  =    119.988202297
     EX              =   -110.510007469
     EC              =     -4.155214378
     EX+EC           =   -114.665221847
Transforming the Hamiltonian                       ... done (   0.0 sec)
Diagonalizing the Hamiltonian                      ... done (   0.0 sec)
Back transforming the eigenvectors                 ... done (   0.0 sec)
Now organizing SCF variables                       ... done
                      ------------------
                      INITIAL GUESS DONE (   0.5 sec)
                      ------------------
-------------------
DFT GRID GENERATION
-------------------

General Integration Accuracy     IntAcc      ... 4.388
Radial Grid Type                 RadialGrid  ... OptM3 with GC (2021)
Angular Grid (max. ang.)         AngularGrid ... 4 (Lebedev-302)
Angular grid pruning method      GridPruning ... 4 (adaptive)
Weight generation scheme         WeightScheme... Becke
Basis function cutoff            BFCut       ... 1.0000e-11
Integration weight cutoff        WCut        ... 1.0000e-14
Angular grids for H and He will be reduced by one unit
Partially contracted basis set               ... off
Rotationally invariant grid construction     ... off

Total number of grid points                  ...   142710
Total number of batches                      ...     2244
Average number of points per batch           ...       63
Average number of grid points per atom       ...     4604
Time for grid setup =    0.778 sec

--------------------
COSX GRID GENERATION
--------------------

GRIDX 1
-------
General Integration Accuracy     IntAcc      ... 3.816
Radial Grid Type                 RadialGrid  ... OptM3 with GC (2021)
Angular Grid (max. ang.)         AngularGrid ... 1 (Lebedev-50)
Angular grid pruning method      GridPruning ... 4 (adaptive)
Weight generation scheme         WeightScheme... Becke
Basis function cutoff            BFCut       ... 1.0000e-11
Integration weight cutoff        WCut        ... 1.0000e-14
Angular grids for H and He will be reduced by one unit
Partially contracted basis set               ... on
Rotationally invariant grid construction     ... off

Total number of grid points                  ...    17764
Total number of batches                      ...      300
Average number of points per batch           ...       59
Average number of grid points per atom       ...      573
UseSFitting                                  ... on

GRIDX 2
-------
General Integration Accuracy     IntAcc      ... 4.020
Radial Grid Type                 RadialGrid  ... OptM3 with GC (2021)
Angular Grid (max. ang.)         AngularGrid ... 2 (Lebedev-110)
Angular grid pruning method      GridPruning ... 4 (adaptive)
Weight generation scheme         WeightScheme... Becke
Basis function cutoff            BFCut       ... 1.0000e-11
Integration weight cutoff        WCut        ... 1.0000e-14
Angular grids for H and He will be reduced by one unit
Partially contracted basis set               ... on
Rotationally invariant grid construction     ... off

Total number of grid points                  ...    39603
Total number of batches                      ...      633
Average number of points per batch           ...       62
Average number of grid points per atom       ...     1278
UseSFitting                                  ... on

GRIDX 3
-------
General Integration Accuracy     IntAcc      ... 4.338
Radial Grid Type                 RadialGrid  ... OptM3 with GC (2021)
Angular Grid (max. ang.)         AngularGrid ... 3 (Lebedev-194)
Angular grid pruning method      GridPruning ... 4 (adaptive)
Weight generation scheme         WeightScheme... Becke
Basis function cutoff            BFCut       ... 1.0000e-11
Integration weight cutoff        WCut        ... 1.0000e-14
Angular grids for H and He will be reduced by one unit
Partially contracted basis set               ... on
Rotationally invariant grid construction     ... off

Total number of grid points                  ...    89121
Total number of batches                      ...     1407
Average number of points per batch           ...       63
Average number of grid points per atom       ...     2875
UseSFitting                                  ... on

Time for X-Grid setup             =    0.766 sec


--------------------
CPCM SOLVATION MODEL
--------------------
CPCM parameters:
  Epsilon                                         ...      80.4000
  Refrac                                          ...       1.3300
  Rsolv                                           ...       1.3000
  Surface type                                    ... GAUSSIAN VDW
  Epsilon function type                           ...         CPCM
Radii:
 Radius for C  used is    3.8550 Bohr (=   2.0400 Ang.)
 Radius for N  used is    3.5149 Bohr (=   1.8600 Ang.)
 Radius for H  used is    2.4944 Bohr (=   1.3200 Ang.)
 Radius for S  used is    4.0818 Bohr (=   2.1600 Ang.)
 Radius for O  used is    3.4469 Bohr (=   1.8240 Ang.)
 Radius for F  used is    3.3335 Bohr (=   1.7640 Ang.)
Calculating surface                               ...        done! (  0.0s)
GEPOL surface points                              ...         1630
GEPOL Volume                                      ...    1695.1662
GEPOL Surface-area                                ...     882.8948
Calculating surface distance matrix               ...        done! (  0.0s)
Performing Cholesky decomposition & store         ...        done! (  0.2s)
Overall time for CPCM initialization              ...                 0.3s
--------------
SCF ITERATIONS
--------------
ITER       Energy         Delta-E        Max-DP      RMS-DP      [F,P]     Damp
               ***  Starting incremental Fock matrix formation  ***
  0  -1071.6435083589   0.000000000000 0.20615924  0.00288644  0.2585884 0.7000
  1  -1071.8891093437  -0.245600984872 0.12833936  0.00206731  0.1441320 0.7000
                               ***Turning on DIIS***
  2  -1072.0023806563  -0.113271312540 0.30208471  0.00442447  0.0779980 0.0000
  3  -1072.1857094291  -0.183328772834 0.09972731  0.00121807  0.0594283 0.0000
  4  -1072.2159824728  -0.030273043718 0.01381882  0.00027943  0.0117714 0.0000
  5  -1072.2169260450  -0.000943572164 0.00628608  0.00012339  0.0055292 0.0000
                      *** Initiating the SOSCF procedure ***
                           *** Shutting down DIIS ***
                      *** Re-Reading the Fockian *** 
                      *** Removing any level shift *** 
ITER      Energy       Delta-E        Grad      Rot      Max-DP    RMS-DP
  6  -1072.21705711  -0.0001310635  0.000292  0.000292  0.009546  0.000095
               *** Restarting incremental Fock matrix formation ***
  7  -1072.21706596  -0.0000088538  0.000153  0.000134  0.004927  0.000098
  8  -1072.21706738  -0.0000014211  0.000174  0.000147  0.001164  0.000022
  9  -1072.21706888  -0.0000014933  0.000025  0.000073  0.000648  0.000010
 10  -1072.21706891  -0.0000000328  0.000014  0.000029  0.000448  0.000004
 11  -1072.21706894  -0.0000000288  0.000004  0.000013  0.000171  0.000003
                  ***Gradient check signals convergence***
              ***Rediagonalizing the Fockian in SOSCF/NRSCF***

               *****************************************************
               *                     SUCCESS                       *
               *           SCF CONVERGED AFTER  12 CYCLES          *
               *****************************************************

Old exchange energy                            =    -34.935126507 Eh
New exchange energy                            =    -34.935141196 Eh
Exchange energy change after final integration =     -0.000014689 Eh
Total energy after final integration           =  -1072.217083651 Eh
Final COS-X integration done in                =    10.915 sec

----------------
TOTAL SCF ENERGY
----------------

Total Energy       :        -1072.21708365 Eh          -29176.51015 eV

Components:
Nuclear Repulsion  :         1191.41258612 Eh           32419.98467 eV
Electronic Energy  :        -2263.62966977 Eh          -61596.49482 eV
One Electron Energy:        -3834.30335316 Eh         -104336.69861 eV
Two Electron Energy:         1570.67368339 Eh           42740.20379 eV
Max COSX asymmetry :            0.00000668 Eh               0.00018 eV
CPCM Dielectric    :           -0.02861528 Eh              -0.77866 eV

Virial components:
Potential Energy   :        -2137.01315142 Eh          -58151.08419 eV
Kinetic Energy     :         1064.79606777 Eh           28974.57404 eV
Virial Ratio       :            2.00696942


DFT components:
N(Alpha)           :       60.000008848984 electrons
N(Beta)            :       60.000008848984 electrons
N(Total)           :      120.000017697968 electrons
E(XC)              :      -82.073733492715 Eh       
DFET-embed. en.    :        0.000000000000 Eh       
CPCM Solvation Model Properties:
Surface-charge          :           -0.03068031
Charge-correction       :           -0.00005751 Eh              -0.00156 eV
Free-energy (cav+disp)  :  This term is not implemented in the current solvation scheme

---------------
SCF CONVERGENCE
---------------

  Last Energy change         ...   -2.3276e-08  Tolerance :   1.0000e-08
  Last MAX-Density change    ...    3.9968e-15  Tolerance :   1.0000e-07
  Last RMS-Density change    ...    3.5363e-17  Tolerance :   5.0000e-09
  Last Orbital Gradient      ...    1.7445e-06  Tolerance :   1.0000e-05
  Last Orbital Rotation      ...    3.4609e-06  Tolerance :   1.0000e-05

             **** THE GBW FILE WAS UPDATED (D8_wb97.gbw) ****
             **** DENSITY D8_wb97.scfp WAS UPDATED ****
             **** ENERGY FILE WAS UPDATED (D8_wb97.en.tmp) ****
             **** THE GBW FILE WAS UPDATED (D8_wb97.gbw) ****
             **** DENSITY D8_wb97.scfp WAS UPDATED ****
----------------
ORBITAL ENERGIES
----------------

  NO   OCC          E(Eh)            E(eV) 
   0   2.0000     -89.243418     -2428.4369 
   1   2.0000     -24.909112      -677.8114 
   2   2.0000     -19.274151      -524.4763 
   3   2.0000     -19.274045      -524.4734 
   4   2.0000     -14.433857      -392.7652 
   5   2.0000     -14.431719      -392.7070 
   6   2.0000     -10.343587      -281.4633 
   7   2.0000     -10.339864      -281.3620 
   8   2.0000     -10.316989      -280.7395 
   9   2.0000     -10.303094      -280.3614 
  10   2.0000     -10.289704      -279.9971 
  11   2.0000     -10.283804      -279.8365 
  12   2.0000     -10.281284      -279.7680 
  13   2.0000     -10.204574      -277.6806 
  14   2.0000      -8.316775      -226.3109 
  15   2.0000      -6.280580      -170.9033 
  16   2.0000      -6.274494      -170.7377 
  17   2.0000      -6.272429      -170.6815 
  18   2.0000      -1.467842       -39.9420 
  19   2.0000      -1.249315       -33.9956 
  20   2.0000      -1.153877       -31.3986 
  21   2.0000      -1.080208       -29.3939 
  22   2.0000      -0.990277       -26.9468 
  23   2.0000      -0.944705       -25.7067 
  24   2.0000      -0.901316       -24.5261 
  25   2.0000      -0.872039       -23.7294 
  26   2.0000      -0.828564       -22.5464 
  27   2.0000      -0.816190       -22.2097 
  28   2.0000      -0.774658       -21.0795 
  29   2.0000      -0.735681       -20.0189 
  30   2.0000      -0.699426       -19.0323 
  31   2.0000      -0.696060       -18.9407 
  32   2.0000      -0.680362       -18.5136 
  33   2.0000      -0.675293       -18.3757 
  34   2.0000      -0.654553       -17.8113 
  35   2.0000      -0.633559       -17.2400 
  36   2.0000      -0.602692       -16.4001 
  37   2.0000      -0.593186       -16.1414 
  38   2.0000      -0.585341       -15.9279 
  39   2.0000      -0.575027       -15.6473 
  40   2.0000      -0.574568       -15.6348 
  41   2.0000      -0.564931       -15.3726 
  42   2.0000      -0.540816       -14.7163 
  43   2.0000      -0.529867       -14.4184 
  44   2.0000      -0.517929       -14.0936 
  45   2.0000      -0.505622       -13.7587 
  46   2.0000      -0.498449       -13.5635 
  47   2.0000      -0.490653       -13.3513 
  48   2.0000      -0.477186       -12.9849 
  49   2.0000      -0.466523       -12.6947 
  50   2.0000      -0.462986       -12.5985 
  51   2.0000      -0.455477       -12.3941 
  52   2.0000      -0.448971       -12.2171 
  53   2.0000      -0.436941       -11.8898 
  54   2.0000      -0.431229       -11.7343 
  55   2.0000      -0.420051       -11.4302 
  56   2.0000      -0.417372       -11.3573 
  57   2.0000      -0.409079       -11.1316 
  58   2.0000      -0.346407        -9.4262 
  59   2.0000      -0.260415        -7.0862 
  60   0.0000       0.070778         1.9260 
  61   0.0000       0.091215         2.4821 
  62   0.0000       0.093060         2.5323 
  63   0.0000       0.097036         2.6405 
  64   0.0000       0.113828         3.0974 
  65   0.0000       0.117216         3.1896 
  66   0.0000       0.121702         3.3117 
  67   0.0000       0.124081         3.3764 
  68   0.0000       0.130219         3.5434 
  69   0.0000       0.136073         3.7027 
  70   0.0000       0.148139         4.0311 
  71   0.0000       0.150083         4.0840 
  72   0.0000       0.158385         4.3099 
  73   0.0000       0.159759         4.3473 
  74   0.0000       0.166023         4.5177 
  75   0.0000       0.168693         4.5904 
  76   0.0000       0.180704         4.9172 
  77   0.0000       0.182965         4.9787 
  78   0.0000       0.187972         5.1150 
  79   0.0000       0.192259         5.2316 
  80   0.0000       0.197804         5.3825 
  81   0.0000       0.198930         5.4132 
  82   0.0000       0.208568         5.6754 
  83   0.0000       0.217976         5.9314 
  84   0.0000       0.223311         6.0766 
  85   0.0000       0.228125         6.2076 
  86   0.0000       0.232958         6.3391 
  87   0.0000       0.234798         6.3892 
  88   0.0000       0.242370         6.5952 
  89   0.0000       0.244992         6.6666 
  90   0.0000       0.249846         6.7986 
  91   0.0000       0.257620         7.0102 
  92   0.0000       0.259193         7.0530 
  93   0.0000       0.261658         7.1201 
  94   0.0000       0.272674         7.4198 
  95   0.0000       0.277249         7.5443 
  96   0.0000       0.280565         7.6346 
  97   0.0000       0.283705         7.7200 
  98   0.0000       0.290035         7.8923 
  99   0.0000       0.293682         7.9915 
 100   0.0000       0.297532         8.0962 
 101   0.0000       0.303696         8.2640 
 102   0.0000       0.304641         8.2897 
 103   0.0000       0.308072         8.3831 
 104   0.0000       0.314901         8.5689 
 105   0.0000       0.322166         8.7666 
 106   0.0000       0.325954         8.8697 
 107   0.0000       0.331462         9.0195 
 108   0.0000       0.334765         9.1094 
 109   0.0000       0.337855         9.1935 
 110   0.0000       0.345594         9.4041 
 111   0.0000       0.348265         9.4768 
 112   0.0000       0.356212         9.6930 
 113   0.0000       0.360707         9.8153 
 114   0.0000       0.371702        10.1145 
 115   0.0000       0.374495        10.1905 
 116   0.0000       0.379302        10.3213 
 117   0.0000       0.387739        10.5509 
 118   0.0000       0.390443        10.6245 
 119   0.0000       0.395951        10.7744 
 120   0.0000       0.399578        10.8731 
 121   0.0000       0.401148        10.9158 
 122   0.0000       0.402327        10.9479 
 123   0.0000       0.404030        10.9942 
 124   0.0000       0.408978        11.1289 
 125   0.0000       0.417666        11.3653 
 126   0.0000       0.422892        11.5075 
 127   0.0000       0.426351        11.6016 
 128   0.0000       0.431638        11.7455 
 129   0.0000       0.432009        11.7556 
 130   0.0000       0.436611        11.8808 
 131   0.0000       0.441385        12.0107 
 132   0.0000       0.444347        12.0913 
 133   0.0000       0.451137        12.2761 
 134   0.0000       0.454834        12.3767 
 135   0.0000       0.457449        12.4478 
 136   0.0000       0.460985        12.5440 
 137   0.0000       0.464998        12.6532 
 138   0.0000       0.469955        12.7881 
 139   0.0000       0.473425        12.8826 
 140   0.0000       0.475200        12.9308 
 141   0.0000       0.483251        13.1499 
 142   0.0000       0.488535        13.2937 
 143   0.0000       0.492622        13.4049 
 144   0.0000       0.495010        13.4699 
 145   0.0000       0.498119        13.5545 
 146   0.0000       0.502766        13.6810 
 147   0.0000       0.505278        13.7493 
 148   0.0000       0.512393        13.9429 
 149   0.0000       0.515116        14.0170 
 150   0.0000       0.519657        14.1406 
 151   0.0000       0.525959        14.3121 
 152   0.0000       0.528050        14.3690 
 153   0.0000       0.533931        14.5290 
 154   0.0000       0.536586        14.6012 
 155   0.0000       0.544805        14.8249 
 156   0.0000       0.548193        14.9171 
 157   0.0000       0.553598        15.0642 
 158   0.0000       0.555764        15.1231 
 159   0.0000       0.562744        15.3131 
 160   0.0000       0.566708        15.4209 
 161   0.0000       0.568227        15.4622 
 162   0.0000       0.575707        15.6658 
 163   0.0000       0.575979        15.6732 
 164   0.0000       0.582338        15.8462 
 165   0.0000       0.585212        15.9244 
 166   0.0000       0.595282        16.1984 
 167   0.0000       0.598356        16.2821 
 168   0.0000       0.602784        16.4026 
 169   0.0000       0.603672        16.4268 
 170   0.0000       0.607521        16.5315 
 171   0.0000       0.616497        16.7757 
 172   0.0000       0.621837        16.9210 
 173   0.0000       0.626824        17.0567 
 174   0.0000       0.629248        17.1227 
 175   0.0000       0.631088        17.1728 
 176   0.0000       0.638832        17.3835 
 177   0.0000       0.643643        17.5144 
 178   0.0000       0.646706        17.5978 
 179   0.0000       0.650317        17.6960 
 180   0.0000       0.659472        17.9451 
 181   0.0000       0.667070        18.1519 
 182   0.0000       0.667264        18.1572 
 183   0.0000       0.670870        18.2553 
 184   0.0000       0.674871        18.3642 
 185   0.0000       0.685445        18.6519 
 186   0.0000       0.692161        18.8347 
 187   0.0000       0.696203        18.9446 
 188   0.0000       0.697815        18.9885 
 189   0.0000       0.704007        19.1570 
 190   0.0000       0.709071        19.2948 
 191   0.0000       0.717359        19.5203 
 192   0.0000       0.720639        19.6096 
 193   0.0000       0.726206        19.7611 
 194   0.0000       0.731961        19.9177 
 195   0.0000       0.735326        20.0092 
 196   0.0000       0.742562        20.2061 
 197   0.0000       0.745324        20.2813 
 198   0.0000       0.750217        20.4144 
 199   0.0000       0.756213        20.5776 
 200   0.0000       0.762732        20.7550 
 201   0.0000       0.764315        20.7981 
 202   0.0000       0.768002        20.8984 
 203   0.0000       0.777372        21.1534 
 204   0.0000       0.780369        21.2349 
 205   0.0000       0.785674        21.3793 
 206   0.0000       0.795579        21.6488 
 207   0.0000       0.798197        21.7200 
 208   0.0000       0.807043        21.9608 
 209   0.0000       0.813102        22.1256 
 210   0.0000       0.822288        22.3756 
 211   0.0000       0.823697        22.4139 
 212   0.0000       0.826208        22.4823 
 213   0.0000       0.832703        22.6590 
 214   0.0000       0.840448        22.8698 
 215   0.0000       0.847715        23.0675 
 216   0.0000       0.855527        23.2801 
 217   0.0000       0.864028        23.5114 
 218   0.0000       0.869521        23.6609 
 219   0.0000       0.875071        23.8119 
 220   0.0000       0.887160        24.1409 
 221   0.0000       0.892747        24.2929 
 222   0.0000       0.900701        24.5093 
 223   0.0000       0.904910        24.6239 
 224   0.0000       0.914452        24.8835 
 225   0.0000       0.923265        25.1233 
 226   0.0000       0.940888        25.6029 
 227   0.0000       0.944678        25.7060 
 228   0.0000       0.954487        25.9729 
 229   0.0000       0.959778        26.1169 
 230   0.0000       0.962346        26.1868 
 231   0.0000       0.973389        26.4873 
 232   0.0000       0.980288        26.6750 
 233   0.0000       0.996368        27.1125 
 234   0.0000       1.003315        27.3016 
 235   0.0000       1.008503        27.4428 
 236   0.0000       1.028265        27.9805 
 237   0.0000       1.042857        28.3776 
 238   0.0000       1.046555        28.4782 
 239   0.0000       1.063741        28.9459 
 240   0.0000       1.080944        29.4140 
 241   0.0000       1.087092        29.5813 
 242   0.0000       1.090793        29.6820 
 243   0.0000       1.102890        30.0112 
 244   0.0000       1.109753        30.1979 
 245   0.0000       1.117325        30.4040 
 246   0.0000       1.119480        30.4626 
 247   0.0000       1.132305        30.8116 
 248   0.0000       1.142581        31.0912 
 249   0.0000       1.144451        31.1421 
 250   0.0000       1.160321        31.5739 
 251   0.0000       1.168047        31.7842 
 252   0.0000       1.171913        31.8894 
 253   0.0000       1.175216        31.9793 
 254   0.0000       1.185017        32.2460 
 255   0.0000       1.185919        32.2705 
 256   0.0000       1.203487        32.7485 
 257   0.0000       1.205786        32.8111 
 258   0.0000       1.211154        32.9572 
 259   0.0000       1.220083        33.2001 
 260   0.0000       1.224365        33.3167 
 261   0.0000       1.240844        33.7651 
 262   0.0000       1.254644        34.1406 
 263   0.0000       1.258022        34.2325 
 264   0.0000       1.261019        34.3141 
 265   0.0000       1.263336        34.3771 
 266   0.0000       1.288640        35.0657 
 267   0.0000       1.289888        35.0996 
 268   0.0000       1.301085        35.4043 
 269   0.0000       1.308747        35.6128 
 270   0.0000       1.327486        36.1227 
 271   0.0000       1.332914        36.2704 
 272   0.0000       1.343273        36.5523 
 273   0.0000       1.352683        36.8084 
 274   0.0000       1.361645        37.0523 
 275   0.0000       1.382639        37.6235 
 276   0.0000       1.384031        37.6614 
 277   0.0000       1.405664        38.2501 
 278   0.0000       1.410015        38.3685 
 279   0.0000       1.419448        38.6252 
 280   0.0000       1.424583        38.7649 
 281   0.0000       1.438516        39.1440 
 282   0.0000       1.457183        39.6520 
 283   0.0000       1.462755        39.8036 
 284   0.0000       1.485969        40.4353 
 285   0.0000       1.501921        40.8693 
 286   0.0000       1.515765        41.2461 
 287   0.0000       1.529919        41.6312 
 288   0.0000       1.538023        41.8517 
 289   0.0000       1.556151        42.3450 
 290   0.0000       1.559777        42.4437 
 291   0.0000       1.589431        43.2506 
 292   0.0000       1.615742        43.9666 
 293   0.0000       1.621924        44.1348 
 294   0.0000       1.642612        44.6977 
 295   0.0000       1.646830        44.8125 
 296   0.0000       1.670811        45.4651 
 297   0.0000       1.687216        45.9115 
 298   0.0000       1.694837        46.1189 
 299   0.0000       1.697907        46.2024 
 300   0.0000       1.706882        46.4466 
 301   0.0000       1.735169        47.2164 
 302   0.0000       1.738823        47.3158 
 303   0.0000       1.752816        47.6965 
 304   0.0000       1.764148        48.0049 
 305   0.0000       1.776842        48.3503 
 306   0.0000       1.787530        48.6412 
 307   0.0000       1.803645        49.0797 
 308   0.0000       1.816931        49.4412 
 309   0.0000       1.830149        49.8009 
 310   0.0000       1.838152        50.0187 
 311   0.0000       1.847957        50.2855 
 312   0.0000       1.862936        50.6931 
 313   0.0000       1.880241        51.1640 
 314   0.0000       1.890958        51.4556 
 315   0.0000       1.903575        51.7989 
 316   0.0000       1.923108        52.3304 
 317   0.0000       1.929926        52.5160 
 318   0.0000       1.950124        53.0656 
 319   0.0000       1.958842        53.3028 
 320   0.0000       1.968415        53.5633 
 321   0.0000       1.981593        53.9219 
 322   0.0000       1.998737        54.3884 
 323   0.0000       2.001649        54.4676 
 324   0.0000       2.019716        54.9593 
 325   0.0000       2.027289        55.1653 
 326   0.0000       2.032734        55.3135 
 327   0.0000       2.034973        55.3744 
 328   0.0000       2.047351        55.7112 
 329   0.0000       2.055668        55.9376 
 330   0.0000       2.064668        56.1825 
 331   0.0000       2.079564        56.5878 
 332   0.0000       2.082736        56.6741 
 333   0.0000       2.107720        57.3540 
 334   0.0000       2.114614        57.5416 
 335   0.0000       2.121948        57.7411 
 336   0.0000       2.132109        58.0176 
 337   0.0000       2.135242        58.1029 
 338   0.0000       2.147258        58.4299 
 339   0.0000       2.156088        58.6701 
 340   0.0000       2.159113        58.7524 
 341   0.0000       2.173353        59.1399 
 342   0.0000       2.179139        59.2974 
 343   0.0000       2.188691        59.5573 
 344   0.0000       2.194132        59.7054 
 345   0.0000       2.204109        59.9768 
 346   0.0000       2.210225        60.1433 
 347   0.0000       2.226742        60.5927 
 348   0.0000       2.231522        60.7228 
 349   0.0000       2.247104        61.1468 
 350   0.0000       2.251624        61.2698 
 351   0.0000       2.258283        61.4510 
 352   0.0000       2.273272        61.8589 
 353   0.0000       2.284937        62.1763 
 354   0.0000       2.323896        63.2364 
 355   0.0000       2.328889        63.3723 
 356   0.0000       2.347402        63.8760 
 357   0.0000       2.365919        64.3799 
 358   0.0000       2.374917        64.6248 
 359   0.0000       2.387250        64.9604 
 360   0.0000       2.410105        65.5823 
 361   0.0000       2.418217        65.8030 
 362   0.0000       2.432246        66.1848 
 363   0.0000       2.450467        66.6806 
 364   0.0000       2.462478        67.0074 
 365   0.0000       2.484143        67.5970 
 366   0.0000       2.521967        68.6262 
 367   0.0000       2.528434        68.8022 
 368   0.0000       2.558006        69.6069 
 369   0.0000       2.567850        69.8748 
 370   0.0000       2.578303        70.1592 
 371   0.0000       2.593005        70.5593 
 372   0.0000       2.607708        70.9593 
 373   0.0000       2.612262        71.0833 
 374   0.0000       2.627892        71.5086 
 375   0.0000       2.648238        72.0622 
 376   0.0000       2.650989        72.1371 
 377   0.0000       2.673303        72.7443 
 378   0.0000       2.688350        73.1537 
 379   0.0000       2.697907        73.4138 
 380   0.0000       2.708875        73.7122 
 381   0.0000       2.723191        74.1018 
 382   0.0000       2.752110        74.8887 
 383   0.0000       2.760304        75.1117 
 384   0.0000       2.777432        75.5778 
 385   0.0000       2.793583        76.0173 
 386   0.0000       2.803249        76.2803 
 387   0.0000       2.817246        76.6612 
 388   0.0000       2.855780        77.7097 
 389   0.0000       2.867668        78.0332 
 390   0.0000       2.887638        78.5766 
 391   0.0000       2.901540        78.9549 
 392   0.0000       2.923170        79.5435 
 393   0.0000       2.951164        80.3052 
 394   0.0000       2.957780        80.4853 
 395   0.0000       2.968628        80.7805 
 396   0.0000       2.975716        80.9734 
 397   0.0000       2.989465        81.3475 
 398   0.0000       3.000857        81.6575 
 399   0.0000       3.019140        82.1550 
 400   0.0000       3.031000        82.4777 
 401   0.0000       3.038239        82.6747 
 402   0.0000       3.063539        83.3631 
 403   0.0000       3.093587        84.1808 
 404   0.0000       3.134105        85.2833 
 405   0.0000       3.143052        85.5268 
 406   0.0000       3.149931        85.7140 
 407   0.0000       3.178876        86.5016 
 408   0.0000       3.206378        87.2500 
 409   0.0000       3.234945        88.0273 
 410   0.0000       3.247081        88.3576 
 411   0.0000       3.256805        88.6222 
 412   0.0000       3.296892        89.7130 
 413   0.0000       3.301802        89.8466 
 414   0.0000       3.325050        90.4792 
 415   0.0000       3.341669        90.9314 
 416   0.0000       3.359087        91.4054 
 417   0.0000       3.371169        91.7342 
 418   0.0000       3.397703        92.4562 
 419   0.0000       3.426804        93.2481 
 420   0.0000       3.447707        93.8169 
 421   0.0000       3.458301        94.1052 
 422   0.0000       3.482525        94.7643 
 423   0.0000       3.539823        96.3235 
 424   0.0000       3.545743        96.4846 
 425   0.0000       3.586317        97.5886 
 426   0.0000       3.666032        99.7578 
 427   0.0000       3.683545       100.2343 
 428   0.0000       3.740022       101.7712 
 429   0.0000       3.815147       103.8154 
 430   0.0000       3.894224       105.9672 
 431   0.0000       3.903798       106.2277 

                    ********************************
                    * MULLIKEN POPULATION ANALYSIS *
                    ********************************

-----------------------
MULLIKEN ATOMIC CHARGES
-----------------------
   0 C :    0.907482
   1 N :   -0.063511
   2 C :    0.389801
   3 C :   -0.040141
   4 H :    0.230820
   5 H :   -0.034376
   6 S :    1.564154
   7 C :    0.630937
   8 C :    0.663352
   9 N :    0.080497
  10 H :    0.008806
  11 H :   -0.126129
  12 H :   -0.584360
  13 H :   -0.332372
  14 H :   -0.589510
  15 O :   -0.726468
  16 O :   -0.756164
  17 C :    0.327851
  18 H :   -0.337828
  19 H :   -0.094607
  20 C :   -0.033890
  21 H :    0.026269
  22 H :    0.029392
  23 C :   -0.039511
  24 H :   -0.014094
  25 H :   -0.062012
  26 F :   -0.602090
  27 H :    0.089550
  28 H :   -0.276401
  29 H :   -0.124015
  30 H :   -0.111431
Sum of atomic charges:   -0.0000000

--------------------------------
MULLIKEN REDUCED ORBITAL CHARGES
--------------------------------
  0 C s       :     2.551053  s :     2.551053
      pz      :     0.725943  p :     2.483255
      px      :     0.822048
      py      :     0.935264
      dz2     :    -0.083162  d :     0.058210
      dxz     :    -0.010193
      dyz     :     0.128156
      dx2y2   :    -0.003665
      dxy     :     0.027074
  1 N s       :     3.025949  s :     3.025949
      pz      :     1.070832  p :     3.748655
      px      :     1.055210
      py      :     1.622614
      dz2     :     0.056818  d :     0.288907
      dxz     :     0.103556
      dyz     :     0.036647
      dx2y2   :     0.077090
      dxy     :     0.014796
  2 C s       :     2.536490  s :     2.536490
      pz      :     0.867224  p :     2.715211
      px      :     0.905719
      py      :     0.942268
      dz2     :     0.153109  d :     0.358498
      dxz     :     0.059858
      dyz     :     0.012939
      dx2y2   :     0.122345
      dxy     :     0.010248
  3 C s       :     2.843250  s :     2.843250
      pz      :     0.983282  p :     2.934527
      px      :     1.096242
      py      :     0.855003
      dz2     :     0.076051  d :     0.262364
      dxz     :     0.023164
      dyz     :     0.063826
      dx2y2   :     0.078594
      dxy     :     0.020730
  4 H s       :     0.731730  s :     0.731730
      pz      :    -0.013394  p :     0.037450
      px      :     0.026440
      py      :     0.024403
  5 H s       :     0.994041  s :     0.994041
      pz      :     0.017192  p :     0.040335
      px      :    -0.010357
      py      :     0.033499
  6 S s       :     4.861447  s :     4.861447
      pz      :     2.896862  p :     8.732961
      px      :     2.831069
      py      :     3.005031
      dz2     :     0.110503  d :     0.841437
      dxz     :     0.196009
      dyz     :     0.174171
      dx2y2   :     0.202030
      dxy     :     0.158725
  7 C s       :     2.746623  s :     2.746623
      pz      :     0.512882  p :     2.158638
      px      :     0.818346
      py      :     0.827410
      dz2     :     0.135395  d :     0.463802
      dxz     :     0.027588
      dyz     :     0.188072
      dx2y2   :     0.074676
      dxy     :     0.038071
  8 C s       :     2.692841  s :     2.692841
      pz      :     0.943357  p :     2.568570
      px      :     0.550649
      py      :     1.074564
      dz2     :     0.046028  d :     0.075238
      dxz     :    -0.014457
      dyz     :     0.021412
      dx2y2   :     0.005492
      dxy     :     0.016764
  9 N s       :     3.260842  s :     3.260842
      pz      :     1.076284  p :     3.677198
      px      :     1.002008
      py      :     1.598906
      dz2     :     0.000211  d :    -0.018537
      dxz     :    -0.011531
      dyz     :     0.006713
      dx2y2   :    -0.012718
      dxy     :    -0.001213
 10 H s       :     0.977946  s :     0.977946
      pz      :     0.019387  p :     0.013248
      px      :    -0.062317
      py      :     0.056178
 11 H s       :     1.101916  s :     1.101916
      pz      :    -0.022596  p :     0.024213
      px      :    -0.008271
      py      :     0.055080
 12 H s       :     1.525545  s :     1.525545
      pz      :     0.073219  p :     0.058814
      px      :    -0.071979
      py      :     0.057575
 13 H s       :     1.405565  s :     1.405565
      pz      :     0.005923  p :    -0.073193
      px      :    -0.112351
      py      :     0.033235
 14 H s       :     1.536189  s :     1.536189
      pz      :     0.022992  p :     0.053321
      px      :    -0.020480
      py      :     0.050809
 15 O s       :     3.932401  s :     3.932401
      pz      :     1.401363  p :     4.769018
      px      :     1.635239
      py      :     1.732416
      dz2     :     0.005291  d :     0.025049
      dxz     :     0.002050
      dyz     :     0.009632
      dx2y2   :     0.003688
      dxy     :     0.004387
 16 O s       :     3.961700  s :     3.961700
      pz      :     1.768854  p :     4.774785
      px      :     1.272111
      py      :     1.733819
      dz2     :     0.002101  d :     0.019679
      dxz     :     0.006015
      dyz     :    -0.000342
      dx2y2   :     0.008394
      dxy     :     0.003512
 17 C s       :     2.720561  s :     2.720561
      pz      :     0.946343  p :     2.659026
      px      :     0.787651
      py      :     0.925031
      dz2     :     0.055929  d :     0.292562
      dxz     :     0.111891
      dyz     :     0.020643
      dx2y2   :     0.070957
      dxy     :     0.033142
 18 H s       :     1.287047  s :     1.287047
      pz      :     0.016780  p :     0.050781
      px      :     0.013985
      py      :     0.020016
 19 H s       :     1.091625  s :     1.091625
      pz      :     0.007702  p :     0.002982
      px      :     0.033243
      py      :    -0.037963
 20 C s       :     2.823541  s :     2.823541
      pz      :     0.856852  p :     2.792100
      px      :     0.980841
      py      :     0.954407
      dz2     :     0.088656  d :     0.418250
      dxz     :     0.125114
      dyz     :     0.063860
      dx2y2   :     0.060635
      dxy     :     0.079985
 21 H s       :     0.961735  s :     0.961735
      pz      :    -0.012525  p :     0.011996
      px      :     0.052837
      py      :    -0.028316
 22 H s       :     0.981330  s :     0.981330
      pz      :    -0.008958  p :    -0.010722
      px      :    -0.040410
      py      :     0.038646
 23 C s       :     2.818791  s :     2.818791
      pz      :     0.954384  p :     2.769712
      px      :     0.990115
      py      :     0.825212
      dz2     :     0.096792  d :     0.451008
      dxz     :     0.150566
      dyz     :     0.030546
      dx2y2   :     0.101050
      dxy     :     0.072054
 24 H s       :     1.015683  s :     1.015683
      pz      :    -0.006915  p :    -0.001589
      px      :     0.022841
      py      :    -0.017514
 25 H s       :     1.059322  s :     1.059322
      pz      :     0.023010  p :     0.002690
      px      :    -0.015600
      py      :    -0.004720
 26 F s       :     4.045978  s :     4.045978
      pz      :     1.819600  p :     5.529095
      px      :     1.891620
      py      :     1.817875
      dz2     :     0.000065  d :     0.027017
      dxz     :     0.009026
      dyz     :     0.006273
      dx2y2   :     0.003791
      dxy     :     0.007862
 27 H s       :     0.859057  s :     0.859057
      pz      :     0.025798  p :     0.051393
      px      :     0.064319
      py      :    -0.038723
 28 H s       :     1.244168  s :     1.244168
      pz      :    -0.004081  p :     0.032234
      px      :    -0.015395
      py      :     0.051709
 29 H s       :     1.055191  s :     1.055191
      pz      :     0.005836  p :     0.068824
      px      :    -0.005493
      py      :     0.068481
 30 H s       :     1.097506  s :     1.097506
      pz      :     0.006694  p :     0.013925
      px      :     0.037799
      py      :    -0.030568


                     *******************************
                     * LOEWDIN POPULATION ANALYSIS *
                     *******************************

----------------------
LOEWDIN ATOMIC CHARGES
----------------------
   0 C :    0.067254
   1 N :    0.000293
   2 C :   -0.023811
   3 C :   -0.024130
   4 H :    0.033614
   5 H :    0.042901
   6 S :    1.148074
   7 C :   -0.232152
   8 C :    0.135766
   9 N :    0.205098
  10 H :   -0.005273
  11 H :    0.016899
  12 H :   -0.044141
  13 H :   -0.150213
  14 H :   -0.101892
  15 O :   -0.476933
  16 O :   -0.475500
  17 C :   -0.014089
  18 H :    0.019127
  19 H :    0.024178
  20 C :   -0.024458
  21 H :    0.030338
  22 H :    0.045648
  23 C :   -0.027943
  24 H :    0.018319
  25 H :    0.026104
  26 F :   -0.296486
  27 H :    0.006296
  28 H :    0.032242
  29 H :    0.004442
  30 H :    0.040428

-------------------------------
LOEWDIN REDUCED ORBITAL CHARGES
-------------------------------
  0 C s       :     2.657879  s :     2.657879
      pz      :     0.829870  p :     2.594690
      px      :     0.870140
      py      :     0.894680
      dz2     :     0.118960  d :     0.680176
      dxz     :     0.102848
      dyz     :     0.205770
      dx2y2   :     0.135789
      dxy     :     0.116810
  1 N s       :     2.888519  s :     2.888519
      pz      :     1.053093  p :     3.487390
      px      :     1.073819
      py      :     1.360479
      dz2     :     0.135207  d :     0.623798
      dxz     :     0.185142
      dyz     :     0.084459
      dx2y2   :     0.118196
      dxy     :     0.100794
  2 C s       :     2.671411  s :     2.671411
      pz      :     0.884799  p :     2.696474
      px      :     0.895333
      py      :     0.916343
      dz2     :     0.147234  d :     0.655925
      dxz     :     0.163682
      dyz     :     0.134321
      dx2y2   :     0.152543
      dxy     :     0.058146
  3 C s       :     2.708017  s :     2.708017
      pz      :     0.927061  p :     2.716782
      px      :     0.964534
      py      :     0.825187
      dz2     :     0.112568  d :     0.599331
      dxz     :     0.112090
      dyz     :     0.151453
      dx2y2   :     0.137818
      dxy     :     0.085402
  4 H s       :     0.702751  s :     0.702751
      pz      :     0.084042  p :     0.263636
      px      :     0.114207
      py      :     0.065387
  5 H s       :     0.700853  s :     0.700853
      pz      :     0.097223  p :     0.256247
      px      :     0.068387
      py      :     0.090636
  6 S s       :     4.657066  s :     4.657066
      pz      :     2.790593  p :     8.374523
      px      :     2.795602
      py      :     2.788327
      dz2     :     0.318285  d :     1.820337
      dxz     :     0.419615
      dyz     :     0.372299
      dx2y2   :     0.374612
      dxy     :     0.335527
  7 C s       :     2.627566  s :     2.627566
      pz      :     0.913648  p :     2.494041
      px      :     0.876231
      py      :     0.704163
      dz2     :     0.250551  d :     1.110544
      dxz     :     0.276098
      dyz     :     0.229412
      dx2y2   :     0.148221
      dxy     :     0.206262
  8 C s       :     2.710600  s :     2.710600
      pz      :     0.924583  p :     2.816266
      px      :     0.918559
      py      :     0.973123
      dz2     :     0.096740  d :     0.337368
      dxz     :     0.096017
      dyz     :     0.059811
      dx2y2   :     0.051950
      dxy     :     0.032849
  9 N s       :     2.926262  s :     2.926262
      pz      :     1.103304  p :     3.541610
      px      :     1.062658
      py      :     1.375647
      dz2     :     0.106334  d :     0.327030
      dxz     :     0.080016
      dyz     :     0.068550
      dx2y2   :     0.045278
      dxy     :     0.026852
 10 H s       :     0.645909  s :     0.645909
      pz      :     0.122677  p :     0.359365
      px      :     0.113292
      py      :     0.123397
 11 H s       :     0.646702  s :     0.646702
      pz      :     0.077971  p :     0.336399
      px      :     0.144295
      py      :     0.114133
 12 H s       :     0.600627  s :     0.600627
      pz      :     0.199315  p :     0.443514
      px      :     0.104496
      py      :     0.139703
 13 H s       :     0.723162  s :     0.723162
      pz      :     0.118316  p :     0.427052
      px      :     0.160010
      py      :     0.148726
 14 H s       :     0.773657  s :     0.773657
      pz      :     0.075720  p :     0.328235
      px      :     0.126202
      py      :     0.126313
 15 O s       :     3.554427  s :     3.554427
      pz      :     1.479396  p :     4.686754
      px      :     1.592994
      py      :     1.614363
      dz2     :     0.063375  d :     0.235752
      dxz     :     0.065713
      dyz     :     0.052414
      dx2y2   :     0.028364
      dxy     :     0.025886
 16 O s       :     3.554399  s :     3.554399
      pz      :     1.640227  p :     4.683849
      px      :     1.417706
      py      :     1.625916
      dz2     :     0.024738  d :     0.237252
      dxz     :     0.062017
      dyz     :     0.017777
      dx2y2   :     0.064969
      dxy     :     0.067751
 17 C s       :     2.689991  s :     2.689991
      pz      :     0.900019  p :     2.693871
      px      :     0.911461
      py      :     0.882391
      dz2     :     0.102334  d :     0.630226
      dxz     :     0.134501
      dyz     :     0.138672
      dx2y2   :     0.155467
      dxy     :     0.099252
 18 H s       :     0.727564  s :     0.727564
      pz      :     0.083780  p :     0.253309
      px      :     0.085459
      py      :     0.084071
 19 H s       :     0.724628  s :     0.724628
      pz      :     0.068248  p :     0.251194
      px      :     0.114143
      py      :     0.068803
 20 C s       :     2.671472  s :     2.671472
      pz      :     0.883283  p :     2.681904
      px      :     0.906795
      py      :     0.891826
      dz2     :     0.121018  d :     0.671082
      dxz     :     0.172839
      dyz     :     0.132215
      dx2y2   :     0.157519
      dxy     :     0.087490
 21 H s       :     0.711701  s :     0.711701
      pz      :     0.078209  p :     0.257961
      px      :     0.107474
      py      :     0.072278
 22 H s       :     0.712457  s :     0.712457
      pz      :     0.069255  p :     0.241895
      px      :     0.062882
      py      :     0.109758
 23 C s       :     2.675283  s :     2.675283
      pz      :     0.886983  p :     2.682112
      px      :     0.899890
      py      :     0.895239
      dz2     :     0.121801  d :     0.670548
      dxz     :     0.177548
      dyz     :     0.130671
      dx2y2   :     0.152406
      dxy     :     0.088122
 24 H s       :     0.727806  s :     0.727806
      pz      :     0.073651  p :     0.253874
      px      :     0.118032
      py      :     0.062191
 25 H s       :     0.727330  s :     0.727330
      pz      :     0.086952  p :     0.246566
      px      :     0.099944
      py      :     0.059670
 26 F s       :     3.650354  s :     3.650354
      pz      :     1.747889  p :     5.327728
      px      :     1.811534
      py      :     1.768305
      dz2     :     0.075287  d :     0.318404
      dxz     :     0.055055
      dyz     :     0.072706
      dx2y2   :     0.060746
      dxy     :     0.054609
 27 H s       :     0.709085  s :     0.709085
      pz      :     0.102873  p :     0.284619
      px      :     0.099585
      py      :     0.082161
 28 H s       :     0.724389  s :     0.724389
      pz      :     0.070255  p :     0.243369
      px      :     0.061752
      py      :     0.111363
 29 H s       :     0.706808  s :     0.706808
      pz      :     0.092722  p :     0.288750
      px      :     0.073501
      py      :     0.122527
 30 H s       :     0.720785  s :     0.720785
      pz      :     0.082974  p :     0.238786
      px      :     0.093046
      py      :     0.062766


                      *****************************
                      * MAYER POPULATION ANALYSIS *
                      *****************************

  NA   - Mulliken gross atomic population
  ZA   - Total nuclear charge
  QA   - Mulliken gross atomic charge
  VA   - Mayer's total valence
  BVA  - Mayer's bonded valence
  FA   - Mayer's free valence

  ATOM       NA         ZA         QA         VA         BVA        FA
  0 C      5.0925     6.0000     0.9075     3.5773     3.5773     0.0000
  1 N      7.0635     7.0000    -0.0635     3.7870     3.7870    -0.0000
  2 C      5.6102     6.0000     0.3898     4.3013     4.3013     0.0000
  3 C      6.0401     6.0000    -0.0401     4.4882     4.4882     0.0000
  4 H      0.7692     1.0000     0.2308     1.0220     1.0220     0.0000
  5 H      1.0344     1.0000    -0.0344     1.1865     1.1865     0.0000
  6 S     14.4358    16.0000     1.5642     4.8149     4.8149     0.0000
  7 C      5.3691     6.0000     0.6309     3.6315     3.6315    -0.0000
  8 C      5.3366     6.0000     0.6634     3.2795     3.2795    -0.0000
  9 N      6.9195     7.0000     0.0805     3.7555     3.7555    -0.0000
 10 H      0.9912     1.0000     0.0088     0.8873     0.8873     0.0000
 11 H      1.1261     1.0000    -0.1261     0.9045     0.9045    -0.0000
 12 H      1.5844     1.0000    -0.5844     0.6160     0.6160    -0.0000
 13 H      1.3324     1.0000    -0.3324     0.6331     0.6331     0.0000
 14 H      1.5895     1.0000    -0.5895     0.7520     0.7520    -0.0000
 15 O      8.7265     8.0000    -0.7265     1.5782     1.5782    -0.0000
 16 O      8.7562     8.0000    -0.7562     1.6543     1.6543     0.0000
 17 C      5.6721     6.0000     0.3279     4.3527     4.3527    -0.0000
 18 H      1.3378     1.0000    -0.3378     1.0567     1.0567     0.0000
 19 H      1.0946     1.0000    -0.0946     0.9750     0.9750     0.0000
 20 C      6.0339     6.0000    -0.0339     4.9155     4.9155    -0.0000
 21 H      0.9737     1.0000     0.0263     1.0873     1.0873    -0.0000
 22 H      0.9706     1.0000     0.0294     0.9836     0.9836     0.0000
 23 C      6.0395     6.0000    -0.0395     4.8732     4.8732     0.0000
 24 H      1.0141     1.0000    -0.0141     0.9874     0.9874    -0.0000
 25 H      1.0620     1.0000    -0.0620     1.0643     1.0643    -0.0000
 26 F      9.6021     9.0000    -0.6021     1.1087     1.1087    -0.0000
 27 H      0.9105     1.0000     0.0895     1.1061     1.1061     0.0000
 28 H      1.2764     1.0000    -0.2764     1.1351     1.1351     0.0000
 29 H      1.1240     1.0000    -0.1240     1.1833     1.1833    -0.0000
 30 H      1.1114     1.0000    -0.1114     1.0580     1.0580    -0.0000

  Mayer bond orders larger than 0.100000
B(  0-C ,  1-N ) :   0.8779 B(  0-C , 12-H ) :  -0.3062 B(  0-C , 17-C ) :   1.0789 
B(  0-C , 18-H ) :   0.9243 B(  0-C , 19-H ) :   0.6861 B(  0-C , 25-H ) :   0.1028 
B(  1-N ,  7-C ) :   1.0828 B(  1-N ,  8-C ) :   0.2110 B(  1-N ,  9-N ) :   0.2057 
B(  1-N , 12-H ) :   1.1075 B(  1-N , 19-H ) :   0.1342 B(  2-C ,  3-C ) :   1.2729 
B(  2-C ,  4-H ) :   0.1001 B(  2-C ,  5-H ) :   0.1584 B(  2-C , 20-C ) :   1.2435 
B(  2-C , 21-H ) :   0.6974 B(  2-C , 22-H ) :   0.7932 B(  3-C ,  4-H ) :   0.8600 
B(  3-C ,  5-H ) :   0.8649 B(  3-C ,  6-S ) :   1.0795 B(  3-C , 21-H ) :   0.1245 
B(  3-C , 22-H ) :   0.1188 B(  6-S , 15-O ) :   1.4995 B(  6-S , 16-O ) :   1.4187 
B(  6-S , 26-F ) :   0.6079 B(  7-C ,  8-C ) :   1.5114 B(  7-C ,  9-N ) :   0.9859 
B(  7-C , 11-H ) :  -0.1191 B(  7-C , 12-H ) :  -0.3088 B(  7-C , 13-H ) :   0.1324 
B(  7-C , 14-H ) :   0.2555 B(  8-C ,  9-N ) :   0.2643 B(  8-C , 13-H ) :   0.4724 
B(  8-C , 14-H ) :   0.7424 B(  9-N , 10-H ) :   0.9319 B(  9-N , 11-H ) :   1.2509 
B( 10-H , 11-H ) :  -0.2028 B( 12-H , 13-H ) :  -0.1082 B( 12-H , 19-H ) :   0.1706 
B( 12-H , 24-H ) :   0.1061 B( 13-H , 14-H ) :  -0.2216 B( 13-H , 26-F ) :   0.3185 
B( 17-C , 18-H ) :   0.1259 B( 17-C , 19-H ) :   0.1007 B( 17-C , 23-C ) :   1.2401 
B( 17-C , 24-H ) :   0.7848 B( 17-C , 25-H ) :   0.9046 B( 18-H , 19-H ) :  -0.1272 
B( 20-C , 21-H ) :   0.2634 B( 20-C , 23-C ) :   1.1655 B( 20-C , 28-H ) :   0.1409 
B( 20-C , 29-H ) :   0.9689 B( 20-C , 30-H ) :   0.8810 B( 23-C , 24-H ) :   0.2039 
B( 23-C , 25-H ) :   0.1169 B( 23-C , 27-H ) :   0.8692 B( 23-C , 28-H ) :   0.9887 
B( 23-C , 30-H ) :   0.1435 

-------
TIMINGS
-------

Total SCF time: 0 days 0 hours 1 min 10 sec 

Total time                  ....      70.306 sec
Sum of individual times     ....      69.305 sec  ( 98.6%)

Fock matrix formation       ....      66.293 sec  ( 94.3%)
  Split-RI-J                ....       3.249 sec  (  4.9% of F)
  Chain of spheres X        ....      53.279 sec  ( 80.4% of F)
  XC integration            ....       4.723 sec  (  7.1% of F)
    Basis function eval.    ....       1.161 sec  ( 24.6% of XC)
    Density eval.           ....       1.408 sec  ( 29.8% of XC)
    XC-Functional eval.     ....       0.168 sec  (  3.6% of XC)
    XC-Potential eval.      ....       1.428 sec  ( 30.2% of XC)
Diagonalization             ....       0.405 sec  (  0.6%)
Density matrix formation    ....       0.036 sec  (  0.1%)
Population analysis         ....       0.052 sec  (  0.1%)
Initial guess               ....       0.292 sec  (  0.4%)
Orbital Transformation      ....       0.000 sec  (  0.0%)
Orbital Orthonormalization  ....       0.000 sec  (  0.0%)
DIIS solution               ....       0.244 sec  (  0.3%)
SOSCF solution              ....       0.272 sec  (  0.4%)
Grid generation             ....       1.711 sec  (  2.4%)

Maximum memory used throughout the entire SCF-calculation: 86.8 MB


-------------------------------------------------------------------------------
                          DFT DISPERSION CORRECTION                            
                                                                               
                              DFTD3 V3.1  Rev 1                                
                              USING zero damping                               
-------------------------------------------------------------------------------
The omegaB97X-D3 functional is recognized. Fit by Chai et al.
Active option DFTDOPT                   ...         3   

molecular C6(AA) [au] = 8841.153339 


            DFT-D V3
 parameters
 s6 scaling factor         :     1.0000 
 rs6 scaling factor        :     1.2810 
 s8 scaling factor         :     1.0000 
 rs8 scaling factor        :     1.0940 
 Damping factor alpha6     :    14.0000 
 Damping factor alpha8     :    16.0000 
 ad hoc parameters k1-k3   :    16.0000     1.3333    -4.0000 

 Edisp/kcal,au: -10.296185649231  -0.016408014503 
 E6   /kcal   :  -4.497508105 
 E8   /kcal   :  -5.798677544 
 % E8         :  56.318696475 

-------------------------   ----------------
Dispersion correction           -0.016408015
-------------------------   ----------------


-------------------------   --------------------
FINAL SINGLE POINT ENERGY     -1072.233491665202
-------------------------   --------------------


                            ***************************************
                            *     ORCA property calculations      *
                            ***************************************

                                    ---------------------
                                    Active property flags
                                    ---------------------
   (+) Dipole Moment


------------------------------------------------------------------------------
                       ORCA ELECTRIC PROPERTIES CALCULATION
------------------------------------------------------------------------------

Dipole Moment Calculation                       ... on
Quadrupole Moment Calculation                   ... off
Polarizability Calculation                      ... off
GBWName                                         ... D8_wb97.gbw
Electron density file                           ... D8_wb97.scfp
The origin for moment calculation is the CENTER OF MASS  = ( 4.297341, -0.920110 -8.303588)

-------------
DIPOLE MOMENT
-------------
                                X             Y             Z
Electronic contribution:     -1.06082      -2.55061     -17.56121
Nuclear contribution   :      0.50676       3.90127      20.40426
                        -----------------------------------------
Total Dipole Moment    :     -0.55407       1.35066       2.84305
                        -----------------------------------------
Magnitude (a.u.)       :      3.19597
Magnitude (Debye)      :      8.12351



--------------------
Rotational spectrum 
--------------------
 
Rotational constants in cm-1:     0.029548     0.014706     0.011197 
Rotational constants in MHz :   885.834387   440.871746   335.667619 

 Dipole components along the rotational axes: 
x,y,z [a.u.] :     1.515893     2.709381    -0.758652 
x,y,z [Debye]:     3.853094     6.886699    -1.928340 

 

Timings for individual modules:

Sum of individual times         ...       71.760 sec (=   1.196 min)
GTO integral calculation        ...        0.997 sec (=   0.017 min)   1.4 %
SCF iterations                  ...       70.763 sec (=   1.179 min)  98.6 %
                             ****ORCA TERMINATED NORMALLY****
TOTAL RUN TIME: 0 days 0 hours 1 minutes 12 seconds 507 msec
