
                                        *****************
                                        * O   R   C   A *
                                        *****************

                                            #,                                       
                                            ###                                      
                                            ####                                     
                                            #####                                    
                                            ######                                   
                                           ########,                                 
                                     ,,################,,,,,                         
                               ,,#################################,,                 
                          ,,##########################################,,             
                       ,#########################################, ''#####,          
                    ,#############################################,,   '####,        
                  ,##################################################,,,,####,       
                ,###########''''           ''''###############################       
              ,#####''   ,,,,##########,,,,          '''####'''          '####       
            ,##' ,,,,###########################,,,                        '##       
           ' ,,###''''                  '''############,,,                           
         ,,##''                                '''############,,,,        ,,,,,,###''
      ,#''                                            '''#######################'''  
     '                                                          ''''####''''         
             ,#######,   #######,   ,#######,      ##                                
            ,#'     '#,  ##    ##  ,#'     '#,    #''#        ######   ,####,        
            ##       ##  ##   ,#'  ##            #'  '#       #        #'  '#        
            ##       ##  #######   ##           ,######,      #####,   #    #        
            '#,     ,#'  ##    ##  '#,     ,#' ,#      #,         ##   #,  ,#        
             '#######'   ##     ##  '#######'  #'      '#     #####' # '####'        



                  #######################################################
                  #                        -***-                        #
                  #          Department of theory and spectroscopy      #
                  #    Directorship and core code : Frank Neese         #
                  #        Max Planck Institute fuer Kohlenforschung    #
                  #                Kaiser Wilhelm Platz 1               #
                  #                 D-45470 Muelheim/Ruhr               #
                  #                      Germany                        #
                  #                                                     #
                  #                  All rights reserved                #
                  #                        -***-                        #
                  #######################################################


                         Program Version 5.0.0 -  RELEASE  -
                                (SVN: $Rev: 19529$)
                ($Date: 2021-06-28 11:36:33 +0200 (Mo, 28 Jun 2021) $)


 With contributions from (in alphabetic order):
   Daniel Aravena         : Magnetic Suceptibility
   Michael Atanasov       : Ab Initio Ligand Field Theory (pilot matlab implementation)
   Alexander A. Auer      : GIAO ZORA, VPT2 properties, NMR spectrum
   Ute Becker             : Parallelization
   Giovanni Bistoni       : ED, misc. LED, open-shell LED, HFLD
   Martin Brehm           : Molecular dynamics
   Dmytro Bykov           : SCF Hessian
   Vijay G. Chilkuri      : MRCI spin determinant printing, contributions to CSF-ICE
   Dipayan Datta          : RHF DLPNO-CCSD density
   Achintya Kumar Dutta   : EOM-CC, STEOM-CC
   Dmitry Ganyushin       : Spin-Orbit,Spin-Spin,Magnetic field MRCI
   Miquel Garcia          : C-PCM Hessian, Gaussian charge scheme
   Yang Guo               : DLPNO-NEVPT2, F12-NEVPT2, CIM, IAO-localization
   Andreas Hansen         : Spin unrestricted coupled pair/coupled cluster methods
   Benjamin Helmich-Paris : MC-RPA, TRAH-SCF, COSX integrals
   Lee Huntington         : MR-EOM, pCC
   Robert Izsak           : Overlap fitted RIJCOSX, COSX-SCS-MP3, EOM
   Marcus Kettner         : VPT2
   Christian Kollmar      : KDIIS, OOCD, Brueckner-CCSD(T), CCSD density, CASPT2, CASPT2-K
   Simone Kossmann        : Meta GGA functionals, TD-DFT gradient, OOMP2, MP2 Hessian
   Martin Krupicka        : Initial AUTO-CI
   Lucas Lang             : DCDCAS
   Marvin Lechner         : AUTO-CI (C++ implementation), FIC-MRCC
   Dagmar Lenk            : GEPOL surface, SMD
   Dimitrios Liakos       : Extrapolation schemes; Compound Job, initial MDCI parallelization
   Dimitrios Manganas     : Further ROCIS development; embedding schemes
   Dimitrios Pantazis     : SARC Basis sets
   Anastasios Papadopoulos: AUTO-CI, single reference methods and gradients
   Taras Petrenko         : DFT Hessian,TD-DFT gradient, ASA, ECA, R-Raman, ABS, FL, XAS/XES, NRVS
   Peter Pinski           : DLPNO-MP2, DLPNO-MP2 Gradient
   Christoph Reimann      : Effective Core Potentials
   Marius Retegan         : Local ZFS, SOC
   Christoph Riplinger    : Optimizer, TS searches, QM/MM, DLPNO-CCSD(T), (RO)-DLPNO pert. Triples
   Tobias Risthaus        : Range-separated hybrids, TD-DFT gradient, RPA, STAB
   Michael Roemelt        : Original ROCIS implementation
   Masaaki Saitow         : Open-shell DLPNO-CCSD energy and density
   Barbara Sandhoefer     : DKH picture change effects
   Avijit Sen             : IP-ROCIS
   Kantharuban Sivalingam : CASSCF convergence, NEVPT2, FIC-MRCI
   Bernardo de Souza      : ESD, SOC TD-DFT
   Georgi Stoychev        : AutoAux, RI-MP2 NMR
   Willem Van den Heuvel  : Paramagnetic NMR
   Boris Wezisla          : Elementary symmetry handling
   Frank Wennmohs         : Technical directorship


 We gratefully acknowledge several colleagues who have allowed us to
 interface, adapt or use parts of their codes:
   Stefan Grimme, W. Hujo, H. Kruse, P. Pracht,  : VdW corrections, initial TS optimization,
                  C. Bannwarth, S. Ehlert          DFT functionals, gCP, sTDA/sTD-DF
   Ed Valeev, F. Pavosevic, A. Kumar             : LibInt (2-el integral package), F12 methods
   Garnet Chan, S. Sharma, J. Yang, R. Olivares  : DMRG
   Ulf Ekstrom                                   : XCFun DFT Library
   Mihaly Kallay                                 : mrcc  (arbitrary order and MRCC methods)
   Jiri Pittner, Ondrej Demel                    : Mk-CCSD
   Frank Weinhold                                : gennbo (NPA and NBO analysis)
   Christopher J. Cramer and Donald G. Truhlar   : smd solvation model
   Lars Goerigk                                  : TD-DFT with DH, B97 family of functionals
   V. Asgeirsson, H. Jonsson                     : NEB implementation
   FAccTs GmbH                                   : IRC, NEB, NEB-TS, DLPNO-Multilevel, CI-OPT
                                                   MM, QMMM, 2- and 3-layer-ONIOM, Crystal-QMMM,
                                                   LR-CPCM, SF, NACMEs, symmetry and pop. for TD-DFT,
                                                   nearIR, NL-DFT gradient (VV10), updates on ESD,
                                                   ML-optimized integration grids
   S Lehtola, MJT Oliveira, MAL Marques          : LibXC Library
   Liviu Ungur et al                             : ANISO software


 Your calculation uses the libint2 library for the computation of 2-el integrals
 For citations please refer to: http://libint.valeyev.net

 Your ORCA version has been built with support for libXC version: 5.1.0
 For citations please refer to: https://tddft.org/programs/libxc/

 This ORCA versions uses:
   CBLAS   interface :  Fast vector & matrix operations
   LAPACKE interface :  Fast linear algebra routines
   SCALAPACK package :  Parallel linear algebra routines
   Shared memory     :  Shared parallel matrices
   BLAS/LAPACK       :  OpenBLAS 0.3.15  USE64BITINT DYNAMIC_ARCH NO_AFFINITY Haswell SINGLE_THREADED
        Core in use  :  Haswell
   Copyright (c) 2011-2014, The OpenBLAS Project


================================================================================

----- Orbital basis set information -----
Your calculation utilizes the basis: def2-TZVP
   F. Weigend and R. Ahlrichs, Phys. Chem. Chem. Phys. 7, 3297 (2005).

----- AuxJ basis set information -----
Your calculation utilizes the auxiliary basis: def2/J
   F. Weigend, Phys. Chem. Chem. Phys. 8, 1057 (2006).

================================================================================
                                        WARNINGS
                       Please study these warnings very carefully!
================================================================================


INFO   : the flag for use of the SHARK integral package has been found!

================================================================================
                                       INPUT FILE
================================================================================
NAME = TZVP_LC_PBE_A_wt_dlpno_neg.com
|  1> !LC-PBE RIJCOSX def2-TZVP def2/J TightSCF
|  2> *xyz -1 1
|  3> C         -7.33044       -2.67899       -3.20681
|  4> S         -6.01966       -2.92697       -4.41913
|  5> O         -5.64583       -1.58838       -4.91931
|  6> O         -4.88196       -3.50370       -3.66724
|  7> O         -6.54927       -3.80515       -5.42507
|  8> C         -7.46900       -1.24615       -2.71383
|  9> H         -7.11825       -3.37982       -2.39805
| 10> H         -8.24184       -3.00474       -3.70651
| 11> H         -7.67580       -0.60214       -3.54292
| 12> H         -6.55749       -0.94096       -2.24382
| 13> H         -8.27114       -1.18777       -2.00810
| 14> *
| 15> %MaxCore 64000
| 16> 
| 17> %pal nprocs 4
| 18> end  
| 19> 
| 20> %scf
| 21>   MaxIter 150
| 22> end
| 23> 
| 24> 
| 25>                          ****END OF INPUT****
================================================================================

                       ****************************
                       * Single Point Calculation *
                       ****************************

---------------------------------
CARTESIAN COORDINATES (ANGSTROEM)
---------------------------------
  C     -7.330440   -2.678990   -3.206810
  S     -6.019660   -2.926970   -4.419130
  O     -5.645830   -1.588380   -4.919310
  O     -4.881960   -3.503700   -3.667240
  O     -6.549270   -3.805150   -5.425070
  C     -7.469000   -1.246150   -2.713830
  H     -7.118250   -3.379820   -2.398050
  H     -8.241840   -3.004740   -3.706510
  H     -7.675800   -0.602140   -3.542920
  H     -6.557490   -0.940960   -2.243820
  H     -8.271140   -1.187770   -2.008100

----------------------------
CARTESIAN COORDINATES (A.U.)
----------------------------
  NO LB      ZA    FRAG     MASS         X           Y           Z
   0 C     6.0000    0    12.011  -13.852524   -5.062557   -6.059993
   1 S    16.0000    0    32.060  -11.375509   -5.531172   -8.350945
   2 O     8.0000    0    15.999  -10.669072   -3.001603   -9.296149
   3 O     8.0000    0    15.999   -9.225567   -6.621033   -6.930079
   4 O     8.0000    0    15.999  -12.376327   -7.190691  -10.251897
   5 C     6.0000    0    12.011  -14.114364   -2.354882   -5.128395
   6 H     1.0000    0     1.008  -13.451543   -6.386934   -4.531658
   7 H     1.0000    0     1.008  -15.574820   -5.678136   -7.004289
   8 H     1.0000    0     1.008  -14.505160   -1.137880   -6.695149
   9 H     1.0000    0     1.008  -12.391860   -1.778157   -4.240205
  10 H     1.0000    0     1.008  -15.630189   -2.244560   -3.794759

--------------------------------
INTERNAL COORDINATES (ANGSTROEM)
--------------------------------
 C      0   0   0     0.000000000000     0.00000000     0.00000000
 S      1   0   0     1.802597589924     0.00000000     0.00000000
 O      2   1   0     1.477075519193   106.68484156     0.00000000
 O      2   1   3     1.480647613377   105.71170368   116.27732212
 O      2   1   3     1.436524329101   106.67637160   237.53370600
 C      1   2   3     1.521597390771   114.43469957   344.25628115
 H      1   2   3     1.090999552062   105.59041318   220.00070323
 H      1   2   3     1.089248875372   104.99648834   105.87797466
 H      6   1   2     1.070002499156   109.47078658    59.49944213
 H      6   1   2     1.070000381449   109.47091758   299.49982289
 H      6   1   2     1.069996092002   109.47134776   179.49931912

---------------------------
INTERNAL COORDINATES (A.U.)
---------------------------
 C      0   0   0     0.000000000000     0.00000000     0.00000000
 S      1   0   0     3.406415774623     0.00000000     0.00000000
 O      2   1   0     2.791268210395   106.68484156     0.00000000
 O      2   1   3     2.798018490127   105.71170368   116.27732212
 O      2   1   3     2.714637566716   106.67637160   237.53370600
 C      1   2   3     2.875402354646   114.43469957   344.25628115
 H      1   2   3     2.061690365628   105.59041318   220.00070323
 H      1   2   3     2.058382066136   104.99648834   105.87797466
 H      6   1   2     2.022011686016   109.47078658    59.49944213
 H      6   1   2     2.022007684129   109.47091758   299.49982289
 H      6   1   2     2.021999578250   109.47134776   179.49931912

---------------------
BASIS SET INFORMATION
---------------------
There are 4 groups of distinct atoms

 Group   1 Type C   : 11s6p2d1f contracted to 5s3p2d1f pattern {62111/411/11/1}
 Group   2 Type S   : 14s9p3d1f contracted to 5s5p2d1f pattern {73211/51111/21/1}
 Group   3 Type O   : 11s6p2d1f contracted to 5s3p2d1f pattern {62111/411/11/1}
 Group   4 Type H   : 5s1p contracted to 3s1p pattern {311/1}

Atom   0C    basis set group =>   1
Atom   1S    basis set group =>   2
Atom   2O    basis set group =>   3
Atom   3O    basis set group =>   3
Atom   4O    basis set group =>   3
Atom   5C    basis set group =>   1
Atom   6H    basis set group =>   4
Atom   7H    basis set group =>   4
Atom   8H    basis set group =>   4
Atom   9H    basis set group =>   4
Atom  10H    basis set group =>   4
---------------------------------
AUXILIARY/J BASIS SET INFORMATION
---------------------------------
There are 4 groups of distinct atoms

 Group   1 Type C   : 12s5p4d2f1g contracted to 6s4p3d1f1g pattern {711111/2111/211/2/1}
 Group   2 Type S   : 14s5p5d2f1g contracted to 8s4p3d1f1g pattern {71111111/2111/311/2/1}
 Group   3 Type O   : 12s5p4d2f1g contracted to 6s4p3d1f1g pattern {711111/2111/211/2/1}
 Group   4 Type H   : 5s2p1d contracted to 3s1p1d pattern {311/2/1}

Atom   0C    basis set group =>   1
Atom   1S    basis set group =>   2
Atom   2O    basis set group =>   3
Atom   3O    basis set group =>   3
Atom   4O    basis set group =>   3
Atom   5C    basis set group =>   1
Atom   6H    basis set group =>   4
Atom   7H    basis set group =>   4
Atom   8H    basis set group =>   4
Atom   9H    basis set group =>   4
Atom  10H    basis set group =>   4


           ************************************************************
           *        Program running with 4 parallel MPI-processes     *
           *              working on a common directory               *
           ************************************************************
------------------------------------------------------------------------------
                           ORCA GTO INTEGRAL CALCULATION
                           -- RI-GTO INTEGRALS CHOSEN --
------------------------------------------------------------------------------
------------------------------------------------------------------------------
                   ___                                                        
                  /   \      - P O W E R E D   B Y -                         
                 /     \                                                     
                 |  |  |   _    _      __       _____    __    __             
                 |  |  |  | |  | |    /  \     |  _  \  |  |  /  |          
                  \  \/   | |  | |   /    \    | | | |  |  | /  /          
                 / \  \   | |__| |  /  /\  \   | |_| |  |  |/  /          
                |  |  |   |  __  | /  /__\  \  |    /   |      \           
                |  |  |   | |  | | |   __   |  |    \   |  |\   \          
                \     /   | |  | | |  |  |  |  | |\  \  |  | \   \       
                 \___/    |_|  |_| |__|  |__|  |_| \__\ |__|  \__/        
                                                                              
                      - O R C A' S   B I G   F R I E N D -                    
                                      &                                       
                       - I N T E G R A L  F E E D E R -                       
                                                                              
 v1 FN, 2020, v2 2021                                                         
------------------------------------------------------------------------------


Reading SHARK input file TZVP_LC_PBE_A_wt_dlpno_neg.SHARKINP.tmp ... ok
----------------------
SHARK INTEGRAL PACKAGE
----------------------

Number of atoms                             ...     11
Number of basis functions                   ...    222
Number of shells                            ...     88
Maximum angular momentum                    ...      3
Integral batch strategy                     ... SHARK/LIBINT Hybrid
RI-J (if used) integral strategy            ... SPLIT-RIJ (Revised 2003 algorithm where possible)
Printlevel                                  ...      1
Contraction scheme used                     ... SEGMENTED contraction
Coulomb Range Separation                    ... NOT USED
Exchange Range Separation                   ... Long Range
   Mu parameter                             ...  0.470000
   Scaling (regular/separated)              ...  0.000000  1.000000
Finite Nucleus Model                        ... NOT USED
Auxiliary Coulomb fitting basis             ... AVAILABLE
   # of basis functions in Aux-J            ...    351
   # of shells in Aux-J                     ...    117
   Maximum angular momentum in Aux-J        ...      4
Auxiliary J/K fitting basis                 ... NOT available
Auxiliary Correlation fitting basis         ... NOT available
Auxiliary 'external' fitting basis          ... NOT available
Integral threshold                          ...     2.500000e-11
Primitive cut-off                           ...     2.500000e-12
Primitive pair pre-selection threshold      ...     2.500000e-12

Calculating pre-screening integrals         ... done (  0.1 sec) Dimension = 88
Organizing shell pair data                  ... done (  0.0 sec)
Shell pair information
Total number of shell pairs                 ...      3916
Shell pairs after pre-screening             ...      3672
Total number of primitive shell pairs       ...     12564
Primitive shell pairs kept                  ...      8936
          la=0 lb=0:    929 shell pairs
          la=1 lb=0:   1064 shell pairs
          la=1 lb=1:    319 shell pairs
          la=2 lb=0:    499 shell pairs
          la=2 lb=1:    292 shell pairs
          la=2 lb=2:     76 shell pairs
          la=3 lb=0:    253 shell pairs
          la=3 lb=1:    147 shell pairs
          la=3 lb=2:     72 shell pairs
          la=3 lb=3:     21 shell pairs

Calculating one electron integrals          ... done (  0.0 sec)
Calculating RI/J V-Matrix + Cholesky decomp.... done (  0.0 sec)
Calculating Nuclear repulsion               ... done (  0.0 sec) ENN=    349.525124746040 Eh

SHARK setup successfully completed in   0.3 seconds

Maximum memory used throughout the entire GTOINT-calculation: 15.3 MB


           ************************************************************
           *        Program running with 4 parallel MPI-processes     *
           *              working on a common directory               *
           ************************************************************
-------------------------------------------------------------------------------
                                 ORCA SCF
-------------------------------------------------------------------------------

------------
SCF SETTINGS
------------
Hamiltonian:
 Density Functional     Method          .... DFT(GTOs)
 Exchange Functional    Exchange        .... LC-PBE
 Correlation Functional Correlation     .... PBE
   PBE beta parameter  CBetaPBE         ....  0.066725
 LDA part of GGA corr.  LDAOpt          .... PW91-LDA
 Gradients option       PostSCFGGA      .... off
   Density functional embedding theory  .... OFF
 Long-range corrected/Screened/Range-Separated Hybrid DFT is turned on
   Amount of maximum screened exact exchange              ....  1.000000
   Range separation parameter mu (erf(mu*r12)/r12)        ....  0.470000
   NL short-range parameter             ....  6.400000
 RI-approximation to the Coulomb term is turned on
   Number of AuxJ basis functions       .... 351
   RIJ-COSX (HFX calculated with COS-X)).... on


General Settings:
 Integral files         IntName         .... TZVP_LC_PBE_A_wt_dlpno_neg
 Hartree-Fock type      HFTyp           .... RHF
 Total Charge           Charge          ....   -1
 Multiplicity           Mult            ....    1
 Number of Electrons    NEL             ....   58
 Basis Dimension        Dim             ....  222
 Nuclear Repulsion      ENuc            ....    349.5251247460 Eh

Convergence Acceleration:
 DIIS                   CNVDIIS         .... on
   Start iteration      DIISMaxIt       ....    12
   Startup error        DIISStart       ....  0.200000
   # of expansion vecs  DIISMaxEq       ....     5
   Bias factor          DIISBfac        ....   1.050
   Max. coefficient     DIISMaxC        ....  10.000
 Trust-Rad. Augm. Hess. CNVTRAH         .... auto
   Auto Start mean grad. ratio tolernc. ....  1.125000
   Auto Start start iteration           ....    20
   Auto Start num. interpolation iter.  ....    10
   Max. Number of Micro iterations      ....    16
   Max. Number of Macro iterations      .... Maxiter - #DIIS iter
   Number of Davidson start vectors     ....     2
   Converg. threshold I  (grad. norm)   ....   1.000e-05
   Converg. threshold II (energy diff.) ....   1.000e-08
   Grad. Scal. Fac. for Micro threshold ....   0.100
   Minimum threshold for Micro iter.    ....   0.010
   NR start threshold (gradient norm)   ....   0.001
   Initial trust radius                 ....   0.400
   Minimum AH scaling param. (alpha)    ....   1.000
   Maximum AH scaling param. (alpha)    .... 1000.000
   Orbital update algorithm             .... Taylor
   White noise on init. David. guess    .... on
   Maximum white noise                  ....   0.010
   Quad. conv. algorithm                .... NR
 SOSCF                  CNVSOSCF        .... on
   Start iteration      SOSCFMaxIt      ....   150
   Startup grad/error   SOSCFStart      ....  0.003300
 Level Shifting         CNVShift        .... on
   Level shift para.    LevelShift      ....    0.2500
   Turn off err/grad.   ShiftErr        ....    0.0010
 Zerner damping         CNVZerner       .... off
 Static damping         CNVDamp         .... on
   Fraction old density DampFac         ....    0.7000
   Max. Damping (<1)    DampMax         ....    0.9800
   Min. Damping (>=0)   DampMin         ....    0.0000
   Turn off err/grad.   DampErr         ....    0.1000
 Fernandez-Rico         CNVRico         .... off

SCF Procedure:
 Maximum # iterations   MaxIter         ....   150
 SCF integral mode      SCFMode         .... Direct
   Integral package                     .... SHARK and LIBINT hybrid scheme
 Reset frequency        DirectResetFreq ....    20
 Integral Threshold     Thresh          ....  2.500e-11 Eh
 Primitive CutOff       TCut            ....  2.500e-12 Eh

Convergence Tolerance:
 Convergence Check Mode ConvCheckMode   .... Total+1el-Energy
 Convergence forced     ConvForced      .... 0
 Energy Change          TolE            ....  1.000e-08 Eh
 1-El. energy change                    ....  1.000e-05 Eh
 Orbital Gradient       TolG            ....  1.000e-05
 Orbital Rotation angle TolX            ....  1.000e-05
 DIIS Error             TolErr          ....  5.000e-07


Diagonalization of the overlap matrix:
Smallest eigenvalue                        ... 4.351e-04
Time for diagonalization                   ...    0.011 sec
Threshold for overlap eigenvalues          ... 1.000e-08
Number of eigenvalues below threshold      ... 0
Time for construction of square roots      ...    0.009 sec
Total time needed                          ...    0.021 sec

Time for model grid setup =    0.121 sec

------------------------------
INITIAL GUESS: MODEL POTENTIAL
------------------------------
Loading Hartree-Fock densities                     ... done
Calculating cut-offs                               ... done
Initializing the effective Hamiltonian             ... done
Setting up the integral package (SHARK)            ... done
Starting the Coulomb interaction                   ... done (   0.1 sec)
Reading the grid                                   ... done
Mapping shells                                     ... done
Starting the XC term evaluation                    ... done (   0.1 sec)
  promolecular density results
     # of electrons  =     56.996883450
     EX              =    -47.268098523
     EC              =     -2.016113545
     EX+EC           =    -49.284212068
Transforming the Hamiltonian                       ... done (   0.0 sec)
Diagonalizing the Hamiltonian                      ... done (   0.0 sec)
Back transforming the eigenvectors                 ... done (   0.0 sec)
Now organizing SCF variables                       ... done
                      ------------------
                      INITIAL GUESS DONE (   0.4 sec)
                      ------------------
-------------------
DFT GRID GENERATION
-------------------

General Integration Accuracy     IntAcc      ... 4.388
Radial Grid Type                 RadialGrid  ... OptM3 with GC (2021)
Angular Grid (max. ang.)         AngularGrid ... 4 (Lebedev-302)
Angular grid pruning method      GridPruning ... 4 (adaptive)
Weight generation scheme         WeightScheme... Becke
Basis function cutoff            BFCut       ... 1.0000e-11
Integration weight cutoff        WCut        ... 1.0000e-14
Angular grids for H and He will be reduced by one unit
Partially contracted basis set               ... off
Rotationally invariant grid construction     ... off

Total number of grid points                  ...    53881
Total number of batches                      ...      848
Average number of points per batch           ...       63
Average number of grid points per atom       ...     4898
Time for grid setup =    0.475 sec

--------------------
COSX GRID GENERATION
--------------------

GRIDX 1
-------
General Integration Accuracy     IntAcc      ... 3.816
Radial Grid Type                 RadialGrid  ... OptM3 with GC (2021)
Angular Grid (max. ang.)         AngularGrid ... 1 (Lebedev-50)
Angular grid pruning method      GridPruning ... 4 (adaptive)
Weight generation scheme         WeightScheme... Becke
Basis function cutoff            BFCut       ... 1.0000e-11
Integration weight cutoff        WCut        ... 1.0000e-14
Angular grids for H and He will be reduced by one unit
Partially contracted basis set               ... on
Rotationally invariant grid construction     ... off

Total number of grid points                  ...     6788
Total number of batches                      ...      112
Average number of points per batch           ...       60
Average number of grid points per atom       ...      617
UseSFitting                                  ... on

GRIDX 2
-------
General Integration Accuracy     IntAcc      ... 4.020
Radial Grid Type                 RadialGrid  ... OptM3 with GC (2021)
Angular Grid (max. ang.)         AngularGrid ... 2 (Lebedev-110)
Angular grid pruning method      GridPruning ... 4 (adaptive)
Weight generation scheme         WeightScheme... Becke
Basis function cutoff            BFCut       ... 1.0000e-11
Integration weight cutoff        WCut        ... 1.0000e-14
Angular grids for H and He will be reduced by one unit
Partially contracted basis set               ... on
Rotationally invariant grid construction     ... off

Total number of grid points                  ...    14983
Total number of batches                      ...      240
Average number of points per batch           ...       62
Average number of grid points per atom       ...     1362
UseSFitting                                  ... on

GRIDX 3
-------
General Integration Accuracy     IntAcc      ... 4.338
Radial Grid Type                 RadialGrid  ... OptM3 with GC (2021)
Angular Grid (max. ang.)         AngularGrid ... 3 (Lebedev-194)
Angular grid pruning method      GridPruning ... 4 (adaptive)
Weight generation scheme         WeightScheme... Becke
Basis function cutoff            BFCut       ... 1.0000e-11
Integration weight cutoff        WCut        ... 1.0000e-14
Angular grids for H and He will be reduced by one unit
Partially contracted basis set               ... on
Rotationally invariant grid construction     ... off

Total number of grid points                  ...    33611
Total number of batches                      ...      531
Average number of points per batch           ...       63
Average number of grid points per atom       ...     3056
UseSFitting                                  ... on

Time for X-Grid setup             =    0.393 sec

--------------
SCF ITERATIONS
--------------
ITER       Energy         Delta-E        Max-DP      RMS-DP      [F,P]     Damp
               ***  Starting incremental Fock matrix formation  ***
  0   -701.9445191917   0.000000000000 0.07963263  0.00087696  0.1633292 0.7000
  1   -702.0103332869  -0.065814095171 0.04269036  0.00057453  0.0741693 0.7000
                               ***Turning on DIIS***
  2   -702.0394079240  -0.029074637048 0.04666840  0.00106091  0.0344007 0.0000
  3   -702.0892083915  -0.049800467573 0.04018867  0.00047459  0.0424539 0.0000
  4   -702.0968436403  -0.007635248804 0.01257012  0.00020592  0.0057558 0.0000
                      *** Initiating the SOSCF procedure ***
                           *** Shutting down DIIS ***
                      *** Re-Reading the Fockian *** 
                      *** Removing any level shift *** 
ITER      Energy       Delta-E        Grad      Rot      Max-DP    RMS-DP
  5   -702.09712584  -0.0002821953  0.001056  0.001056  0.007072  0.000111
               *** Restarting incremental Fock matrix formation ***
  6   -702.09718267  -0.0000568332  0.000315  0.000451  0.004005  0.000060
  7   -702.09719029  -0.0000076246  0.000117  0.000282  0.002253  0.000034
  8   -702.09719107  -0.0000007745  0.000076  0.000059  0.000246  0.000005
  9   -702.09719129  -0.0000002265  0.000026  0.000027  0.000268  0.000004
 10   -702.09719132  -0.0000000279  0.000009  0.000009  0.000071  0.000001
 11   -702.09719133  -0.0000000029  0.000004  0.000002  0.000008  0.000000
                 **** Energy Check signals convergence ****
              ***Rediagonalizing the Fockian in SOSCF/NRSCF***

               *****************************************************
               *                     SUCCESS                       *
               *           SCF CONVERGED AFTER  12 CYCLES          *
               *****************************************************


----------------
TOTAL SCF ENERGY
----------------

Total Energy       :         -702.09719133 Eh          -19105.03586 eV

Components:
Nuclear Repulsion  :          349.52512475 Eh            9511.06218 eV
Electronic Energy  :        -1051.62231607 Eh          -28616.09803 eV
One Electron Energy:        -1673.16536507 Eh          -45529.14424 eV
Two Electron Energy:          621.54304900 Eh           16913.04621 eV
Max COSX asymmetry :            0.00000603 Eh               0.00016 eV

Virial components:
Potential Energy   :        -1402.26233353 Eh          -38157.49799 eV
Kinetic Energy     :          700.16514220 Eh           19052.46213 eV
Virial Ratio       :            2.00275942


DFT components:
N(Alpha)           :       28.999984944328 electrons
N(Beta)            :       28.999984944328 electrons
N(Total)           :       57.999969888657 electrons
E(X)               :      -47.836346517401 Eh       
E(C)               :       -2.055230983183 Eh       
E(XC)              :      -49.891577500584 Eh       
DFET-embed. en.    :        0.000000000000 Eh       

---------------
SCF CONVERGENCE
---------------

  Last Energy change         ...   -2.5249e-09  Tolerance :   1.0000e-08
  Last MAX-Density change    ...    6.4623e-06  Tolerance :   1.0000e-07
  Last RMS-Density change    ...    8.4757e-08  Tolerance :   5.0000e-09
  Last Orbital Gradient      ...    1.1662e-06  Tolerance :   1.0000e-05
  Last Orbital Rotation      ...    8.4908e-07  Tolerance :   1.0000e-05

             **** THE GBW FILE WAS UPDATED (TZVP_LC_PBE_A_wt_dlpno_neg.gbw) ****
             **** DENSITY TZVP_LC_PBE_A_wt_dlpno_neg.scfp WAS UPDATED ****
             **** ENERGY FILE WAS UPDATED (TZVP_LC_PBE_A_wt_dlpno_neg.en.tmp) ****
             **** THE GBW FILE WAS UPDATED (TZVP_LC_PBE_A_wt_dlpno_neg.gbw) ****
             **** DENSITY TZVP_LC_PBE_A_wt_dlpno_neg.scfp WAS UPDATED ****
----------------
ORBITAL ENERGIES
----------------

  NO   OCC          E(Eh)            E(eV) 
   0   2.0000     -88.266858     -2401.8633 
   1   2.0000     -18.754244      -510.3289 
   2   2.0000     -18.742604      -510.0122 
   3   2.0000     -18.738556      -509.9020 
   4   2.0000      -9.979353      -271.5520 
   5   2.0000      -9.969349      -271.2798 
   6   2.0000      -7.877292      -214.3520 
   7   2.0000      -5.894158      -160.3882 
   8   2.0000      -5.892730      -160.3493 
   9   2.0000      -5.892420      -160.3409 
  10   2.0000      -1.091091       -29.6901 
  11   2.0000      -0.946205       -25.7475 
  12   2.0000      -0.923406       -25.1272 
  13   2.0000      -0.812858       -22.1190 
  14   2.0000      -0.673034       -18.3142 
  15   2.0000      -0.531949       -14.4751 
  16   2.0000      -0.466944       -12.7062 
  17   2.0000      -0.461032       -12.5453 
  18   2.0000      -0.417713       -11.3665 
  19   2.0000      -0.398789       -10.8516 
  20   2.0000      -0.394442       -10.7333 
  21   2.0000      -0.362287        -9.8583 
  22   2.0000      -0.351395        -9.5620 
  23   2.0000      -0.285091        -7.7577 
  24   2.0000      -0.284335        -7.7372 
  25   2.0000      -0.243982        -6.6391 
  26   2.0000      -0.234869        -6.3911 
  27   2.0000      -0.228801        -6.2260 
  28   2.0000      -0.189921        -5.1680 
  29   0.0000       0.253712         6.9038 
  30   0.0000       0.301169         8.1952 
  31   0.0000       0.312317         8.4986 
  32   0.0000       0.319008         8.6806 
  33   0.0000       0.344739         9.3808 
  34   0.0000       0.374720        10.1966 
  35   0.0000       0.385766        10.4972 
  36   0.0000       0.414575        11.2812 
  37   0.0000       0.429938        11.6992 
  38   0.0000       0.439318        11.9545 
  39   0.0000       0.448827        12.2132 
  40   0.0000       0.462841        12.5946 
  41   0.0000       0.519932        14.1481 
  42   0.0000       0.552112        15.0237 
  43   0.0000       0.568277        15.4636 
  44   0.0000       0.577620        15.7178 
  45   0.0000       0.588101        16.0030 
  46   0.0000       0.589965        16.0538 
  47   0.0000       0.621161        16.9026 
  48   0.0000       0.650511        17.7013 
  49   0.0000       0.664431        18.0801 
  50   0.0000       0.674028        18.3412 
  51   0.0000       0.692360        18.8401 
  52   0.0000       0.711319        19.3560 
  53   0.0000       0.733186        19.9510 
  54   0.0000       0.741517        20.1777 
  55   0.0000       0.748245        20.3608 
  56   0.0000       0.779785        21.2190 
  57   0.0000       0.789721        21.4894 
  58   0.0000       0.801995        21.8234 
  59   0.0000       0.805998        21.9323 
  60   0.0000       0.844225        22.9725 
  61   0.0000       0.849868        23.1261 
  62   0.0000       0.882318        24.0091 
  63   0.0000       0.903133        24.5755 
  64   0.0000       0.910680        24.7809 
  65   0.0000       0.932935        25.3865 
  66   0.0000       0.967983        26.3401 
  67   0.0000       1.026694        27.9378 
  68   0.0000       1.044412        28.4199 
  69   0.0000       1.060785        28.8654 
  70   0.0000       1.125054        30.6143 
  71   0.0000       1.139840        31.0166 
  72   0.0000       1.151760        31.3410 
  73   0.0000       1.187234        32.3063 
  74   0.0000       1.208690        32.8901 
  75   0.0000       1.242029        33.7973 
  76   0.0000       1.249191        33.9922 
  77   0.0000       1.263643        34.3855 
  78   0.0000       1.326787        36.1037 
  79   0.0000       1.349757        36.7287 
  80   0.0000       1.374382        37.3988 
  81   0.0000       1.409283        38.3485 
  82   0.0000       1.451391        39.4944 
  83   0.0000       1.640902        44.6512 
  84   0.0000       1.650835        44.9215 
  85   0.0000       1.657570        45.1048 
  86   0.0000       1.725486        46.9529 
  87   0.0000       1.740589        47.3638 
  88   0.0000       1.753048        47.7029 
  89   0.0000       1.760779        47.9132 
  90   0.0000       1.790485        48.7216 
  91   0.0000       1.803294        49.0701 
  92   0.0000       1.823662        49.6244 
  93   0.0000       1.839536        50.0563 
  94   0.0000       1.853220        50.4287 
  95   0.0000       1.860081        50.6154 
  96   0.0000       1.900317        51.7103 
  97   0.0000       1.935798        52.6757 
  98   0.0000       1.945328        52.9351 
  99   0.0000       1.953668        53.1620 
 100   0.0000       1.980127        53.8820 
 101   0.0000       1.992624        54.2221 
 102   0.0000       2.020141        54.9708 
 103   0.0000       2.065081        56.1937 
 104   0.0000       2.115335        57.5612 
 105   0.0000       2.121209        57.7210 
 106   0.0000       2.151828        58.5542 
 107   0.0000       2.182902        59.3998 
 108   0.0000       2.213139        60.2226 
 109   0.0000       2.236580        60.8604 
 110   0.0000       2.245893        61.1139 
 111   0.0000       2.318461        63.0885 
 112   0.0000       2.347403        63.8761 
 113   0.0000       2.398894        65.2772 
 114   0.0000       2.427750        66.0624 
 115   0.0000       2.462513        67.0084 
 116   0.0000       2.540341        69.1262 
 117   0.0000       2.556715        69.5717 
 118   0.0000       2.574882        70.0661 
 119   0.0000       2.590294        70.4855 
 120   0.0000       2.614469        71.1433 
 121   0.0000       2.628878        71.5354 
 122   0.0000       2.633309        71.6560 
 123   0.0000       2.647727        72.0483 
 124   0.0000       2.666222        72.5516 
 125   0.0000       2.734520        74.4101 
 126   0.0000       2.745697        74.7142 
 127   0.0000       2.766592        75.2828 
 128   0.0000       2.773141        75.4610 
 129   0.0000       2.793016        76.0018 
 130   0.0000       2.795825        76.0783 
 131   0.0000       2.810105        76.4668 
 132   0.0000       2.867785        78.0364 
 133   0.0000       2.885554        78.5199 
 134   0.0000       2.915844        79.3442 
 135   0.0000       2.929215        79.7080 
 136   0.0000       2.963420        80.6387 
 137   0.0000       3.040050        82.7240 
 138   0.0000       3.063831        83.3711 
 139   0.0000       3.117814        84.8400 
 140   0.0000       3.179768        86.5259 
 141   0.0000       3.216583        87.5277 
 142   0.0000       3.222272        87.6825 
 143   0.0000       3.241591        88.2082 
 144   0.0000       3.272916        89.0606 
 145   0.0000       3.299062        89.7720 
 146   0.0000       3.319766        90.3354 
 147   0.0000       3.378926        91.9452 
 148   0.0000       3.403530        92.6148 
 149   0.0000       3.422129        93.1209 
 150   0.0000       3.426789        93.2477 
 151   0.0000       3.442229        93.6678 
 152   0.0000       3.464176        94.2650 
 153   0.0000       3.519784        95.7782 
 154   0.0000       3.534197        96.1704 
 155   0.0000       3.625124        98.6446 
 156   0.0000       3.663161        99.6797 
 157   0.0000       3.688507       100.3694 
 158   0.0000       3.696039       100.5743 
 159   0.0000       3.722108       101.2837 
 160   0.0000       3.786941       103.0479 
 161   0.0000       3.813656       103.7749 
 162   0.0000       3.889062       105.8268 
 163   0.0000       4.046305       110.1056 
 164   0.0000       4.054081       110.3171 
 165   0.0000       4.129578       112.3715 
 166   0.0000       4.173546       113.5680 
 167   0.0000       4.233405       115.1968 
 168   0.0000       4.286212       116.6337 
 169   0.0000       4.403245       119.8184 
 170   0.0000       4.460828       121.3853 
 171   0.0000       4.569675       124.3472 
 172   0.0000       4.623231       125.8045 
 173   0.0000       4.730561       128.7251 
 174   0.0000       4.755518       129.4042 
 175   0.0000       4.866569       132.4261 
 176   0.0000       5.033341       136.9642 
 177   0.0000       5.428933       147.7288 
 178   0.0000       5.475517       148.9964 
 179   0.0000       5.488611       149.3527 
 180   0.0000       5.491498       149.4312 
 181   0.0000       5.492829       149.4675 
 182   0.0000       5.493854       149.4954 
 183   0.0000       5.497072       149.5829 
 184   0.0000       5.505816       149.8209 
 185   0.0000       5.513890       150.0406 
 186   0.0000       5.580514       151.8535 
 187   0.0000       5.612044       152.7115 
 188   0.0000       5.619509       152.9146 
 189   0.0000       5.670498       154.3021 
 190   0.0000       5.696489       155.0093 
 191   0.0000       5.780313       157.2903 
 192   0.0000       5.850158       159.1909 
 193   0.0000       5.893060       160.3583 
 194   0.0000       5.980711       162.7434 
 195   0.0000       6.010877       163.5643 
 196   0.0000       6.047368       164.5573 
 197   0.0000       6.152123       167.4078 
 198   0.0000       6.621452       180.1789 
 199   0.0000       6.628743       180.3773 
 200   0.0000       6.637082       180.6042 
 201   0.0000       6.723250       182.9489 
 202   0.0000       6.741314       183.4405 
 203   0.0000       6.793673       184.8652 
 204   0.0000       6.985727       190.0913 
 205   0.0000       7.029975       191.2954 
 206   0.0000       7.044804       191.6989 
 207   0.0000       7.054322       191.9579 
 208   0.0000       7.172282       195.1677 
 209   0.0000       7.192973       195.7308 
 210   0.0000       7.218496       196.4253 
 211   0.0000       7.263971       197.6627 
 212   0.0000       7.288956       198.3426 
 213   0.0000       9.655127       262.7294 
 214   0.0000       9.807578       266.8778 
 215   0.0000       9.909341       269.6469 
 216   0.0000      22.427291       610.2776 
 217   0.0000      22.573239       614.2491 
 218   0.0000      22.902150       623.1992 
 219   0.0000      43.512932      1184.0471 
 220   0.0000      43.755974      1190.6606 
 221   0.0000      43.780978      1191.3410 

                    ********************************
                    * MULLIKEN POPULATION ANALYSIS *
                    ********************************

-----------------------
MULLIKEN ATOMIC CHARGES
-----------------------
   0 C :   -0.309702
   1 S :    0.737800
   2 O :   -0.565582
   3 O :   -0.573498
   4 O :   -0.523843
   5 C :   -0.427514
   6 H :    0.134517
   7 H :    0.129370
   8 H :    0.152315
   9 H :    0.146472
  10 H :    0.099664
Sum of atomic charges:   -1.0000000

--------------------------------
MULLIKEN REDUCED ORBITAL CHARGES
--------------------------------
  0 C s       :     3.214164  s :     3.214164
      pz      :     1.015430  p :     3.007271
      px      :     1.023089
      py      :     0.968753
      dz2     :     0.007485  d :     0.084100
      dxz     :     0.017938
      dyz     :     0.024943
      dx2y2   :     0.013740
      dxy     :     0.019994
      f0      :     0.000128  f :     0.004166
      f+1     :     0.000346
      f-1     :     0.000804
      f+2     :     0.001182
      f-2     :     0.000544
      f+3     :     0.000760
      f-3     :     0.000402
  1 S s       :     5.349255  s :     5.349255
      pz      :     2.886552  p :     8.609842
      px      :     2.893095
      py      :     2.830195
      dz2     :     0.204830  d :     1.176034
      dxz     :     0.259839
      dyz     :     0.238633
      dx2y2   :     0.244293
      dxy     :     0.228439
      f0      :     0.013361  f :     0.127069
      f+1     :     0.016876
      f-1     :     0.021400
      f+2     :     0.021932
      f-2     :     0.014501
      f+3     :     0.021800
      f-3     :     0.017199
  2 O s       :     3.793910  s :     3.793910
      pz      :     1.672023  p :     4.741099
      px      :     1.686238
      py      :     1.382838
      dz2     :     0.004131  d :     0.028828
      dxz     :     0.001834
      dyz     :     0.007710
      dx2y2   :     0.007825
      dxy     :     0.007329
      f0      :     0.000150  f :     0.001744
      f+1     :     0.000045
      f-1     :     0.000331
      f+2     :     0.000296
      f-2     :     0.000209
      f+3     :     0.000354
      f-3     :     0.000361
  3 O s       :     3.789872  s :     3.789872
      pz      :     1.612740  p :     4.753246
      px      :     1.468444
      py      :     1.672061
      dz2     :     0.004817  d :     0.028642
      dxz     :     0.007523
      dyz     :     0.003202
      dx2y2   :     0.006376
      dxy     :     0.006724
      f0      :     0.000147  f :     0.001738
      f+1     :     0.000333
      f-1     :     0.000093
      f+2     :     0.000295
      f-2     :     0.000328
      f+3     :     0.000277
      f-3     :     0.000264
  4 O s       :     3.770574  s :     3.770574
      pz      :     1.510827  p :     4.720715
      px      :     1.648796
      py      :     1.561091
      dz2     :     0.007964  d :     0.030657
      dxz     :     0.005558
      dyz     :     0.007916
      dx2y2   :     0.004573
      dxy     :     0.004646
      f0      :     0.000277  f :     0.001897
      f+1     :     0.000203
      f-1     :     0.000402
      f+2     :     0.000368
      f-2     :     0.000367
      f+3     :     0.000132
      f-3     :     0.000149
  5 C s       :     3.235833  s :     3.235833
      pz      :     1.080084  p :     3.127656
      px      :     1.077124
      py      :     0.970448
      dz2     :     0.003265  d :     0.061059
      dxz     :     0.014551
      dyz     :     0.018446
      dx2y2   :     0.010161
      dxy     :     0.014636
      f0      :     0.000011  f :     0.002966
      f+1     :     0.000095
      f-1     :     0.000671
      f+2     :     0.001124
      f-2     :     0.000251
      f+3     :     0.000573
      f-3     :     0.000241
  6 H s       :     0.845412  s :     0.845412
      pz      :     0.008052  p :     0.020072
      px      :     0.004545
      py      :     0.007475
  7 H s       :     0.850691  s :     0.850691
      pz      :     0.005896  p :     0.019939
      px      :     0.009202
      py      :     0.004841
  8 H s       :     0.827541  s :     0.827541
      pz      :     0.009182  p :     0.020143
      px      :     0.004216
      py      :     0.006746
  9 H s       :     0.833514  s :     0.833514
      pz      :     0.005300  p :     0.020013
      px      :     0.009874
      py      :     0.004839
 10 H s       :     0.880788  s :     0.880788
      pz      :     0.007206  p :     0.019548
      px      :     0.007916
      py      :     0.004425


                     *******************************
                     * LOEWDIN POPULATION ANALYSIS *
                     *******************************

----------------------
LOEWDIN ATOMIC CHARGES
----------------------
   0 C :   -0.438572
   1 S :    0.405420
   2 O :   -0.412665
   3 O :   -0.429840
   4 O :   -0.370120
   5 C :   -0.365251
   6 H :    0.129118
   7 H :    0.126881
   8 H :    0.123940
   9 H :    0.124340
  10 H :    0.106748

-------------------------------
LOEWDIN REDUCED ORBITAL CHARGES
-------------------------------
  0 C s       :     2.842111  s :     2.842111
      pz      :     1.071672  p :     3.212423
      px      :     1.070627
      py      :     1.070125
      dz2     :     0.037958  d :     0.352726
      dxz     :     0.078040
      dyz     :     0.094397
      dx2y2   :     0.074563
      dxy     :     0.067768
      f0      :     0.003131  f :     0.031312
      f+1     :     0.002961
      f-1     :     0.006152
      f+2     :     0.005148
      f-2     :     0.003612
      f+3     :     0.006040
      f-3     :     0.004268
  1 S s       :     4.731027  s :     4.731027
      pz      :     2.883581  p :     8.640868
      px      :     2.884683
      py      :     2.872604
      dz2     :     0.301124  d :     1.857991
      dxz     :     0.433530
      dyz     :     0.384709
      dx2y2   :     0.386198
      dxy     :     0.352430
      f0      :     0.039575  f :     0.364693
      f+1     :     0.047222
      f-1     :     0.058112
      f+2     :     0.062783
      f-2     :     0.046573
      f+3     :     0.060758
      f-3     :     0.049670
  2 O s       :     3.561063  s :     3.561063
      pz      :     1.634633  p :     4.789210
      px      :     1.635020
      py      :     1.519556
      dz2     :     0.007232  d :     0.058388
      dxz     :     0.003245
      dyz     :     0.016252
      dx2y2   :     0.018290
      dxy     :     0.013370
      f0      :     0.000451  f :     0.004005
      f+1     :     0.000076
      f-1     :     0.000588
      f+2     :     0.000759
      f-2     :     0.000505
      f+3     :     0.000849
      f-3     :     0.000778
  3 O s       :     3.566166  s :     3.566166
      pz      :     1.613272  p :     4.801851
      px      :     1.541912
      py      :     1.646668
      dz2     :     0.006445  d :     0.057875
      dxz     :     0.018866
      dyz     :     0.006982
      dx2y2   :     0.011683
      dxy     :     0.013898
      f0      :     0.000448  f :     0.003947
      f+1     :     0.000538
      f-1     :     0.000151
      f+2     :     0.000704
      f-2     :     0.000917
      f+3     :     0.000455
      f-3     :     0.000734
  4 O s       :     3.538508  s :     3.538508
      pz      :     1.562319  p :     4.764243
      px      :     1.613943
      py      :     1.587981
      dz2     :     0.011616  d :     0.062927
      dxz     :     0.012237
      dyz     :     0.022387
      dx2y2   :     0.007345
      dxy     :     0.009342
      f0      :     0.000479  f :     0.004442
      f+1     :     0.000498
      f-1     :     0.001088
      f+2     :     0.000746
      f-2     :     0.001054
      f+3     :     0.000346
      f-3     :     0.000232
  5 C s       :     2.818450  s :     2.818450
      pz      :     1.088734  p :     3.251820
      px      :     1.085370
      py      :     1.077716
      dz2     :     0.019457  d :     0.269680
      dxz     :     0.059433
      dyz     :     0.077673
      dx2y2   :     0.058034
      dxy     :     0.055083
      f0      :     0.002572  f :     0.025302
      f+1     :     0.001245
      f-1     :     0.005811
      f+2     :     0.004364
      f-2     :     0.001996
      f+3     :     0.005811
      f-3     :     0.003503
  6 H s       :     0.808867  s :     0.808867
      pz      :     0.026074  p :     0.062015
      px      :     0.014409
      py      :     0.021532
  7 H s       :     0.810980  s :     0.810980
      pz      :     0.018092  p :     0.062139
      px      :     0.029169
      py      :     0.014878
  8 H s       :     0.811420  s :     0.811420
      pz      :     0.029084  p :     0.064640
      px      :     0.014567
      py      :     0.020990
  9 H s       :     0.811557  s :     0.811557
      pz      :     0.017596  p :     0.064104
      px      :     0.031037
      py      :     0.015471
 10 H s       :     0.829889  s :     0.829889
      pz      :     0.023136  p :     0.063363
      px      :     0.025520
      py      :     0.014707


                      *****************************
                      * MAYER POPULATION ANALYSIS *
                      *****************************

  NA   - Mulliken gross atomic population
  ZA   - Total nuclear charge
  QA   - Mulliken gross atomic charge
  VA   - Mayer's total valence
  BVA  - Mayer's bonded valence
  FA   - Mayer's free valence

  ATOM       NA         ZA         QA         VA         BVA        FA
  0 C      6.3097     6.0000    -0.3097     3.8177     3.8177     0.0000
  1 S     15.2622    16.0000     0.7378     6.3054     6.3054    -0.0000
  2 O      8.5656     8.0000    -0.5656     1.8344     1.8344    -0.0000
  3 O      8.5735     8.0000    -0.5735     1.8297     1.8297     0.0000
  4 O      8.5238     8.0000    -0.5238     1.9019     1.9019     0.0000
  5 C      6.4275     6.0000    -0.4275     3.8565     3.8565     0.0000
  6 H      0.8655     1.0000     0.1345     0.9781     0.9781     0.0000
  7 H      0.8706     1.0000     0.1294     0.9741     0.9741     0.0000
  8 H      0.8477     1.0000     0.1523     0.9809     0.9809     0.0000
  9 H      0.8535     1.0000     0.1465     0.9747     0.9747     0.0000
 10 H      0.9003     1.0000     0.0997     0.9551     0.9551    -0.0000

  Mayer bond orders larger than 0.100000
B(  0-C ,  1-S ) :   0.8935 B(  0-C ,  5-C ) :   0.9459 B(  0-C ,  6-H ) :   0.9641 
B(  0-C ,  7-H ) :   0.9607 B(  1-S ,  2-O ) :   1.7649 B(  1-S ,  3-O ) :   1.7805 
B(  1-S ,  4-O ) :   1.8441 B(  5-C ,  8-H ) :   0.9708 B(  5-C ,  9-H ) :   0.9739 
B(  5-C , 10-H ) :   0.9676 

-------
TIMINGS
-------

Total SCF time: 0 days 0 hours 0 min 27 sec 

Total time                  ....      27.290 sec
Sum of individual times     ....      25.559 sec  ( 93.7%)

Fock matrix formation       ....      24.102 sec  ( 88.3%)
  Split-RI-J                ....       1.404 sec  (  5.8% of F)
  Chain of spheres X        ....      19.557 sec  ( 81.1% of F)
  XC integration            ....       3.087 sec  ( 12.8% of F)
    Basis function eval.    ....       1.016 sec  ( 32.9% of XC)
    Density eval.           ....       0.745 sec  ( 24.1% of XC)
    XC-Functional eval.     ....       0.275 sec  (  8.9% of XC)
    XC-Potential eval.      ....       0.903 sec  ( 29.2% of XC)
Diagonalization             ....       0.087 sec  (  0.3%)
Density matrix formation    ....       0.007 sec  (  0.0%)
Population analysis         ....       0.011 sec  (  0.0%)
Initial guess               ....       0.261 sec  (  1.0%)
Orbital Transformation      ....       0.000 sec  (  0.0%)
Orbital Orthonormalization  ....       0.000 sec  (  0.0%)
DIIS solution               ....       0.040 sec  (  0.1%)
SOSCF solution              ....       0.060 sec  (  0.2%)
Grid generation             ....       0.990 sec  (  3.6%)

Maximum memory used throughout the entire SCF-calculation: 23.6 MB

-------------------------   --------------------
FINAL SINGLE POINT ENERGY      -702.097191327780
-------------------------   --------------------


                            ***************************************
                            *     ORCA property calculations      *
                            ***************************************

                                    ---------------------
                                    Active property flags
                                    ---------------------
   (+) Dipole Moment


------------------------------------------------------------------------------
                       ORCA ELECTRIC PROPERTIES CALCULATION
------------------------------------------------------------------------------

Dipole Moment Calculation                       ... on
Quadrupole Moment Calculation                   ... off
Polarizability Calculation                      ... off
GBWName                                         ... TZVP_LC_PBE_A_wt_dlpno_neg.gbw
Electron density file                           ... TZVP_LC_PBE_A_wt_dlpno_neg.scfp
The origin for moment calculation is the CENTER OF MASS  = (-11.813143, -5.065847 -7.809957)

-------------
DIPOLE MOMENT
-------------
                                X             Y             Z
Electronic contribution:      4.63174      -3.51508      -5.06254
Nuclear contribution   :     -6.18165       4.01759       6.33106
                        -----------------------------------------
Total Dipole Moment    :     -1.54991       0.50252       1.26852
                        -----------------------------------------
Magnitude (a.u.)       :      2.06492
Magnitude (Debye)      :      5.24862



--------------------
Rotational spectrum 
--------------------
 
Rotational constants in cm-1:     0.161711     0.082788     0.081165 
Rotational constants in MHz :  4847.971521  2481.906910  2433.276832 

 Dipole components along the rotational axes: 
x,y,z [a.u.] :     1.900626     0.806200     0.039671 
x,y,z [Debye]:     4.831008     2.049198     0.100836 

 

Timings for individual modules:

Sum of individual times         ...       31.803 sec (=   0.530 min)
GTO integral calculation        ...        2.465 sec (=   0.041 min)   7.7 %
SCF iterations                  ...       29.339 sec (=   0.489 min)  92.3 %
                             ****ORCA TERMINATED NORMALLY****
TOTAL RUN TIME: 0 days 0 hours 0 minutes 32 seconds 279 msec
