
                                        *****************
                                        * O   R   C   A *
                                        *****************

                                            #,                                       
                                            ###                                      
                                            ####                                     
                                            #####                                    
                                            ######                                   
                                           ########,                                 
                                     ,,################,,,,,                         
                               ,,#################################,,                 
                          ,,##########################################,,             
                       ,#########################################, ''#####,          
                    ,#############################################,,   '####,        
                  ,##################################################,,,,####,       
                ,###########''''           ''''###############################       
              ,#####''   ,,,,##########,,,,          '''####'''          '####       
            ,##' ,,,,###########################,,,                        '##       
           ' ,,###''''                  '''############,,,                           
         ,,##''                                '''############,,,,        ,,,,,,###''
      ,#''                                            '''#######################'''  
     '                                                          ''''####''''         
             ,#######,   #######,   ,#######,      ##                                
            ,#'     '#,  ##    ##  ,#'     '#,    #''#        ######   ,####,        
            ##       ##  ##   ,#'  ##            #'  '#       #        #'  '#        
            ##       ##  #######   ##           ,######,      #####,   #    #        
            '#,     ,#'  ##    ##  '#,     ,#' ,#      #,         ##   #,  ,#        
             '#######'   ##     ##  '#######'  #'      '#     #####' # '####'        



                  #######################################################
                  #                        -***-                        #
                  #          Department of theory and spectroscopy      #
                  #    Directorship and core code : Frank Neese         #
                  #        Max Planck Institute fuer Kohlenforschung    #
                  #                Kaiser Wilhelm Platz 1               #
                  #                 D-45470 Muelheim/Ruhr               #
                  #                      Germany                        #
                  #                                                     #
                  #                  All rights reserved                #
                  #                        -***-                        #
                  #######################################################


                         Program Version 5.0.0 -  RELEASE  -
                                (SVN: $Rev: 19529$)
                ($Date: 2021-06-28 11:36:33 +0200 (Mo, 28 Jun 2021) $)


 With contributions from (in alphabetic order):
   Daniel Aravena         : Magnetic Suceptibility
   Michael Atanasov       : Ab Initio Ligand Field Theory (pilot matlab implementation)
   Alexander A. Auer      : GIAO ZORA, VPT2 properties, NMR spectrum
   Ute Becker             : Parallelization
   Giovanni Bistoni       : ED, misc. LED, open-shell LED, HFLD
   Martin Brehm           : Molecular dynamics
   Dmytro Bykov           : SCF Hessian
   Vijay G. Chilkuri      : MRCI spin determinant printing, contributions to CSF-ICE
   Dipayan Datta          : RHF DLPNO-CCSD density
   Achintya Kumar Dutta   : EOM-CC, STEOM-CC
   Dmitry Ganyushin       : Spin-Orbit,Spin-Spin,Magnetic field MRCI
   Miquel Garcia          : C-PCM Hessian, Gaussian charge scheme
   Yang Guo               : DLPNO-NEVPT2, F12-NEVPT2, CIM, IAO-localization
   Andreas Hansen         : Spin unrestricted coupled pair/coupled cluster methods
   Benjamin Helmich-Paris : MC-RPA, TRAH-SCF, COSX integrals
   Lee Huntington         : MR-EOM, pCC
   Robert Izsak           : Overlap fitted RIJCOSX, COSX-SCS-MP3, EOM
   Marcus Kettner         : VPT2
   Christian Kollmar      : KDIIS, OOCD, Brueckner-CCSD(T), CCSD density, CASPT2, CASPT2-K
   Simone Kossmann        : Meta GGA functionals, TD-DFT gradient, OOMP2, MP2 Hessian
   Martin Krupicka        : Initial AUTO-CI
   Lucas Lang             : DCDCAS
   Marvin Lechner         : AUTO-CI (C++ implementation), FIC-MRCC
   Dagmar Lenk            : GEPOL surface, SMD
   Dimitrios Liakos       : Extrapolation schemes; Compound Job, initial MDCI parallelization
   Dimitrios Manganas     : Further ROCIS development; embedding schemes
   Dimitrios Pantazis     : SARC Basis sets
   Anastasios Papadopoulos: AUTO-CI, single reference methods and gradients
   Taras Petrenko         : DFT Hessian,TD-DFT gradient, ASA, ECA, R-Raman, ABS, FL, XAS/XES, NRVS
   Peter Pinski           : DLPNO-MP2, DLPNO-MP2 Gradient
   Christoph Reimann      : Effective Core Potentials
   Marius Retegan         : Local ZFS, SOC
   Christoph Riplinger    : Optimizer, TS searches, QM/MM, DLPNO-CCSD(T), (RO)-DLPNO pert. Triples
   Tobias Risthaus        : Range-separated hybrids, TD-DFT gradient, RPA, STAB
   Michael Roemelt        : Original ROCIS implementation
   Masaaki Saitow         : Open-shell DLPNO-CCSD energy and density
   Barbara Sandhoefer     : DKH picture change effects
   Avijit Sen             : IP-ROCIS
   Kantharuban Sivalingam : CASSCF convergence, NEVPT2, FIC-MRCI
   Bernardo de Souza      : ESD, SOC TD-DFT
   Georgi Stoychev        : AutoAux, RI-MP2 NMR
   Willem Van den Heuvel  : Paramagnetic NMR
   Boris Wezisla          : Elementary symmetry handling
   Frank Wennmohs         : Technical directorship


 We gratefully acknowledge several colleagues who have allowed us to
 interface, adapt or use parts of their codes:
   Stefan Grimme, W. Hujo, H. Kruse, P. Pracht,  : VdW corrections, initial TS optimization,
                  C. Bannwarth, S. Ehlert          DFT functionals, gCP, sTDA/sTD-DF
   Ed Valeev, F. Pavosevic, A. Kumar             : LibInt (2-el integral package), F12 methods
   Garnet Chan, S. Sharma, J. Yang, R. Olivares  : DMRG
   Ulf Ekstrom                                   : XCFun DFT Library
   Mihaly Kallay                                 : mrcc  (arbitrary order and MRCC methods)
   Jiri Pittner, Ondrej Demel                    : Mk-CCSD
   Frank Weinhold                                : gennbo (NPA and NBO analysis)
   Christopher J. Cramer and Donald G. Truhlar   : smd solvation model
   Lars Goerigk                                  : TD-DFT with DH, B97 family of functionals
   V. Asgeirsson, H. Jonsson                     : NEB implementation
   FAccTs GmbH                                   : IRC, NEB, NEB-TS, DLPNO-Multilevel, CI-OPT
                                                   MM, QMMM, 2- and 3-layer-ONIOM, Crystal-QMMM,
                                                   LR-CPCM, SF, NACMEs, symmetry and pop. for TD-DFT,
                                                   nearIR, NL-DFT gradient (VV10), updates on ESD,
                                                   ML-optimized integration grids
   S Lehtola, MJT Oliveira, MAL Marques          : LibXC Library
   Liviu Ungur et al                             : ANISO software


 Your calculation uses the libint2 library for the computation of 2-el integrals
 For citations please refer to: http://libint.valeyev.net

 Your ORCA version has been built with support for libXC version: 5.1.0
 For citations please refer to: https://tddft.org/programs/libxc/

 This ORCA versions uses:
   CBLAS   interface :  Fast vector & matrix operations
   LAPACKE interface :  Fast linear algebra routines
   SCALAPACK package :  Parallel linear algebra routines
   Shared memory     :  Shared parallel matrices
   BLAS/LAPACK       :  OpenBLAS 0.3.15  USE64BITINT DYNAMIC_ARCH NO_AFFINITY Haswell SINGLE_THREADED
        Core in use  :  Haswell
   Copyright (c) 2011-2014, The OpenBLAS Project




***************************************
The coordinates will be read from file: D.xyz
***************************************


================================================================================

----- Orbital basis set information -----
Your calculation utilizes the basis: aug-cc-pVTZ 
    H, B-Ne : Obtained from the ccRepo (grant-hill.group.shef.ac.uk/ccrepo) Feb. 2017
              R. A. Kendall, T. H. Dunning, Jr., R. J. Harrison, J. Chem. Phys. 96, 6796 (1992)
         He : Obtained from the ccRepo (grant-hill.group.shef.ac.uk/ccrepo) Feb. 2017
              D. E. Woon, T. H. Dunning, Jr., J. Chem. Phys. 100, 2975 (1994)
  Li-Be, Na : Obtained from the ccRepo (grant-hill.group.shef.ac.uk/ccrepo) Feb. 2017
              B. P. Prascher, D. E. Woon, K. A. Peterson, T. H. Dunning, Jr., A. K. Wilson, Theor. Chem. Acc. 128, 69 (2011)
         Mg : Obtained from the Peterson Research Group Website (tyr0.chem.wsu.edu/~kipeters) Feb. 2017
              B. P. Prascher, D. E. Woon, K. A. Peterson, T. H. Dunning, Jr., A. K. Wilson, Theor. Chem. Acc. 128, 69 (2011)
      Al-Ar : Obtained from the ccRepo (grant-hill.group.shef.ac.uk/ccrepo) Feb. 2017
              D. E. Woon, T. H. Dunning, Jr., J. Chem. Phys. 98, 1358 (1993)
      Sc-Zn : Obtained from the ccRepo (grant-hill.group.shef.ac.uk/ccrepo) Feb. 2017
              N. B. Balabanov, K. A. Peterson, J. Chem. Phys. 123, 064107 (2005)
              N. B. Balabanov, K. A. Peterson, J. Chem. Phys. 125, 074110 (2006)
      Ga-Kr : Obtained from the ccRepo (grant-hill.group.shef.ac.uk/ccrepo) Feb. 2017
              A. K. Wilson, D. E. Woon, K. A. Peterson, T. H. Dunning, Jr., J. Chem. Phys. 110, 7667 (1999)
     Ag, Au : Obtained from the Peterson Research Group Website (tyr0.chem.wsu.edu/~kipeters) Feb. 2017
              K. A. Peterson, C. Puzzarini, Theor. Chem. Acc. 114, 283 (2005)

----- AuxJ basis set information -----
Your calculation utilizes the auxiliary basis: def2/J
   F. Weigend, Phys. Chem. Chem. Phys. 8, 1057 (2006).

----- AuxC basis set information -----
Your calculation utilizes the auxiliary basis: aug-cc-pVTZ/C 
  H-He, B-F, Al-Ar, Ga-Kr : Obtained from the EMSL Basis Set Exchange (bse.pnl.gov) Feb. 2017
                            F. Weigend, A. Kohn, C. Hattig, J. Chem. Phys. 116, 3175 (2002)
                   Be, Mg : Obtained from the TURBOMOLE 7.0 basis set library
                            C. Haettig, Phys. Chem. Chem. Phys. 7, 59 (2005)
                       Ne : Obtained from the EMSL Basis Set Exchange (bse.pnl.gov) Feb. 2017
                            C. Haettig, Phys. Chem. Chem. Phys. 7, 59 (2005)
                            F. Weigend, A. Kohn, C. Hattig, J. Chem. Phys. 116, 3175 (2002)
                    Sc-Zn : Obtained from the EMSL Basis Set Exchange (bse.pnl.gov) Feb. 2017
                            J. G. Hill, J. A. Platts, J. Chem. Phys. 128, 044104 (2008)

================================================================================
                                        WARNINGS
                       Please study these warnings very carefully!
================================================================================


WARNING: Post HF methods need fully converged wavefunctions
  ===> : Setting SCFConvForced true
         You can overwrite this default with %scf ConvForced false 


WARNING: MDCI localization with Augmented Hessian Foster-Boys
  ===> : Switching off randomization!

INFO   : the flag for use of the SHARK integral package has been found!

================================================================================
                                       INPUT FILE
================================================================================
NAME = D_wt_dlpno.com
|  1> !DLPNO-CCSD(T) aug-cc-pVTZ aug-cc-pVTZ/C TightSCF TightPNO RIJCOSX def2/J 
|  2> 
|  3> *xyzfile 0 1 D.xyz
|  4> 
|  5> %MaxCore 64000
|  6> 
|  7> %pal nprocs 18                                                                                                                                                  
|  8> end  
|  9> 
| 10> %scf
| 11>   MaxIter 150
| 12> end
| 13> 
| 14> 
| 15>                          ****END OF INPUT****
================================================================================

                       ****************************
                       * Single Point Calculation *
                       ****************************

---------------------------------
CARTESIAN COORDINATES (ANGSTROEM)
---------------------------------
  C      3.956426    0.501466   -0.379100
  H      3.168398    0.029201    0.207383
  C      3.803893    1.961572   -0.156747
  C      3.842322    0.148490   -1.854058
  H      4.923231    0.177982    0.009371
  H      4.620021    0.694502   -2.402150
  H      4.096015   -0.910930   -1.955103
  C      2.475619    0.412708   -2.485377
  H      2.174689    1.445076   -2.287971
  C      1.383931   -0.532740   -1.995203
  H      2.575613    0.318574   -3.571460
  H      1.264698   -0.412309   -0.915491
  H      1.705223   -1.566885   -2.164984
  C      0.031398   -0.317260   -2.677791
  C     -0.587292    1.060853   -2.436460
  H     -0.662815   -1.089530   -2.329985
  H      0.149465   -0.478040   -3.755648
  H      0.104376    1.828590   -2.793130
  C     -0.951213    1.334978   -0.972500
  H     -1.478832    1.161355   -3.062484
  H     -0.317007    0.741648   -0.311389
  H     -1.980916    1.012842   -0.788958
  C     -0.774550    2.788332   -0.543943
  H     -1.352609    3.459372   -1.192585
  H     -1.171014    2.902331    0.469968
  C      0.697208    3.227911   -0.525126
  F      1.489294    2.374703    0.199189
  H      0.715998    4.264030   -0.130774
  H      1.036148    3.330920   -1.583669
  H      4.206425    2.244406    0.745359
  H      2.808269    2.211323   -0.096097
  H      4.280757    2.501552   -0.891037

----------------------------
CARTESIAN COORDINATES (A.U.)
----------------------------
  NO LB      ZA    FRAG     MASS         X           Y           Z
   0 C     6.0000    0    12.011    7.476561    0.947633   -0.716396
   1 H     1.0000    0     1.008    5.987405    0.055183    0.391897
   2 C     6.0000    0    12.011    7.188316    3.706835   -0.296209
   3 C     6.0000    0    12.011    7.260937    0.280606   -3.503662
   4 H     1.0000    0     1.008    9.303558    0.336336    0.017709
   5 H     1.0000    0     1.008    8.730574    1.312418   -4.539406
   6 H     1.0000    0     1.008    7.740346   -1.721408   -3.694610
   7 C     6.0000    0    12.011    4.678241    0.779904   -4.696682
   8 H     1.0000    0     1.008    4.109567    2.730798   -4.323639
   9 C     6.0000    0    12.011    2.615251   -1.006733   -3.770387
  10 H     1.0000    0     1.008    4.867203    0.602019   -6.749081
  11 H     1.0000    0     1.008    2.389933   -0.779151   -1.730028
  12 H     1.0000    0     1.008    3.222404   -2.960983   -4.091227
  13 C     6.0000    0    12.011    0.059334   -0.599535   -5.060291
  14 C     6.0000    0    12.011   -1.109820    2.004721   -4.604242
  15 H     1.0000    0     1.008   -1.252539   -2.058914   -4.403033
  16 H     1.0000    0     1.008    0.282447   -0.903365   -7.097147
  17 H     1.0000    0     1.008    0.197242    3.455535   -5.278251
  18 C     6.0000    0    12.011   -1.797531    2.522743   -1.837758
  19 H     1.0000    0     1.008   -2.794587    2.194642   -5.787255
  20 H     1.0000    0     1.008   -0.599056    1.401512   -0.588441
  21 H     1.0000    0     1.008   -3.743390    1.913994   -1.490915
  22 C     6.0000    0    12.011   -1.463687    5.269184   -1.027904
  23 H     1.0000    0     1.008   -2.556060    6.537265   -2.253660
  24 H     1.0000    0     1.008   -2.212896    5.484610    0.888111
  25 C     6.0000    0    12.011    1.317533    6.099868   -0.992345
  26 F     9.0000    0    18.998    2.814358    4.487537    0.376413
  27 H     1.0000    0     1.008    1.353041    8.057849   -0.247127
  28 H     1.0000    0     1.008    1.958035    6.294527   -2.992701
  29 H     1.0000    0     1.008    7.948992    4.241312    1.408525
  30 H     1.0000    0     1.008    5.306860    4.178795   -0.181597
  31 H     1.0000    0     1.008    8.089457    4.727247   -1.683816

--------------------------------
INTERNAL COORDINATES (ANGSTROEM)
--------------------------------
 C      0   0   0     0.000000000000     0.00000000     0.00000000
 H      1   0   0     1.089946386736     0.00000000     0.00000000
 C      1   2   0     1.484795980114   105.73767240     0.00000000
 C      1   2   3     1.520891583052   111.53263764   238.68845697
 H      1   2   3     1.090992469467   108.70094992   117.16590861
 H      4   1   2     1.096972067914   108.41177860   176.73616583
 H      4   1   2     1.094048394116   107.27220002   290.50889358
 C      4   1   2     1.528481039223   115.31071539    52.98571734
 H      8   4   1     1.093303169447   109.55828632    52.65607182
 C      8   4   1     1.525097781162   113.58676240   290.13497629
 H      8   4   1     1.094731013971   108.25438280   168.51656259
 H     10   8   4     1.092930262592   109.10494017    60.80495737
 H     10   8   4     1.096133958118   108.98194218   304.53969952
 C     10   8   4     1.530262426597   113.70443570   182.94708839
 C     14  10   8     1.529775752203   114.45280313   297.48522040
 H     14  10   8     1.095126888907   108.62193335   175.18333491
 H     14  10   8     1.096160153195   108.82984409    60.10288901
 H     15  14  10     1.093178033006   108.98449960    58.52341285
 C     15  14  10     1.533219883795   114.05976958   295.64188075
 H     15  14  10     1.094006222607   108.78813739   172.87791078
 H     19  15  14     1.091478036038   110.07394216    26.26766594
 H     19  15  14     1.094417261501   109.31898935   269.53880143
 C     19  15  14     1.525486001193   114.27328780   145.76196442
 H     23  19  15     1.097808523453   110.81692127    56.04004437
 H     23  19  15     1.094621343925   108.51134162   173.28296627
 C     23  19  15     1.536116985972   112.76973073   292.64697585
 F     26  23  19     1.371130131829   112.45056163   308.05816608
 H     26  23  19     1.108786897830   106.73832820   184.14541170
 H     26  23  19     1.116245400496   107.80097515    72.66078514
 H      3   1   2     1.027532611813   111.21736672    79.20415484
 H      3   1   2     1.028260830531   110.31307706   322.98023061
 H      3   1   2     1.028668136143   111.20347886   198.97165888

---------------------------
INTERNAL COORDINATES (A.U.)
---------------------------
 C      0   0   0     0.000000000000     0.00000000     0.00000000
 H      1   0   0     2.059700171588     0.00000000     0.00000000
 C      1   2   0     2.805857767163   105.73767240     0.00000000
 C      1   2   3     2.874068571354   111.53263764   238.68845697
 H      1   2   3     2.061676981462   108.70094992   117.16590861
 H      4   1   2     2.072976784918   108.41177860   176.73616583
 H      4   1   2     2.067451842136   107.27220002   290.50889358
 C      4   1   2     2.888410565023   115.31071539    52.98571734
 H      8   4   1     2.066043571603   109.55828632    52.65607182
 C      8   4   1     2.882017133847   113.58676240   290.13497629
 H      8   4   1     2.068741806714   108.25438280   168.51656259
 H     10   8   4     2.065338879773   109.10494017    60.80495737
 H     10   8   4     2.071392986934   108.98194218   304.53969952
 C     10   8   4     2.891776899298   113.70443570   182.94708839
 C     14  10   8     2.890857217978   114.45280313   297.48522040
 H     14  10   8     2.069489901927   108.62193335   175.18333491
 H     14  10   8     2.071442488456   108.82984409    60.10288901
 H     15  14  10     2.065807098001   108.98449960    58.52341285
 C     15  14  10     2.897365683455   114.05976958   295.64188075
 H     15  14  10     2.067372149532   108.78813739   172.87791078
 H     19  15  14     2.062594569302   110.07394216    26.26766594
 H     19  15  14     2.068148900472   109.31898935   269.53880143
 C     19  15  14     2.882750763385   114.27328780   145.76196442
 H     23  19  15     2.074557456810   110.81692127    56.04004437
 H     23  19  15     2.068534560363   108.51134162   173.28296627
 C     23  19  15     2.902840413152   112.76973073   292.64697585
 F     26  23  19     2.591060443124   112.45056163   308.05816608
 H     26  23  19     2.095303577779   106.73832820   184.14541170
 H     26  23  19     2.109398105186   107.80097515    72.66078514
 H      3   1   2     1.941755229999   111.21736672    79.20415484
 H      3   1   2     1.943131363941   110.31307706   322.98023061
 H      3   1   2     1.943901060001   111.20347886   198.97165888

---------------------
BASIS SET INFORMATION
---------------------
There are 3 groups of distinct atoms

 Group   1 Type C   : 19s6p3d2f contracted to 5s4p3d2f pattern {88111/3111/111/11}
 Group   2 Type H   : 6s3p2d contracted to 4s3p2d pattern {3111/111/11}
 Group   3 Type F   : 19s6p3d2f contracted to 5s4p3d2f pattern {88111/3111/111/11}

Atom   0C    basis set group =>   1
Atom   1H    basis set group =>   2
Atom   2C    basis set group =>   1
Atom   3C    basis set group =>   1
Atom   4H    basis set group =>   2
Atom   5H    basis set group =>   2
Atom   6H    basis set group =>   2
Atom   7C    basis set group =>   1
Atom   8H    basis set group =>   2
Atom   9C    basis set group =>   1
Atom  10H    basis set group =>   2
Atom  11H    basis set group =>   2
Atom  12H    basis set group =>   2
Atom  13C    basis set group =>   1
Atom  14C    basis set group =>   1
Atom  15H    basis set group =>   2
Atom  16H    basis set group =>   2
Atom  17H    basis set group =>   2
Atom  18C    basis set group =>   1
Atom  19H    basis set group =>   2
Atom  20H    basis set group =>   2
Atom  21H    basis set group =>   2
Atom  22C    basis set group =>   1
Atom  23H    basis set group =>   2
Atom  24H    basis set group =>   2
Atom  25C    basis set group =>   1
Atom  26F    basis set group =>   3
Atom  27H    basis set group =>   2
Atom  28H    basis set group =>   2
Atom  29H    basis set group =>   2
Atom  30H    basis set group =>   2
Atom  31H    basis set group =>   2
---------------------------------
AUXILIARY/J BASIS SET INFORMATION
---------------------------------
There are 3 groups of distinct atoms

 Group   1 Type C   : 12s5p4d2f1g contracted to 6s4p3d1f1g pattern {711111/2111/211/2/1}
 Group   2 Type H   : 5s2p1d contracted to 3s1p1d pattern {311/2/1}
 Group   3 Type F   : 12s5p4d2f1g contracted to 6s4p3d1f1g pattern {711111/2111/211/2/1}

Atom   0C    basis set group =>   1
Atom   1H    basis set group =>   2
Atom   2C    basis set group =>   1
Atom   3C    basis set group =>   1
Atom   4H    basis set group =>   2
Atom   5H    basis set group =>   2
Atom   6H    basis set group =>   2
Atom   7C    basis set group =>   1
Atom   8H    basis set group =>   2
Atom   9C    basis set group =>   1
Atom  10H    basis set group =>   2
Atom  11H    basis set group =>   2
Atom  12H    basis set group =>   2
Atom  13C    basis set group =>   1
Atom  14C    basis set group =>   1
Atom  15H    basis set group =>   2
Atom  16H    basis set group =>   2
Atom  17H    basis set group =>   2
Atom  18C    basis set group =>   1
Atom  19H    basis set group =>   2
Atom  20H    basis set group =>   2
Atom  21H    basis set group =>   2
Atom  22C    basis set group =>   1
Atom  23H    basis set group =>   2
Atom  24H    basis set group =>   2
Atom  25C    basis set group =>   1
Atom  26F    basis set group =>   3
Atom  27H    basis set group =>   2
Atom  28H    basis set group =>   2
Atom  29H    basis set group =>   2
Atom  30H    basis set group =>   2
Atom  31H    basis set group =>   2
---------------------------------
AUXILIARY/C BASIS SET INFORMATION
---------------------------------
There are 3 groups of distinct atoms

 Group   1 Type C   : 9s7p6d4f2g contracted to 9s7p6d4f2g pattern {111111111/1111111/111111/1111/11}
 Group   2 Type H   : 5s4p3d2f contracted to 5s4p3d2f pattern {11111/1111/111/11}
 Group   3 Type F   : 9s7p6d4f2g contracted to 9s7p6d4f2g pattern {111111111/1111111/111111/1111/11}

Atom   0C    basis set group =>   1
Atom   1H    basis set group =>   2
Atom   2C    basis set group =>   1
Atom   3C    basis set group =>   1
Atom   4H    basis set group =>   2
Atom   5H    basis set group =>   2
Atom   6H    basis set group =>   2
Atom   7C    basis set group =>   1
Atom   8H    basis set group =>   2
Atom   9C    basis set group =>   1
Atom  10H    basis set group =>   2
Atom  11H    basis set group =>   2
Atom  12H    basis set group =>   2
Atom  13C    basis set group =>   1
Atom  14C    basis set group =>   1
Atom  15H    basis set group =>   2
Atom  16H    basis set group =>   2
Atom  17H    basis set group =>   2
Atom  18C    basis set group =>   1
Atom  19H    basis set group =>   2
Atom  20H    basis set group =>   2
Atom  21H    basis set group =>   2
Atom  22C    basis set group =>   1
Atom  23H    basis set group =>   2
Atom  24H    basis set group =>   2
Atom  25C    basis set group =>   1
Atom  26F    basis set group =>   3
Atom  27H    basis set group =>   2
Atom  28H    basis set group =>   2
Atom  29H    basis set group =>   2
Atom  30H    basis set group =>   2
Atom  31H    basis set group =>   2


           ************************************************************
           *        Program running with 18 parallel MPI-processes    *
           *              working on a common directory               *
           ************************************************************
------------------------------------------------------------------------------
                           ORCA GTO INTEGRAL CALCULATION
                           -- RI-GTO INTEGRALS CHOSEN --
------------------------------------------------------------------------------
------------------------------------------------------------------------------
                   ___                                                        
                  /   \      - P O W E R E D   B Y -                         
                 /     \                                                     
                 |  |  |   _    _      __       _____    __    __             
                 |  |  |  | |  | |    /  \     |  _  \  |  |  /  |          
                  \  \/   | |  | |   /    \    | | | |  |  | /  /          
                 / \  \   | |__| |  /  /\  \   | |_| |  |  |/  /          
                |  |  |   |  __  | /  /__\  \  |    /   |      \           
                |  |  |   | |  | | |   __   |  |    \   |  |\   \          
                \     /   | |  | | |  |  |  |  | |\  \  |  | \   \       
                 \___/    |_|  |_| |__|  |__|  |_| \__\ |__|  \__/        
                                                                              
                      - O R C A' S   B I G   F R I E N D -                    
                                      &                                       
                       - I N T E G R A L  F E E D E R -                       
                                                                              
 v1 FN, 2020, v2 2021                                                         
------------------------------------------------------------------------------


Reading SHARK input file D_wt_dlpno.SHARKINP.tmp ... ok
----------------------
SHARK INTEGRAL PACKAGE
----------------------

Number of atoms                             ...     32
Number of basis functions                   ...    989
Number of shells                            ...    343
Maximum angular momentum                    ...      3
Integral batch strategy                     ... SHARK/LIBINT Hybrid
RI-J (if used) integral strategy            ... SPLIT-RIJ (Revised 2003 algorithm where possible)
Printlevel                                  ...      1
Contraction scheme used                     ... SEGMENTED contraction
Coulomb Range Separation                    ... NOT USED
Exchange Range Separation                   ... NOT USED
Finite Nucleus Model                        ... NOT USED
Auxiliary Coulomb fitting basis             ... AVAILABLE
   # of basis functions in Aux-J            ...    770
   # of shells in Aux-J                     ...    270
   Maximum angular momentum in Aux-J        ...      4
Auxiliary J/K fitting basis                 ... NOT available
Auxiliary Correlation fitting basis         ... AVAILABLE
   # of basis functions in Aux-C            ...   2132
   # of shells in Aux-C                     ...    602
   Maximum angular momentum in Aux-C        ...      4
Auxiliary 'external' fitting basis          ... NOT available
Integral threshold                          ...     2.500000e-11
Primitive cut-off                           ...     2.500000e-12
Primitive pair pre-selection threshold      ...     2.500000e-12

Calculating pre-screening integrals         ... done (  0.5 sec) Dimension = 343
Organizing shell pair data                  ... done (  0.7 sec)
Shell pair information
Total number of shell pairs                 ...     58996
Shell pairs after pre-screening             ...     55144
Total number of primitive shell pairs       ...    158353
Primitive shell pairs kept                  ...    112933
          la=0 lb=0:   9204 shell pairs
          la=1 lb=0:  13906 shell pairs
          la=1 lb=1:   5322 shell pairs
          la=2 lb=0:   9731 shell pairs
          la=2 lb=1:   7379 shell pairs
          la=2 lb=2:   2621 shell pairs
          la=3 lb=0:   2942 shell pairs
          la=3 lb=1:   2228 shell pairs
          la=3 lb=2:   1560 shell pairs
          la=3 lb=3:    251 shell pairs

Calculating one electron integrals          ... done (  0.1 sec)
Calculating RI/J V-Matrix + Cholesky decomp.... done (  0.1 sec)
Calculating RI/C V-Matrix + Cholesky decomp.... done (  1.3 sec)
Calculating Nuclear repulsion               ... done (  0.0 sec) ENN=    705.104980922561 Eh

SHARK setup successfully completed in   2.8 seconds

Maximum memory used throughout the entire GTOINT-calculation: 85.6 MB


           ************************************************************
           *        Program running with 18 parallel MPI-processes    *
           *              working on a common directory               *
           ************************************************************
-------------------------------------------------------------------------------
                                 ORCA SCF
-------------------------------------------------------------------------------

------------
SCF SETTINGS
------------
Hamiltonian:
 Ab initio Hamiltonian  Method          .... Hartree-Fock(GTOs)
 RI-approximation to the Coulomb term is turned on
   Number of AuxJ basis functions       .... 770
   RIJ-COSX (HFX calculated with COS-X)).... on


General Settings:
 Integral files         IntName         .... D_wt_dlpno
 Hartree-Fock type      HFTyp           .... RHF
 Total Charge           Charge          ....    0
 Multiplicity           Mult            ....    1
 Number of Electrons    NEL             ....   90
 Basis Dimension        Dim             ....  989
 Nuclear Repulsion      ENuc            ....    705.1049809226 Eh

Convergence Acceleration:
 DIIS                   CNVDIIS         .... on
   Start iteration      DIISMaxIt       ....    12
   Startup error        DIISStart       ....  0.200000
   # of expansion vecs  DIISMaxEq       ....     5
   Bias factor          DIISBfac        ....   1.050
   Max. coefficient     DIISMaxC        ....  10.000
 Trust-Rad. Augm. Hess. CNVTRAH         .... auto
   Auto Start mean grad. ratio tolernc. ....  1.125000
   Auto Start start iteration           ....    20
   Auto Start num. interpolation iter.  ....    10
   Max. Number of Micro iterations      ....    16
   Max. Number of Macro iterations      .... Maxiter - #DIIS iter
   Number of Davidson start vectors     ....     2
   Converg. threshold I  (grad. norm)   ....   1.000e-05
   Converg. threshold II (energy diff.) ....   1.000e-08
   Grad. Scal. Fac. for Micro threshold ....   0.100
   Minimum threshold for Micro iter.    ....   0.010
   NR start threshold (gradient norm)   ....   0.001
   Initial trust radius                 ....   0.400
   Minimum AH scaling param. (alpha)    ....   1.000
   Maximum AH scaling param. (alpha)    .... 1000.000
   Orbital update algorithm             .... Taylor
   White noise on init. David. guess    .... on
   Maximum white noise                  ....   0.010
   Quad. conv. algorithm                .... NR
 SOSCF                  CNVSOSCF        .... on
   Start iteration      SOSCFMaxIt      ....   150
   Startup grad/error   SOSCFStart      ....  0.003300
 Level Shifting         CNVShift        .... on
   Level shift para.    LevelShift      ....    0.2500
   Turn off err/grad.   ShiftErr        ....    0.0010
 Zerner damping         CNVZerner       .... off
 Static damping         CNVDamp         .... on
   Fraction old density DampFac         ....    0.7000
   Max. Damping (<1)    DampMax         ....    0.9800
   Min. Damping (>=0)   DampMin         ....    0.0000
   Turn off err/grad.   DampErr         ....    0.1000
 Fernandez-Rico         CNVRico         .... off

SCF Procedure:
 Maximum # iterations   MaxIter         ....   150
 SCF integral mode      SCFMode         .... Direct
   Integral package                     .... SHARK and LIBINT hybrid scheme
 Reset frequency        DirectResetFreq ....    20
 Integral Threshold     Thresh          ....  2.500e-11 Eh
 Primitive CutOff       TCut            ....  2.500e-12 Eh

Convergence Tolerance:
 Convergence Check Mode ConvCheckMode   .... Total+1el-Energy
 Convergence forced     ConvForced      .... 1
 Energy Change          TolE            ....  1.000e-08 Eh
 1-El. energy change                    ....  1.000e-05 Eh
 Orbital Gradient       TolG            ....  1.000e-05
 Orbital Rotation angle TolX            ....  1.000e-05
 DIIS Error             TolErr          ....  5.000e-07


Diagonalization of the overlap matrix:
Smallest eigenvalue                        ... 8.838e-07
Time for diagonalization                   ...    0.234 sec
Threshold for overlap eigenvalues          ... 1.000e-08
Number of eigenvalues below threshold      ... 0
Time for construction of square roots      ...    0.693 sec
Total time needed                          ...    0.934 sec

Time for model grid setup =    0.181 sec

------------------------------
INITIAL GUESS: MODEL POTENTIAL
------------------------------
Loading Hartree-Fock densities                     ... done
Calculating cut-offs                               ... done
Initializing the effective Hamiltonian             ... done
Setting up the integral package (SHARK)            ... done
Starting the Coulomb interaction                   ... done (   0.4 sec)
Reading the grid                                   ... done
Mapping shells                                     ... done
Starting the XC term evaluation                    ... done (   0.3 sec)
Transforming the Hamiltonian                       ... done (   0.2 sec)
Diagonalizing the Hamiltonian                      ... done (   0.3 sec)
Back transforming the eigenvectors                 ... done (   0.1 sec)
Now organizing SCF variables                       ... done
                      ------------------
                      INITIAL GUESS DONE (   1.3 sec)
                      ------------------
--------------------
COSX GRID GENERATION
--------------------

GRIDX 1
-------
General Integration Accuracy     IntAcc      ... 3.816
Radial Grid Type                 RadialGrid  ... OptM3 with GC (2021)
Angular Grid (max. ang.)         AngularGrid ... 1 (Lebedev-50)
Angular grid pruning method      GridPruning ... 4 (adaptive)
Weight generation scheme         WeightScheme... Becke
Basis function cutoff            BFCut       ... 1.0000e-11
Integration weight cutoff        WCut        ... 1.0000e-14
Angular grids for H and He will be reduced by one unit
Partially contracted basis set               ... on
Rotationally invariant grid construction     ... off

Total number of grid points                  ...    17172
Total number of batches                      ...      287
Average number of points per batch           ...       59
Average number of grid points per atom       ...      537
UseSFitting                                  ... on

GRIDX 2
-------
General Integration Accuracy     IntAcc      ... 4.020
Radial Grid Type                 RadialGrid  ... OptM3 with GC (2021)
Angular Grid (max. ang.)         AngularGrid ... 2 (Lebedev-110)
Angular grid pruning method      GridPruning ... 4 (adaptive)
Weight generation scheme         WeightScheme... Becke
Basis function cutoff            BFCut       ... 1.0000e-11
Integration weight cutoff        WCut        ... 1.0000e-14
Angular grids for H and He will be reduced by one unit
Partially contracted basis set               ... on
Rotationally invariant grid construction     ... off

Total number of grid points                  ...    38661
Total number of batches                      ...      620
Average number of points per batch           ...       62
Average number of grid points per atom       ...     1208
UseSFitting                                  ... on

GRIDX 3
-------
General Integration Accuracy     IntAcc      ... 4.338
Radial Grid Type                 RadialGrid  ... OptM3 with GC (2021)
Angular Grid (max. ang.)         AngularGrid ... 3 (Lebedev-194)
Angular grid pruning method      GridPruning ... 4 (adaptive)
Weight generation scheme         WeightScheme... Becke
Basis function cutoff            BFCut       ... 1.0000e-11
Integration weight cutoff        WCut        ... 1.0000e-14
Angular grids for H and He will be reduced by one unit
Partially contracted basis set               ... on
Rotationally invariant grid construction     ... off

Total number of grid points                  ...    86357
Total number of batches                      ...     1371
Average number of points per batch           ...       62
Average number of grid points per atom       ...     2699
UseSFitting                                  ... on

Time for X-Grid setup             =    1.807 sec

 re-compute Schwartz prescreening matrix in partically contracted basis (1) ...done (   0.117 sec)
--------------
SCF ITERATIONS
--------------
ITER       Energy         Delta-E        Max-DP      RMS-DP      [F,P]     Damp
               ***  Starting incremental Fock matrix formation  ***
  0   -489.7885447151   0.000000000000 0.07854936  0.00096625  0.2997867 0.7000
  1   -490.0199449567  -0.231400241549 0.06219070  0.00076298  0.1941783 0.7000
                               ***Turning on DIIS***
  2   -490.1601046628  -0.140159706122 0.04470257  0.00056147  0.1157294 0.7000
  3   -491.6358579275  -1.475753264683 0.11667073  0.00150693  0.0835455 0.0000
  4   -490.2682511294   1.367606798068 0.03837531  0.00020281  0.0117778 0.0000
                      *** Initiating the SOSCF procedure ***
                           *** Shutting down DIIS ***
                      *** Re-Reading the Fockian *** 
                      *** Removing any level shift *** 
ITER      Energy       Delta-E        Grad      Rot      Max-DP    RMS-DP
  5   -490.42862196  -0.1603708287  0.000747  0.000747  0.009914  0.000080
               *** Restarting incremental Fock matrix formation ***
  6   -490.45081194  -0.0221899858  0.000292  0.000409  0.028554  0.000387
  7   -490.45085928  -0.0000473343  0.000107  0.000197  0.007269  0.000074
  8   -490.45086543  -0.0000061480  0.000042  0.000033  0.003558  0.000043
  9   -490.45086584  -0.0000004171  0.000007  0.000006  0.000402  0.000004
                  ***Gradient check signals convergence***
              ***Rediagonalizing the Fockian in SOSCF/NRSCF***

               *****************************************************
               *                     SUCCESS                       *
               *           SCF CONVERGED AFTER  10 CYCLES          *
               *****************************************************

Old exchange energy                            =    -69.786169993 Eh
New exchange energy                            =    -69.786096472 Eh
Exchange energy change after final integration =      0.000073521 Eh
Total energy after final integration           =   -490.450792352 Eh
Final COS-X integration done in                =    21.988 sec

----------------
TOTAL SCF ENERGY
----------------

Total Energy       :         -490.45079235 Eh          -13345.84455 eV

Components:
Nuclear Repulsion  :          705.10498092 Eh           19186.88197 eV
Electronic Energy  :        -1195.55577327 Eh          -32532.72652 eV
One Electron Energy:        -2067.43593681 Eh          -56257.79193 eV
Two Electron Energy:          871.88016354 Eh           23725.06541 eV
Max COSX asymmetry :            0.00003133 Eh               0.00085 eV

Virial components:
Potential Energy   :         -981.16129861 Eh          -26698.75627 eV
Kinetic Energy     :          490.71050626 Eh           13352.91172 eV
Virial Ratio       :            1.99947074


---------------
SCF CONVERGENCE
---------------

  Last Energy change         ...   -2.9645e-08  Tolerance :   1.0000e-08
  Last MAX-Density change    ...    2.6645e-15  Tolerance :   1.0000e-07
  Last RMS-Density change    ...    1.0149e-17  Tolerance :   5.0000e-09
  Last Orbital Gradient      ...    1.2780e-06  Tolerance :   1.0000e-05
  Last Orbital Rotation      ...    1.5544e-06  Tolerance :   1.0000e-05

             **** THE GBW FILE WAS UPDATED (D_wt_dlpno.gbw) ****
             **** DENSITY D_wt_dlpno.scfp WAS UPDATED ****
             **** ENERGY FILE WAS UPDATED (D_wt_dlpno.en.tmp) ****
             **** THE GBW FILE WAS UPDATED (D_wt_dlpno.gbw) ****
             **** DENSITY D_wt_dlpno.scfp WAS UPDATED ****
----------------
ORBITAL ENERGIES
----------------

  NO   OCC          E(Eh)            E(eV) 
   0   2.0000     -26.301850      -715.7097 
   1   2.0000     -11.320094      -308.0354 
   2   2.0000     -11.235379      -305.7302 
   3   2.0000     -11.220172      -305.3164 
   4   2.0000     -11.216886      -305.2270 
   5   2.0000     -11.213622      -305.1382 
   6   2.0000     -11.207074      -304.9600 
   7   2.0000     -11.204952      -304.9022 
   8   2.0000     -11.198625      -304.7301 
   9   2.0000     -11.186090      -304.3890 
  10   2.0000     -11.127237      -302.7875 
  11   2.0000      -1.631932       -44.4071 
  12   2.0000      -1.101672       -29.9780 
  13   2.0000      -1.078912       -29.3587 
  14   2.0000      -1.038396       -28.2562 
  15   2.0000      -0.999203       -27.1897 
  16   2.0000      -0.939594       -25.5676 
  17   2.0000      -0.905233       -24.6327 
  18   2.0000      -0.853627       -23.2284 
  19   2.0000      -0.819086       -22.2885 
  20   2.0000      -0.776324       -21.1248 
  21   2.0000      -0.760542       -20.6954 
  22   2.0000      -0.734938       -19.9987 
  23   2.0000      -0.724502       -19.7147 
  24   2.0000      -0.688061       -18.7231 
  25   2.0000      -0.641464       -17.4551 
  26   2.0000      -0.631129       -17.1739 
  27   2.0000      -0.614910       -16.7325 
  28   2.0000      -0.596153       -16.2222 
  29   2.0000      -0.590002       -16.0548 
  30   2.0000      -0.569410       -15.4944 
  31   2.0000      -0.549402       -14.9500 
  32   2.0000      -0.542311       -14.7570 
  33   2.0000      -0.522184       -14.2094 
  34   2.0000      -0.515626       -14.0309 
  35   2.0000      -0.509024       -13.8512 
  36   2.0000      -0.492943       -13.4137 
  37   2.0000      -0.485259       -13.2046 
  38   2.0000      -0.464142       -12.6299 
  39   2.0000      -0.457100       -12.4383 
  40   2.0000      -0.449688       -12.2366 
  41   2.0000      -0.446407       -12.1474 
  42   2.0000      -0.430633       -11.7181 
  43   2.0000      -0.429810       -11.6957 
  44   2.0000      -0.416148       -11.3240 
  45   0.0000       0.025636         0.6976 
  46   0.0000       0.031921         0.8686 
  47   0.0000       0.033212         0.9038 
  48   0.0000       0.035171         0.9571 
  49   0.0000       0.044381         1.2077 
  50   0.0000       0.046291         1.2596 
  51   0.0000       0.047191         1.2841 
  52   0.0000       0.050782         1.3818 
  53   0.0000       0.054978         1.4960 
  54   0.0000       0.064294         1.7495 
  55   0.0000       0.066720         1.8156 
  56   0.0000       0.067892         1.8474 
  57   0.0000       0.069263         1.8847 
  58   0.0000       0.073335         1.9955 
  59   0.0000       0.078810         2.1445 
  60   0.0000       0.081316         2.2127 
  61   0.0000       0.090693         2.4679 
  62   0.0000       0.094430         2.5696 
  63   0.0000       0.097268         2.6468 
  64   0.0000       0.103060         2.8044 
  65   0.0000       0.106610         2.9010 
  66   0.0000       0.111852         3.0436 
  67   0.0000       0.113280         3.0825 
  68   0.0000       0.116175         3.1613 
  69   0.0000       0.124724         3.3939 
  70   0.0000       0.126469         3.4414 
  71   0.0000       0.128328         3.4920 
  72   0.0000       0.132367         3.6019 
  73   0.0000       0.134902         3.6709 
  74   0.0000       0.136188         3.7059 
  75   0.0000       0.142848         3.8871 
  76   0.0000       0.143892         3.9155 
  77   0.0000       0.147500         4.0137 
  78   0.0000       0.150192         4.0869 
  79   0.0000       0.157282         4.2799 
  80   0.0000       0.158695         4.3183 
  81   0.0000       0.160141         4.3577 
  82   0.0000       0.162489         4.4215 
  83   0.0000       0.166146         4.5211 
  84   0.0000       0.167094         4.5469 
  85   0.0000       0.170488         4.6392 
  86   0.0000       0.171797         4.6748 
  87   0.0000       0.176435         4.8010 
  88   0.0000       0.180058         4.8996 
  89   0.0000       0.185738         5.0542 
  90   0.0000       0.188611         5.1324 
  91   0.0000       0.194542         5.2938 
  92   0.0000       0.198664         5.4059 
  93   0.0000       0.202065         5.4985 
  94   0.0000       0.204441         5.5631 
  95   0.0000       0.209016         5.6876 
  96   0.0000       0.211988         5.7685 
  97   0.0000       0.219237         5.9657 
  98   0.0000       0.224358         6.1051 
  99   0.0000       0.232338         6.3222 
 100   0.0000       0.239128         6.5070 
 101   0.0000       0.244652         6.6573 
 102   0.0000       0.249177         6.7804 
 103   0.0000       0.250606         6.8193 
 104   0.0000       0.253411         6.8957 
 105   0.0000       0.258042         7.0217 
 106   0.0000       0.266483         7.2514 
 107   0.0000       0.279263         7.5991 
 108   0.0000       0.286786         7.8038 
 109   0.0000       0.289976         7.8907 
 110   0.0000       0.293586         7.9889 
 111   0.0000       0.295043         8.0285 
 112   0.0000       0.298542         8.1237 
 113   0.0000       0.303496         8.2586 
 114   0.0000       0.308502         8.3948 
 115   0.0000       0.309662         8.4263 
 116   0.0000       0.313233         8.5235 
 117   0.0000       0.315122         8.5749 
 118   0.0000       0.318310         8.6616 
 119   0.0000       0.321482         8.7480 
 120   0.0000       0.326321         8.8796 
 121   0.0000       0.329512         8.9665 
 122   0.0000       0.333379         9.0717 
 123   0.0000       0.335428         9.1275 
 124   0.0000       0.338305         9.2057 
 125   0.0000       0.339520         9.2388 
 126   0.0000       0.342601         9.3227 
 127   0.0000       0.347640         9.4598 
 128   0.0000       0.350890         9.5482 
 129   0.0000       0.352961         9.6046 
 130   0.0000       0.359409         9.7800 
 131   0.0000       0.360166         9.8006 
 132   0.0000       0.364680         9.9234 
 133   0.0000       0.370056        10.0697 
 134   0.0000       0.371828        10.1179 
 135   0.0000       0.380073        10.3423 
 136   0.0000       0.382744        10.4150 
 137   0.0000       0.385044        10.4776 
 138   0.0000       0.389636        10.6025 
 139   0.0000       0.390024        10.6131 
 140   0.0000       0.392988        10.6937 
 141   0.0000       0.399010        10.8576 
 142   0.0000       0.400403        10.8955 
 143   0.0000       0.404826        11.0159 
 144   0.0000       0.405132        11.0242 
 145   0.0000       0.409507        11.1432 
 146   0.0000       0.413306        11.2466 
 147   0.0000       0.414808        11.2875 
 148   0.0000       0.419067        11.4034 
 149   0.0000       0.427901        11.6438 
 150   0.0000       0.429993        11.7007 
 151   0.0000       0.434870        11.8334 
 152   0.0000       0.438027        11.9193 
 153   0.0000       0.443034        12.0556 
 154   0.0000       0.447400        12.1744 
 155   0.0000       0.448575        12.2064 
 156   0.0000       0.453267        12.3340 
 157   0.0000       0.456070        12.4103 
 158   0.0000       0.462652        12.5894 
 159   0.0000       0.463837        12.6216 
 160   0.0000       0.468759        12.7556 
 161   0.0000       0.470909        12.8141 
 162   0.0000       0.475723        12.9451 
 163   0.0000       0.476942        12.9783 
 164   0.0000       0.481815        13.1109 
 165   0.0000       0.484891        13.1946 
 166   0.0000       0.487855        13.2752 
 167   0.0000       0.490489        13.3469 
 168   0.0000       0.494091        13.4449 
 169   0.0000       0.497262        13.5312 
 170   0.0000       0.498215        13.5571 
 171   0.0000       0.503120        13.6906 
 172   0.0000       0.508243        13.8300 
 173   0.0000       0.512567        13.9476 
 174   0.0000       0.515421        14.0253 
 175   0.0000       0.517005        14.0684 
 176   0.0000       0.521507        14.1909 
 177   0.0000       0.524084        14.2611 
 178   0.0000       0.528467        14.3803 
 179   0.0000       0.532408        14.4876 
 180   0.0000       0.536010        14.5856 
 181   0.0000       0.536806        14.6072 
 182   0.0000       0.540890        14.7184 
 183   0.0000       0.545195        14.8355 
 184   0.0000       0.547598        14.9009 
 185   0.0000       0.552826        15.0432 
 186   0.0000       0.554317        15.0837 
 187   0.0000       0.556528        15.1439 
 188   0.0000       0.560663        15.2564 
 189   0.0000       0.564761        15.3679 
 190   0.0000       0.570435        15.5223 
 191   0.0000       0.572746        15.5852 
 192   0.0000       0.575842        15.6695 
 193   0.0000       0.577947        15.7267 
 194   0.0000       0.581508        15.8236 
 195   0.0000       0.586841        15.9687 
 196   0.0000       0.589223        16.0336 
 197   0.0000       0.592536        16.1237 
 198   0.0000       0.597120        16.2484 
 199   0.0000       0.598868        16.2960 
 200   0.0000       0.602875        16.4051 
 201   0.0000       0.606813        16.5122 
 202   0.0000       0.611048        16.6275 
 203   0.0000       0.615883        16.7590 
 204   0.0000       0.621364        16.9082 
 205   0.0000       0.625868        17.0307 
 206   0.0000       0.629370        17.1260 
 207   0.0000       0.632496        17.2111 
 208   0.0000       0.635003        17.2793 
 209   0.0000       0.637098        17.3363 
 210   0.0000       0.647050        17.6071 
 211   0.0000       0.652330        17.7508 
 212   0.0000       0.655272        17.8309 
 213   0.0000       0.656580        17.8664 
 214   0.0000       0.661312        17.9952 
 215   0.0000       0.665830        18.1181 
 216   0.0000       0.668064        18.1789 
 217   0.0000       0.671923        18.2839 
 218   0.0000       0.676718        18.4144 
 219   0.0000       0.678996        18.4764 
 220   0.0000       0.684401        18.6235 
 221   0.0000       0.687163        18.6986 
 222   0.0000       0.689791        18.7702 
 223   0.0000       0.692987        18.8571 
 224   0.0000       0.699387        19.0313 
 225   0.0000       0.702544        19.1172 
 226   0.0000       0.708401        19.2766 
 227   0.0000       0.716675        19.5017 
 228   0.0000       0.721705        19.6386 
 229   0.0000       0.723788        19.6953 
 230   0.0000       0.728504        19.8236 
 231   0.0000       0.734608        19.9897 
 232   0.0000       0.734735        19.9932 
 233   0.0000       0.741237        20.1701 
 234   0.0000       0.744853        20.2685 
 235   0.0000       0.746288        20.3075 
 236   0.0000       0.750066        20.4103 
 237   0.0000       0.759750        20.6739 
 238   0.0000       0.767108        20.8741 
 239   0.0000       0.770714        20.9722 
 240   0.0000       0.774896        21.0860 
 241   0.0000       0.778576        21.1861 
 242   0.0000       0.780645        21.2424 
 243   0.0000       0.785443        21.3730 
 244   0.0000       0.790050        21.4983 
 245   0.0000       0.795701        21.6521 
 246   0.0000       0.801403        21.8073 
 247   0.0000       0.811617        22.0852 
 248   0.0000       0.813621        22.1398 
 249   0.0000       0.816879        22.2284 
 250   0.0000       0.824548        22.4371 
 251   0.0000       0.835621        22.7384 
 252   0.0000       0.845453        23.0060 
 253   0.0000       0.848165        23.0797 
 254   0.0000       0.851241        23.1634 
 255   0.0000       0.857349        23.3296 
 256   0.0000       0.860487        23.4150 
 257   0.0000       0.868933        23.6449 
 258   0.0000       0.873139        23.7593 
 259   0.0000       0.878694        23.9105 
 260   0.0000       0.880072        23.9480 
 261   0.0000       0.886067        24.1111 
 262   0.0000       0.889580        24.2067 
 263   0.0000       0.893610        24.3164 
 264   0.0000       0.900961        24.5164 
 265   0.0000       0.909601        24.7515 
 266   0.0000       0.917037        24.9539 
 267   0.0000       0.918959        25.0061 
 268   0.0000       0.921475        25.0746 
 269   0.0000       0.928051        25.2536 
 270   0.0000       0.932874        25.3848 
 271   0.0000       0.938390        25.5349 
 272   0.0000       0.941647        25.6235 
 273   0.0000       0.947905        25.7938 
 274   0.0000       0.952143        25.9091 
 275   0.0000       0.954381        25.9700 
 276   0.0000       0.960471        26.1358 
 277   0.0000       0.965465        26.2716 
 278   0.0000       0.967601        26.3298 
 279   0.0000       0.971973        26.4487 
 280   0.0000       0.972857        26.4728 
 281   0.0000       0.979830        26.6625 
 282   0.0000       0.984325        26.7848 
 283   0.0000       0.986316        26.8390 
 284   0.0000       0.993166        27.0254 
 285   0.0000       0.998062        27.1586 
 286   0.0000       0.998553        27.1720 
 287   0.0000       1.006154        27.3789 
 288   0.0000       1.009150        27.4604 
 289   0.0000       1.016304        27.6550 
 290   0.0000       1.018077        27.7033 
 291   0.0000       1.022563        27.8254 
 292   0.0000       1.028888        27.9975 
 293   0.0000       1.032121        28.0855 
 294   0.0000       1.034248        28.1433 
 295   0.0000       1.038659        28.2633 
 296   0.0000       1.039638        28.2900 
 297   0.0000       1.044498        28.4222 
 298   0.0000       1.054172        28.6855 
 299   0.0000       1.055509        28.7219 
 300   0.0000       1.058985        28.8164 
 301   0.0000       1.061817        28.8935 
 302   0.0000       1.069754        29.1095 
 303   0.0000       1.077466        29.3193 
 304   0.0000       1.080112        29.3914 
 305   0.0000       1.085995        29.5514 
 306   0.0000       1.088896        29.6304 
 307   0.0000       1.091995        29.7147 
 308   0.0000       1.093869        29.7657 
 309   0.0000       1.104620        30.0582 
 310   0.0000       1.107822        30.1454 
 311   0.0000       1.112752        30.2795 
 312   0.0000       1.117827        30.4176 
 313   0.0000       1.123343        30.5677 
 314   0.0000       1.126855        30.6633 
 315   0.0000       1.128728        30.7143 
 316   0.0000       1.132858        30.8266 
 317   0.0000       1.137692        30.9582 
 318   0.0000       1.139947        31.0195 
 319   0.0000       1.147352        31.2210 
 320   0.0000       1.153349        31.3842 
 321   0.0000       1.160388        31.5758 
 322   0.0000       1.160887        31.5893 
 323   0.0000       1.164141        31.6779 
 324   0.0000       1.167610        31.7723 
 325   0.0000       1.175159        31.9777 
 326   0.0000       1.181208        32.1423 
 327   0.0000       1.183657        32.2089 
 328   0.0000       1.189157        32.3586 
 329   0.0000       1.195757        32.5382 
 330   0.0000       1.196708        32.5641 
 331   0.0000       1.201896        32.7053 
 332   0.0000       1.204019        32.7630 
 333   0.0000       1.211160        32.9573 
 334   0.0000       1.213326        33.0163 
 335   0.0000       1.219198        33.1761 
 336   0.0000       1.227470        33.4012 
 337   0.0000       1.229781        33.4640 
 338   0.0000       1.231455        33.5096 
 339   0.0000       1.240678        33.7606 
 340   0.0000       1.243762        33.8445 
 341   0.0000       1.250401        34.0251 
 342   0.0000       1.252562        34.0839 
 343   0.0000       1.256808        34.1995 
 344   0.0000       1.259547        34.2740 
 345   0.0000       1.264740        34.4153 
 346   0.0000       1.264836        34.4179 
 347   0.0000       1.267424        34.4884 
 348   0.0000       1.274990        34.6942 
 349   0.0000       1.280423        34.8421 
 350   0.0000       1.282586        34.9009 
 351   0.0000       1.286447        35.0060 
 352   0.0000       1.299864        35.3711 
 353   0.0000       1.303392        35.4671 
 354   0.0000       1.304868        35.5073 
 355   0.0000       1.309880        35.6436 
 356   0.0000       1.318883        35.8886 
 357   0.0000       1.320077        35.9211 
 358   0.0000       1.322251        35.9803 
 359   0.0000       1.325719        36.0746 
 360   0.0000       1.332029        36.2463 
 361   0.0000       1.339345        36.4454 
 362   0.0000       1.342783        36.5390 
 363   0.0000       1.349746        36.7284 
 364   0.0000       1.354036        36.8452 
 365   0.0000       1.355448        36.8836 
 366   0.0000       1.362773        37.0829 
 367   0.0000       1.366970        37.1971 
 368   0.0000       1.381235        37.5853 
 369   0.0000       1.384582        37.6764 
 370   0.0000       1.385642        37.7052 
 371   0.0000       1.388390        37.7800 
 372   0.0000       1.395756        37.9805 
 373   0.0000       1.398077        38.0436 
 374   0.0000       1.405998        38.2591 
 375   0.0000       1.414249        38.4837 
 376   0.0000       1.422162        38.6990 
 377   0.0000       1.427351        38.8402 
 378   0.0000       1.430370        38.9224 
 379   0.0000       1.436106        39.0784 
 380   0.0000       1.437686        39.1214 
 381   0.0000       1.450262        39.4636 
 382   0.0000       1.452418        39.5223 
 383   0.0000       1.456340        39.6290 
 384   0.0000       1.460039        39.7297 
 385   0.0000       1.471716        40.0474 
 386   0.0000       1.480180        40.2778 
 387   0.0000       1.485162        40.4133 
 388   0.0000       1.488958        40.5166 
 389   0.0000       1.491216        40.5780 
 390   0.0000       1.497637        40.7528 
 391   0.0000       1.507408        41.0187 
 392   0.0000       1.511084        41.1187 
 393   0.0000       1.518696        41.3258 
 394   0.0000       1.520571        41.3768 
 395   0.0000       1.531343        41.6700 
 396   0.0000       1.542512        41.9739 
 397   0.0000       1.547287        42.1038 
 398   0.0000       1.552152        42.2362 
 399   0.0000       1.558593        42.4115 
 400   0.0000       1.559297        42.4306 
 401   0.0000       1.570236        42.7283 
 402   0.0000       1.573414        42.8148 
 403   0.0000       1.579372        42.9769 
 404   0.0000       1.583359        43.0854 
 405   0.0000       1.591181        43.2982 
 406   0.0000       1.593354        43.3574 
 407   0.0000       1.597214        43.4624 
 408   0.0000       1.602594        43.6088 
 409   0.0000       1.605195        43.6796 
 410   0.0000       1.614469        43.9319 
 411   0.0000       1.616626        43.9906 
 412   0.0000       1.631729        44.4016 
 413   0.0000       1.636103        44.5206 
 414   0.0000       1.641020        44.6544 
 415   0.0000       1.643067        44.7101 
 416   0.0000       1.652917        44.9782 
 417   0.0000       1.660295        45.1789 
 418   0.0000       1.662566        45.2407 
 419   0.0000       1.665902        45.3315 
 420   0.0000       1.675723        45.5987 
 421   0.0000       1.676415        45.6176 
 422   0.0000       1.683716        45.8162 
 423   0.0000       1.688483        45.9460 
 424   0.0000       1.690608        46.0038 
 425   0.0000       1.695558        46.1385 
 426   0.0000       1.706591        46.4387 
 427   0.0000       1.712542        46.6006 
 428   0.0000       1.716657        46.7126 
 429   0.0000       1.723923        46.9103 
 430   0.0000       1.729226        47.0546 
 431   0.0000       1.732402        47.1411 
 432   0.0000       1.732708        47.1494 
 433   0.0000       1.743997        47.4566 
 434   0.0000       1.746469        47.5238 
 435   0.0000       1.747970        47.5647 
 436   0.0000       1.760577        47.9077 
 437   0.0000       1.765928        48.0534 
 438   0.0000       1.770673        48.1825 
 439   0.0000       1.770846        48.1872 
 440   0.0000       1.774190        48.2782 
 441   0.0000       1.780046        48.4375 
 442   0.0000       1.790278        48.7159 
 443   0.0000       1.791779        48.7568 
 444   0.0000       1.798233        48.9324 
 445   0.0000       1.805540        49.1313 
 446   0.0000       1.808168        49.2028 
 447   0.0000       1.810479        49.2656 
 448   0.0000       1.815789        49.4101 
 449   0.0000       1.818496        49.4838 
 450   0.0000       1.819980        49.5242 
 451   0.0000       1.826736        49.7080 
 452   0.0000       1.831853        49.8473 
 453   0.0000       1.835750        49.9533 
 454   0.0000       1.842380        50.1337 
 455   0.0000       1.851871        50.3920 
 456   0.0000       1.852797        50.4172 
 457   0.0000       1.862162        50.6720 
 458   0.0000       1.864876        50.7459 
 459   0.0000       1.872419        50.9511 
 460   0.0000       1.881198        51.1900 
 461   0.0000       1.882232        51.2181 
 462   0.0000       1.891090        51.4592 
 463   0.0000       1.898558        51.6624 
 464   0.0000       1.900323        51.7104 
 465   0.0000       1.909777        51.9677 
 466   0.0000       1.912409        52.0393 
 467   0.0000       1.914688        52.1013 
 468   0.0000       1.916061        52.1387 
 469   0.0000       1.918110        52.1944 
 470   0.0000       1.924712        52.3741 
 471   0.0000       1.937569        52.7239 
 472   0.0000       1.941140        52.8211 
 473   0.0000       1.943729        52.8916 
 474   0.0000       1.948572        53.0233 
 475   0.0000       1.957929        53.2779 
 476   0.0000       1.963977        53.4425 
 477   0.0000       1.968972        53.5785 
 478   0.0000       1.977045        53.7981 
 479   0.0000       1.981336        53.9149 
 480   0.0000       1.987861        54.0924 
 481   0.0000       1.994669        54.2777 
 482   0.0000       1.998688        54.3871 
 483   0.0000       2.006643        54.6035 
 484   0.0000       2.009035        54.6686 
 485   0.0000       2.017711        54.9047 
 486   0.0000       2.019185        54.9448 
 487   0.0000       2.025193        55.1083 
 488   0.0000       2.030538        55.2538 
 489   0.0000       2.033313        55.3293 
 490   0.0000       2.041639        55.5558 
 491   0.0000       2.047091        55.7042 
 492   0.0000       2.049508        55.7699 
 493   0.0000       2.058184        56.0060 
 494   0.0000       2.062583        56.1257 
 495   0.0000       2.067640        56.2633 
 496   0.0000       2.071759        56.3754 
 497   0.0000       2.081250        56.6337 
 498   0.0000       2.083463        56.6939 
 499   0.0000       2.089478        56.8576 
 500   0.0000       2.091602        56.9154 
 501   0.0000       2.096789        57.0565 
 502   0.0000       2.108022        57.3622 
 503   0.0000       2.113823        57.5201 
 504   0.0000       2.119747        57.6812 
 505   0.0000       2.128535        57.9204 
 506   0.0000       2.132491        58.0280 
 507   0.0000       2.135755        58.1168 
 508   0.0000       2.141616        58.2763 
 509   0.0000       2.142831        58.3094 
 510   0.0000       2.151558        58.5469 
 511   0.0000       2.154930        58.6386 
 512   0.0000       2.160497        58.7901 
 513   0.0000       2.171933        59.1013 
 514   0.0000       2.181499        59.3616 
 515   0.0000       2.184064        59.4314 
 516   0.0000       2.189954        59.5917 
 517   0.0000       2.199849        59.8609 
 518   0.0000       2.201708        59.9115 
 519   0.0000       2.219319        60.3907 
 520   0.0000       2.222238        60.4702 
 521   0.0000       2.229116        60.6573 
 522   0.0000       2.230909        60.7061 
 523   0.0000       2.242091        61.0104 
 524   0.0000       2.248182        61.1761 
 525   0.0000       2.249295        61.2064 
 526   0.0000       2.253973        61.3337 
 527   0.0000       2.270141        61.7737 
 528   0.0000       2.273064        61.8532 
 529   0.0000       2.276607        61.9496 
 530   0.0000       2.290205        62.3196 
 531   0.0000       2.291069        62.3432 
 532   0.0000       2.305339        62.7315 
 533   0.0000       2.305890        62.7465 
 534   0.0000       2.315648        63.0120 
 535   0.0000       2.326791        63.3152 
 536   0.0000       2.331386        63.4402 
 537   0.0000       2.335579        63.5543 
 538   0.0000       2.341127        63.7053 
 539   0.0000       2.350129        63.9503 
 540   0.0000       2.356650        64.1277 
 541   0.0000       2.362874        64.2971 
 542   0.0000       2.373189        64.5778 
 543   0.0000       2.375105        64.6299 
 544   0.0000       2.384206        64.8775 
 545   0.0000       2.397440        65.2377 
 546   0.0000       2.408880        65.5490 
 547   0.0000       2.413851        65.6842 
 548   0.0000       2.421378        65.8891 
 549   0.0000       2.424962        65.9866 
 550   0.0000       2.434362        66.2424 
 551   0.0000       2.438410        66.3525 
 552   0.0000       2.442749        66.4706 
 553   0.0000       2.458661        66.9036 
 554   0.0000       2.467234        67.1369 
 555   0.0000       2.469376        67.1951 
 556   0.0000       2.475253        67.3551 
 557   0.0000       2.481687        67.5301 
 558   0.0000       2.494321        67.8739 
 559   0.0000       2.505462        68.1771 
 560   0.0000       2.511000        68.3278 
 561   0.0000       2.520082        68.5749 
 562   0.0000       2.525353        68.7184 
 563   0.0000       2.531036        68.8730 
 564   0.0000       2.534519        68.9678 
 565   0.0000       2.541864        69.1676 
 566   0.0000       2.544113        69.2288 
 567   0.0000       2.563276        69.7503 
 568   0.0000       2.566783        69.8457 
 569   0.0000       2.568891        69.9031 
 570   0.0000       2.577019        70.1242 
 571   0.0000       2.597090        70.6704 
 572   0.0000       2.608661        70.9853 
 573   0.0000       2.611726        71.0687 
 574   0.0000       2.617279        71.2198 
 575   0.0000       2.620896        71.3182 
 576   0.0000       2.638716        71.8031 
 577   0.0000       2.642020        71.8930 
 578   0.0000       2.647367        72.0385 
 579   0.0000       2.657252        72.3075 
 580   0.0000       2.669716        72.6467 
 581   0.0000       2.683406        73.0192 
 582   0.0000       2.693906        73.3049 
 583   0.0000       2.698907        73.4410 
 584   0.0000       2.710887        73.7670 
 585   0.0000       2.720043        74.0161 
 586   0.0000       2.726564        74.1936 
 587   0.0000       2.748559        74.7921 
 588   0.0000       2.757793        75.0434 
 589   0.0000       2.762775        75.1789 
 590   0.0000       2.774188        75.4895 
 591   0.0000       2.778593        75.6094 
 592   0.0000       2.795991        76.0828 
 593   0.0000       2.809885        76.4609 
 594   0.0000       2.820643        76.7536 
 595   0.0000       2.831000        77.0354 
 596   0.0000       2.842455        77.3471 
 597   0.0000       2.849113        77.5283 
 598   0.0000       2.878056        78.3159 
 599   0.0000       2.881291        78.4039 
 600   0.0000       2.897441        78.8434 
 601   0.0000       2.972430        80.8839 
 602   0.0000       3.004186        81.7481 
 603   0.0000       3.085237        83.9536 
 604   0.0000       3.095333        84.2283 
 605   0.0000       3.123832        85.0038 
 606   0.0000       3.151041        85.7442 
 607   0.0000       3.183382        86.6242 
 608   0.0000       3.200786        87.0978 
 609   0.0000       3.232222        87.9532 
 610   0.0000       3.249784        88.4311 
 611   0.0000       3.275279        89.1249 
 612   0.0000       3.293385        89.6176 
 613   0.0000       3.318026        90.2881 
 614   0.0000       3.376306        91.8739 
 615   0.0000       3.382893        92.0532 
 616   0.0000       3.390640        92.2640 
 617   0.0000       3.408011        92.7367 
 618   0.0000       3.428674        93.2990 
 619   0.0000       3.447959        93.8237 
 620   0.0000       3.466175        94.3194 
 621   0.0000       3.483568        94.7927 
 622   0.0000       3.493845        95.0724 
 623   0.0000       3.501726        95.2868 
 624   0.0000       3.506139        95.4069 
 625   0.0000       3.521350        95.8208 
 626   0.0000       3.527836        95.9973 
 627   0.0000       3.541905        96.3801 
 628   0.0000       3.553242        96.6886 
 629   0.0000       3.573429        97.2380 
 630   0.0000       3.587196        97.6126 
 631   0.0000       3.592031        97.7441 
 632   0.0000       3.598898        97.9310 
 633   0.0000       3.612105        98.2904 
 634   0.0000       3.612622        98.3044 
 635   0.0000       3.623566        98.6022 
 636   0.0000       3.629831        98.7727 
 637   0.0000       3.634927        98.9114 
 638   0.0000       3.643628        99.1482 
 639   0.0000       3.652148        99.3800 
 640   0.0000       3.664264        99.7097 
 641   0.0000       3.679645       100.1282 
 642   0.0000       3.683685       100.2382 
 643   0.0000       3.688290       100.3635 
 644   0.0000       3.700125       100.6855 
 645   0.0000       3.705612       100.8348 
 646   0.0000       3.716478       101.1305 
 647   0.0000       3.717409       101.1558 
 648   0.0000       3.724064       101.3369 
 649   0.0000       3.736433       101.6735 
 650   0.0000       3.748939       102.0138 
 651   0.0000       3.768479       102.5455 
 652   0.0000       3.769310       102.5681 
 653   0.0000       3.774857       102.7191 
 654   0.0000       3.788917       103.1017 
 655   0.0000       3.792243       103.1922 
 656   0.0000       3.798777       103.3700 
 657   0.0000       3.811498       103.7161 
 658   0.0000       3.818589       103.9091 
 659   0.0000       3.825965       104.1098 
 660   0.0000       3.831930       104.2721 
 661   0.0000       3.840189       104.4968 
 662   0.0000       3.844344       104.6099 
 663   0.0000       3.864135       105.1484 
 664   0.0000       3.868650       105.2713 
 665   0.0000       3.872415       105.3738 
 666   0.0000       3.877120       105.5018 
 667   0.0000       3.884850       105.7121 
 668   0.0000       3.885233       105.7226 
 669   0.0000       3.891276       105.8870 
 670   0.0000       3.899105       106.1000 
 671   0.0000       3.905171       106.2651 
 672   0.0000       3.913925       106.5033 
 673   0.0000       3.921798       106.7176 
 674   0.0000       3.924977       106.8041 
 675   0.0000       3.929490       106.9269 
 676   0.0000       3.933622       107.0393 
 677   0.0000       3.946025       107.3768 
 678   0.0000       3.951202       107.5177 
 679   0.0000       3.959825       107.7523 
 680   0.0000       3.968281       107.9824 
 681   0.0000       3.972984       108.1104 
 682   0.0000       3.978300       108.2550 
 683   0.0000       3.983454       108.3953 
 684   0.0000       3.986244       108.4712 
 685   0.0000       3.994689       108.7010 
 686   0.0000       3.999314       108.8269 
 687   0.0000       4.007991       109.0630 
 688   0.0000       4.010292       109.1256 
 689   0.0000       4.016073       109.2829 
 690   0.0000       4.023583       109.4873 
 691   0.0000       4.031018       109.6896 
 692   0.0000       4.040353       109.9436 
 693   0.0000       4.045626       110.0871 
 694   0.0000       4.054162       110.3194 
 695   0.0000       4.058834       110.4465 
 696   0.0000       4.059550       110.4660 
 697   0.0000       4.066989       110.6684 
 698   0.0000       4.071683       110.7961 
 699   0.0000       4.077592       110.9569 
 700   0.0000       4.090386       111.3051 
 701   0.0000       4.091914       111.3467 
 702   0.0000       4.101927       111.6191 
 703   0.0000       4.108799       111.8061 
 704   0.0000       4.111026       111.8667 
 705   0.0000       4.117680       112.0478 
 706   0.0000       4.126053       112.2756 
 707   0.0000       4.128916       112.3535 
 708   0.0000       4.142725       112.7293 
 709   0.0000       4.144981       112.7907 
 710   0.0000       4.151677       112.9729 
 711   0.0000       4.160234       113.2057 
 712   0.0000       4.165718       113.3549 
 713   0.0000       4.174106       113.5832 
 714   0.0000       4.181179       113.7757 
 715   0.0000       4.194065       114.1263 
 716   0.0000       4.197047       114.2075 
 717   0.0000       4.205031       114.4247 
 718   0.0000       4.208000       114.5055 
 719   0.0000       4.222382       114.8969 
 720   0.0000       4.226795       115.0169 
 721   0.0000       4.236256       115.2744 
 722   0.0000       4.243017       115.4584 
 723   0.0000       4.247623       115.5837 
 724   0.0000       4.254176       115.7620 
 725   0.0000       4.258732       115.8860 
 726   0.0000       4.267030       116.1118 
 727   0.0000       4.270780       116.2138 
 728   0.0000       4.280915       116.4896 
 729   0.0000       4.289329       116.7186 
 730   0.0000       4.300290       117.0168 
 731   0.0000       4.304711       117.1371 
 732   0.0000       4.311659       117.3262 
 733   0.0000       4.322551       117.6226 
 734   0.0000       4.328489       117.7842 
 735   0.0000       4.333832       117.9296 
 736   0.0000       4.334491       117.9475 
 737   0.0000       4.341321       118.1333 
 738   0.0000       4.358857       118.6105 
 739   0.0000       4.365980       118.8044 
 740   0.0000       4.369332       118.8956 
 741   0.0000       4.372454       118.9805 
 742   0.0000       4.378987       119.1583 
 743   0.0000       4.391859       119.5086 
 744   0.0000       4.395721       119.6136 
 745   0.0000       4.412124       120.0600 
 746   0.0000       4.418635       120.2372 
 747   0.0000       4.430219       120.5524 
 748   0.0000       4.431929       120.5989 
 749   0.0000       4.448925       121.0614 
 750   0.0000       4.457875       121.3049 
 751   0.0000       4.462043       121.4184 
 752   0.0000       4.477538       121.8400 
 753   0.0000       4.480054       121.9085 
 754   0.0000       4.485050       122.0444 
 755   0.0000       4.494013       122.2883 
 756   0.0000       4.498084       122.3991 
 757   0.0000       4.513666       122.8231 
 758   0.0000       4.526010       123.1590 
 759   0.0000       4.536773       123.4519 
 760   0.0000       4.542599       123.6104 
 761   0.0000       4.555197       123.9532 
 762   0.0000       4.558826       124.0520 
 763   0.0000       4.569057       124.3304 
 764   0.0000       4.571351       124.3928 
 765   0.0000       4.577441       124.5585 
 766   0.0000       4.583989       124.7367 
 767   0.0000       4.601536       125.2142 
 768   0.0000       4.619857       125.7127 
 769   0.0000       4.629270       125.9688 
 770   0.0000       4.633925       126.0955 
 771   0.0000       4.648159       126.4828 
 772   0.0000       4.657935       126.7489 
 773   0.0000       4.665390       126.9517 
 774   0.0000       4.676611       127.2571 
 775   0.0000       4.686526       127.5269 
 776   0.0000       4.699618       127.8831 
 777   0.0000       4.708479       128.1242 
 778   0.0000       4.714310       128.2829 
 779   0.0000       4.721639       128.4823 
 780   0.0000       4.736738       128.8932 
 781   0.0000       4.739281       128.9624 
 782   0.0000       4.752098       129.3112 
 783   0.0000       4.761613       129.5701 
 784   0.0000       4.781709       130.1169 
 785   0.0000       4.785915       130.2314 
 786   0.0000       4.789441       130.3273 
 787   0.0000       4.800998       130.6418 
 788   0.0000       4.803337       130.7054 
 789   0.0000       4.811821       130.9363 
 790   0.0000       4.826933       131.3475 
 791   0.0000       4.843756       131.8053 
 792   0.0000       4.849731       131.9679 
 793   0.0000       4.854102       132.0868 
 794   0.0000       4.857241       132.1722 
 795   0.0000       4.863083       132.3312 
 796   0.0000       4.875935       132.6809 
 797   0.0000       4.882817       132.8682 
 798   0.0000       4.886284       132.9625 
 799   0.0000       4.897212       133.2599 
 800   0.0000       4.906754       133.5196 
 801   0.0000       4.913842       133.7124 
 802   0.0000       4.917923       133.8235 
 803   0.0000       4.927804       134.0924 
 804   0.0000       4.932103       134.2093 
 805   0.0000       4.951860       134.7470 
 806   0.0000       4.957274       134.8943 
 807   0.0000       4.979122       135.4888 
 808   0.0000       4.982273       135.5745 
 809   0.0000       5.003950       136.1644 
 810   0.0000       5.008712       136.2940 
 811   0.0000       5.013802       136.4325 
 812   0.0000       5.024180       136.7149 
 813   0.0000       5.041532       137.1871 
 814   0.0000       5.047636       137.3531 
 815   0.0000       5.054227       137.5325 
 816   0.0000       5.059559       137.6776 
 817   0.0000       5.073369       138.0534 
 818   0.0000       5.080257       138.2408 
 819   0.0000       5.087970       138.4507 
 820   0.0000       5.092862       138.5838 
 821   0.0000       5.113558       139.1470 
 822   0.0000       5.115790       139.2077 
 823   0.0000       5.137295       139.7929 
 824   0.0000       5.141064       139.8955 
 825   0.0000       5.143971       139.9746 
 826   0.0000       5.154314       140.2560 
 827   0.0000       5.168206       140.6340 
 828   0.0000       5.173570       140.7800 
 829   0.0000       5.184690       141.0826 
 830   0.0000       5.200888       141.5233 
 831   0.0000       5.212726       141.8455 
[...]

Thresholds for map construction and integral transformation for strong Triples:
   TCutMKN   ...     1.0e-02
   TCutDO    ...     1.0e-02
   TCutCMO   ...     1.0e-03
   TCutCPAO  ...     1.0e-03

Thresholds for map construction and integral transformation for weak Triples:
   TCutMKN   ...     1.0e-01
   TCutDO    ...     2.0e-02
   TCutCMO   ...     1.0e-03
   TCutCPAO  ...     1.0e-03

--------------------------------
LOCAL RI TRANSFORMATION (IAVPAO)
--------------------------------

Orbital window:      11 to 44
Number of PAOs:     989
Basis functions:    989 (343 shells)
Aux. functions:    2132 (602 shells)
Use SHARK:           on

Processing maps (0.0 sec)
Average map sizes:
   Aux shells -> MOs              34.0
   Aux shells -> PAOs            989.0
   MOs        -> AO shells       343.0
   PAOs       -> AO shells       343.0

Calculating integrals (5.5 sec, 546.981 MB)
Sorting integrals (1.1 sec, 546.957 MB)
Total time for the integral transformation: 6.8 sec
--------------------------------
INITIAL GUESS AND PNO GENERATION
--------------------------------

PNO truncation parameters                   .... 
    ScaleTCutPNO       =        1.000e-02
    PAOOverlapThresh   =        1.000e-08

    TCutPairs          =        1.000e-05
    TCutPNO            =        1.000e-07
    TCutPNOSingles     =        3.000e-09
    TCutMP2Pairs       =        1.000e-06
    TCutMKN            =        1.000e-03
    TCutDO             =        5.000e-03

Pair selection                          .... not used
Type of local MP2 treatment                 .... full local PMP2
Strategy for PNO selection                  .... occupation number selection
Pair density normalization                  .... MP2 norm
Spin component scaling                      .... not used

PASS-1: Formation of initial guess LMP2 amplitudes
Initial amplitudes guess done. Entering LMP2 iteration loop:
   Max. no of iterations          ...  50
   Energy convergence tolerance   ...    1.0e-07
   Residual convergence tolerance ...    5.0e-07
   Fock matrix cutoff             ...    1.0e-05 Eh
   DIIS convergence acceleration parameters:
        Max # vectors in DIIS     ... 7
        Start iteration of DIIS   ... 0
        Levelshift                ... 2.000e-01
        Damping factor 1          ... 5.000e-01
        Damping factor 2          ... 1.000e+00
   L-MP2 PNO cut-off              ...   1.0e-09
   L-MP2 PNO cut-off (core)       ...   1.0e-11
                           *** Turning on DIIS ***
LMP2-Iter=   0:  ELMP2= -2.036569707850  DE=   3.5e-02 RMAX=   6.3e-03
LMP2-Iter=   1:  ELMP2= -2.054055376098  DE=   1.7e-02 RMAX=   4.4e-03
LMP2-Iter=   2:  ELMP2= -2.056628218630  DE=   2.6e-03 RMAX=   7.3e-04
LMP2-Iter=   3:  ELMP2= -2.056887150588  DE=   2.6e-04 RMAX=   3.8e-04
LMP2-Iter=   4:  ELMP2= -2.056906591488  DE=   1.9e-05 RMAX=   3.5e-05
LMP2-Iter=   5:  ELMP2= -2.056904252019  DE=   2.3e-06 RMAX=   1.3e-05
LMP2-Iter=   6:  ELMP2= -2.056903797366  DE=   4.5e-07 RMAX=   9.1e-07
LMP2-Iter=   7:  ELMP2= -2.056903771222  DE=   2.6e-08 RMAX=   3.4e-07
LMP2-Iter=   8:  ELMP2= -2.056903783411  DE=   1.2e-08 RMAX=   3.9e-08 => CONVERGED
PASS-2: Formation of Pair natural orbitals
   .... Finished loop over pairs

 PNO Occupation Number Statistics: 
  | Av. % of trace(Dij) retained        ...  98.833648005946
  | sigma^2 in % of trace(Dij) retained ...   1.08e+00
  | Av. % of trace(Di) retained         ...  99.999553800862
  | sigma^2 in % of trace(Di) retained  ...   1.08e-08
 Distributions of % trace(Dij) recovered:
  |       >= 99.9  ...   101 ( 17.0 % of all pairs)
  |   [90.0, 99.0) ...   264 ( 44.4 % of all pairs)
  |   [99.0, 99.9) ...   230 ( 38.7 % of all pairs)
 Distributions of % trace(Di) recovered :
  |       >= 99.9  ...    34 (100.0 % of all I-pairs )

Making pair pair interaction lists          ... done

                       ===========================
                        517 OF  595 PAIRS ARE KEPT
                       ===========================

Total time spent in the initial guess                 ...   137.746 sec
L-MP2 correlation energy (all non-screened pairs)     ...      -2.056903783411 Eh
L-MP2 PNO error correction                            ...      -0.000084536568 Eh
                                                          --------------------
Initial total L-MP2 energy (non-screened pairs)       ...      -2.056988319979 Eh

Initial PNO correlation energy                        ...      -2.053820761199 Eh
sum of pair energies estimated for screened out pairs ...       0.000000000000 Eh
sum of MP2 pair energies for pairs that were not kept ...      -0.000610646522 Eh
sum of PNO error estimates for the kept pairs         ...      -0.002765945879 Eh
                                                          --------------------
sum of all corrections                                         -0.003376592401
Initial total correlation energy                               -2.057197353600
Thresholds for map construction and integral transformation for fine MP2 and CCSD(T) calculation:
   TCutMKN   ...     1.0e-03
   TCutDO    ...     5.0e-03
   TCutPairs ...     1.0e-05
   TCutCMO   ...     1.0e-03
   TCutCPAO  ...     1.0e-03

Time for aux screen maps:            0.021
Time for maps after fine MP2:            0.080
-----------------------------
LOCAL RI TRANSFORMATION (IJV)
-----------------------------

Orbital window:      11 to 44
Basis functions:    989 (343 shells)
Aux. functions:    2132 (602 shells)
Use SHARK:           on

Processing maps (0.0 sec)
Average map sizes:
   Aux shells -> MOs(i)           34.0
   Aux shells -> MOs(j)           34.0
   MOs        -> AO shells       343.0

Calculating integrals (4.9 sec, 18.828 MB)
Sorting integrals (0.1 sec, 18.804 MB)
Total time for the integral transformation: 5.0 sec
--------------------------------
LOCAL RI TRANSFORMATION (VABPAO)
--------------------------------

Number of PAOs:     989
Basis functions:    989 (343 shells)
Aux. functions:    2132 (602 shells)
Use SHARK:           on

Processing maps (0.0 sec)
Average map sizes:
   Aux shells -> PAOs            989.0
   PAOs       -> AO shells       343.0

Calculating integrals (19.7 sec, 15910.013 MB)
Finished


-------------------------------------
Pair Pair Term precalculation with     
RI-(ij|mn) and (im|jn) transformation  
ON THE FLY                             
-------------------------------------

   IBatch   1 (of   1)              ... done ( 1041.003 sec)
Total EXT                           ...        1041.003 sec

---------------------
RI-PNO TRANSFORMATION
---------------------

Total Number of PNOs                   ... 18045
Average number of PNOs per pair        ...    34
Maximal number of PNOs per pair        ...    80
   #pairs with  1 -  5 PNOs   :    0
   #pairs with  6 - 10 PNOs   :  127
   #pairs with 11 - 15 PNOs   :   48
   #pairs with 16 - 20 PNOs   :   28
   #pairs with 21 - 25 PNOs   :   24
   #pairs with 26 - 30 PNOs   :   42
   #pairs with 31 - 35 PNOs   :   32
   #pairs with 36 - 40 PNOs   :   17
   #pairs with 41 - 45 PNOs   :   10
   #pairs with 46 - 50 PNOs   :   14
   #pairs with 51 - 55 PNOs   :   38
   #pairs with 56 - 60 PNOs   :   38
   #pairs with 61 - 65 PNOs   :   24
   #pairs with 66 - 70 PNOs   :    9
   #pairs with 71 - 75 PNOs   :   13
   #pairs with 76 - 80 PNOs   :   53

Generation of (ij|ab)[P] integrals            ... on
Generation of (ia|bc)[P],(ja|bc)[P] integrals ... on
Storage of 3 and 4 external integrals         ... on
Generation of ALL (ka|bc)[P] integrals        ... on
Keep RI integrals in memory                   ... off

Ibatch:  1 (of  1)
Starting 2-4 index PNO integral generation ... done

Timings:
Total PNO integral transformation time     ...        767.666 sec
Size of the 3-external file                ...       452 MB
Size of the 4-external file                ...      3814 MB
Size of the IKJL file                      ...         0 MB
Size of the all 3-external file            ...      7691 MB
Size of the 1-external file                ...        14 MB

Making pair/pair overlap matrices          ... done (   82.816 sec)
Size of the pair overlap file              ... 1850 MB
Redoing the guess amplitudes               ... done (    0.020 sec)

-------------------------
FINAL STARTUP INFORMATION
-------------------------

E(0)                                       ...   -490.450799138
E(L-MP2)                                   ...     -2.056988320
E(L-MP2) including corrections             ...     -2.057197354
Initial E(tot)                             ...   -492.507996492
<T|T>                                      ...      0.550952162
Number of pairs included                   ... 517
Total number of pairs                      ... 595

------------------------------------------------
                  RHF COUPLED CLUSTER ITERATIONS
------------------------------------------------

Number of PNO amplitudes to be optimized   ...       945379
Number of non-PNO amplitudes               ...    460717312
Untruncated number of regular amplitudes   ...    530225920

Iter       E(tot)           E(Corr)          Delta-E          Residual     Time
  0   -492.451763183     -1.997587452      0.059400868      0.021861701   44.09
                           *** Turning on DIIS ***
  1   -492.546827578     -2.092651847     -0.095064395      0.011745606   45.81
  2   -492.598124684     -2.143948953     -0.051297106      0.002970619   48.22
  3   -492.606841800     -2.152666069     -0.008717116      0.001859775   48.92
  4   -492.608679712     -2.154503981     -0.001837912      0.000551222   49.31
  5   -492.609051419     -2.154875688     -0.000371707      0.000228601   48.56
  6   -492.609129510     -2.154953779     -0.000078091      0.000072866   50.04
  7   -492.609137317     -2.154961586     -0.000007806      0.000047283   57.52
  8   -492.609140284     -2.154964553     -0.000002967      0.000017928   59.93
  9   -492.609138957     -2.154963226      0.000001327      0.000008829   58.03
               --- The Coupled-Cluster iterations have converged ---

----------------------
COUPLED CLUSTER ENERGY
----------------------

E(0)                                       ...   -490.450799138
E(CORR)(strong-pairs)                      ...     -2.154963226
E(CORR)(weak-pairs)                        ...     -0.003376592
E(CORR)(corrected)                         ...     -2.158339819
E(TOT)                                     ...   -492.609138957
Singles Norm <S|S>**1/2                    ...      0.074490627  
T1 diagnostic                              ...      0.009033315  

------------------
LARGEST AMPLITUDES
------------------
  38-> 45  38-> 45       0.048430
  40-> 45  40-> 45       0.039678
  21-> 45  21-> 45       0.035630
  23-> 45  23-> 45       0.035342
  29-> 45  29-> 45       0.034476
  39-> 45  39-> 45       0.034062
  32-> 45  32-> 45       0.033479
  35-> 45  35-> 45       0.032341
  24-> 54  24-> 54       0.031797
  44-> 55  44-> 55       0.031739
  36-> 54  36-> 54       0.031623
  31-> 54  31-> 54       0.031495
  22-> 54  22-> 54       0.031118
  28-> 45  28-> 45       0.031082
  36-> 45  36-> 45       0.030910
  35-> 54  35-> 54       0.030797


-------------------------------------------
DLPNO BASED TRIPLES CORRECTION
-------------------------------------------

Singles multiplier          ...  1.000000
TCutTNO                     ... 1.000e-09
TCutMP2Pairs                ... 1.000e-06
TCutDOStrong                ... 1.000e-02
TCutMKNStrong               ... 1.000e-02
TCutDOWeak                  ... 2.000e-02
TCutMKNWeak                 ... 1.000e-01

Fragment selection                          .... not used
Number of Triples that are to be computed   ...      6453

 . . . . . . . . .
10% done  
20% done  
30% done  
40% done  
50% done  
60% done  
70% done  
80% done  
90% done               (   6863.484 sec)
Triples timings:
Total time for T0               ...  7230.212 sec
Total time for Iterative (T)    ...     0.000 sec
Total time of overall (T)       ...  8391.257 sec

Triples List generation         ...     0.000 sec
TNO generation                  ...   366.640 sec
Pair density generation         ...     0.023 sec
Look up tables                  ...     0.000 sec
Generating 3-index integrals    ...  6395.870 sec
  Make 4-ind.int. from 3-ind.int...    82.097 sec
  Projecting amplitudes (D + S) ...   334.902 sec
  Downprojecting integrals      ...     0.008 sec
  Energy contr. (sum over a,b,c)...    14.579 sec
Fitting ET(->0)                 ...     0.000 sec

Everything after 3-index        ...   467.614 sec

Timing details:
 TNO integrals                  ...  6464.798 sec
   Reading 3-index integrals    ...    13.638 sec
   Sorting integrals            ...   536.477 sec
       Sorting integrals 1      ...     0.012 sec
       Sorting integrals 2      ...   510.813 sec
       Sorting integrals 3      ...     6.560 sec
       Sorting integrals 4      ...     0.248 sec
       Sorting integrals 5      ...     2.735 sec
       Sorting integrals 6      ...    16.110 sec
   Calculating local VM**-1/2   ...    13.127 sec
   Orthogonal. integrals        ...    12.930 sec
   Multipl. 3-index integrals   ...  5888.626 sec
   All concerning IRIab (w/TNO) ...    37.868 sec

 Calculate W0/W1                ...    35.931 sec
 W 3-ext contribution           ...    17.852 sec
 W 3-int contribution           ...     6.715 sec
 Sorting W                      ...    10.892 sec

 V exchange contribution        ...     5.132 sec

 Timings for Triples without generation
     of 3-index integrals       ...   467.607 sec
       0 weak pairs             ...   385.593 sec
       1 weak pair              ...    82.014 sec
       2 weak pairs             ...     0.000 sec
       3 weak pairs             ...     0.000 sec
  Extra time for extrapolation  ...     0.000 sec

Number of Triples   (0, 1, 2, 3 weak pairs; overall):   4951    1502       0       0  (  6453)
Number of Atoms     (0, 1, 2, 3 weak pairs; overall):   29.4    28.3     0.0     0.0  (    32)
Number of PAOs      (0, 1, 2, 3 weak pairs; overall):  921.7   894.4     0.0     0.0  (   989)
Number of AuxFcns   (0, 1, 2, 3 weak pairs; overall):  937.5   481.5     0.0     0.0  (  2132)
Number of TNOs      (0, 1, 2, 3 weak pairs         ):   92.5    60.6     0.0     0.0
Aver. Number of NTNO, Atoms, PAOs, AuxFcns / Triples:   6453    85.1    29.1   915.3   831.3

Triples Correction (T)                     ...     -0.083580759
Final correlation energy                   ...     -2.241920578
E(CCSD)                                    ...   -492.609138957
E(CCSD(T))                                 ...   -492.692719716



------------------------------------------------------------------------------- 
                                     TIMINGS                                   
------------------------------------------------------------------------------- 


Total execution time                   ...    11084.162 sec

Localization of occupied MO's          ...        1.804 sec (  0.0%)
Fock Matrix Formation                  ...       20.525 sec (  0.2%)
Global overlap, Fock, MKN matrices     ...        1.490 sec (  0.0%)
Differential overlap integrals         ...        2.267 sec (  0.0%)
Organizing maps                        ...        0.210 sec (  0.0%)
RI 3-index integral generations        ...       38.358 sec (  0.3%)
RI-PNO integral transformation         ...     1937.341 sec ( 17.5%)
Initial Guess                          ...      177.458 sec (  1.6%)
DIIS Solver                            ...        5.708 sec (  0.1%)
State Vector Update                    ...        0.076 sec (  0.0%)
Sigma-vector construction              ...      509.510 sec (  4.6%)
  <0|H|D>                              ...        0.001 sec (  0.0% of sigma)
  <D|H|D>(0-ext)                       ...       10.257 sec (  2.0% of sigma)
  <D|H|D>(2-ext Fock)                  ...        0.017 sec (  0.0% of sigma)
  <D|H|D>(2-ext)                       ...      229.459 sec ( 45.0% of sigma)
  <D|H|D>(4-ext)                       ...       32.660 sec (  6.4% of sigma)
  <D|H|D>(4-ext-corr)                  ...      160.726 sec ( 31.5% of sigma)
  CCSD doubles correction              ...        0.543 sec (  0.1% of sigma)
  <S|H|S>                              ...        1.107 sec (  0.2% of sigma)
  <S|H|D>(1-ext)                       ...        0.910 sec (  0.2% of sigma)
  <D|H|S>(1-ext)                       ...        0.019 sec (  0.0% of sigma)
  <S|H|D>(3-ext)                       ...        0.702 sec (  0.1% of sigma)
  Fock-dressing                        ...       50.111 sec (  9.8% of sigma)
  Singles amplitudes                   ...        3.578 sec (  0.7% of sigma)
  (ik|jl)-dressing                     ...        7.399 sec (  1.5% of sigma)
  (ij|ab),(ia|jb)-dressing             ...        3.830 sec (  0.8% of sigma)
  Pair energies                        ...        0.022 sec (  0.0% of sigma)
Total Time for computing (T)           ...     8391.442 sec ( 75.7% of ALL)


Maximum memory used throughout the entire MDCI-calculation: 24070.5 MB

-------------------------   --------------------
FINAL SINGLE POINT ENERGY      -492.692719716462
-------------------------   --------------------


                            ***************************************
                            *     ORCA property calculations      *
                            ***************************************


  WARNING: The energy has been calculated at the MDCI level but the densities
           used in the property calculations are still SCF densities
           MDCI response densities have not been calculated 
           use %mdci Density linearized end
           or  %mdci Density unrelaxed end
           or  %mdci Density orbopt end

                                    ---------------------
                                    Active property flags
                                    ---------------------
   (+) Dipole Moment


------------------------------------------------------------------------------
                       ORCA ELECTRIC PROPERTIES CALCULATION
------------------------------------------------------------------------------

Dipole Moment Calculation                       ... on
Quadrupole Moment Calculation                   ... off
Polarizability Calculation                      ... off
GBWName                                         ... D_wt_dlpno.gbw
Electron density file                           ... D_wt_dlpno.scfp
The origin for moment calculation is the CENTER OF MASS  = ( 2.665729,  2.314745 -2.284010)

-------------
DIPOLE MOMENT
-------------
                                X             Y             Z
Electronic contribution:     -2.01042       3.33591       4.24850
Nuclear contribution   :      1.09293      -2.80761      -4.51228
                        -----------------------------------------
Total Dipole Moment    :     -0.91749       0.52830      -0.26378
                        -----------------------------------------
Magnitude (a.u.)       :      1.09109
Magnitude (Debye)      :      2.77333



--------------------
Rotational spectrum 
--------------------
 
Rotational constants in cm-1:     0.040502     0.027818     0.018259 
Rotational constants in MHz :  1214.218058   833.972871   547.398614 

 Dipole components along the rotational axes: 
x,y,z [a.u.] :    -1.031967     0.075727    -0.346098 
x,y,z [Debye]:    -2.623052     0.192482    -0.879710 

 

Timings for individual modules:

Sum of individual times         ...    11223.541 sec (= 187.059 min)
GTO integral calculation        ...        3.241 sec (=   0.054 min)   0.0 %
SCF iterations                  ...      132.444 sec (=   2.207 min)   1.2 %
MDCI module                     ...    11087.857 sec (= 184.798 min)  98.8 %
                             ****ORCA TERMINATED NORMALLY****
TOTAL RUN TIME: 0 days 3 hours 7 minutes 4 seconds 608 msec
