
                                        *****************
                                        * O   R   C   A *
                                        *****************

                                            #,                                       
                                            ###                                      
                                            ####                                     
                                            #####                                    
                                            ######                                   
                                           ########,                                 
                                     ,,################,,,,,                         
                               ,,#################################,,                 
                          ,,##########################################,,             
                       ,#########################################, ''#####,          
                    ,#############################################,,   '####,        
                  ,##################################################,,,,####,       
                ,###########''''           ''''###############################       
              ,#####''   ,,,,##########,,,,          '''####'''          '####       
            ,##' ,,,,###########################,,,                        '##       
           ' ,,###''''                  '''############,,,                           
         ,,##''                                '''############,,,,        ,,,,,,###''
      ,#''                                            '''#######################'''  
     '                                                          ''''####''''         
             ,#######,   #######,   ,#######,      ##                                
            ,#'     '#,  ##    ##  ,#'     '#,    #''#        ######   ,####,        
            ##       ##  ##   ,#'  ##            #'  '#       #        #'  '#        
            ##       ##  #######   ##           ,######,      #####,   #    #        
            '#,     ,#'  ##    ##  '#,     ,#' ,#      #,         ##   #,  ,#        
             '#######'   ##     ##  '#######'  #'      '#     #####' # '####'        



                  #######################################################
                  #                        -***-                        #
                  #          Department of theory and spectroscopy      #
                  #    Directorship and core code : Frank Neese         #
                  #        Max Planck Institute fuer Kohlenforschung    #
                  #                Kaiser Wilhelm Platz 1               #
                  #                 D-45470 Muelheim/Ruhr               #
                  #                      Germany                        #
                  #                                                     #
                  #                  All rights reserved                #
                  #                        -***-                        #
                  #######################################################


                         Program Version 5.0.0 -  RELEASE  -
                                (SVN: $Rev: 19529$)
                ($Date: 2021-06-28 11:36:33 +0200 (Mo, 28 Jun 2021) $)


 With contributions from (in alphabetic order):
   Daniel Aravena         : Magnetic Suceptibility
   Michael Atanasov       : Ab Initio Ligand Field Theory (pilot matlab implementation)
   Alexander A. Auer      : GIAO ZORA, VPT2 properties, NMR spectrum
   Ute Becker             : Parallelization
   Giovanni Bistoni       : ED, misc. LED, open-shell LED, HFLD
   Martin Brehm           : Molecular dynamics
   Dmytro Bykov           : SCF Hessian
   Vijay G. Chilkuri      : MRCI spin determinant printing, contributions to CSF-ICE
   Dipayan Datta          : RHF DLPNO-CCSD density
   Achintya Kumar Dutta   : EOM-CC, STEOM-CC
   Dmitry Ganyushin       : Spin-Orbit,Spin-Spin,Magnetic field MRCI
   Miquel Garcia          : C-PCM Hessian, Gaussian charge scheme
   Yang Guo               : DLPNO-NEVPT2, F12-NEVPT2, CIM, IAO-localization
   Andreas Hansen         : Spin unrestricted coupled pair/coupled cluster methods
   Benjamin Helmich-Paris : MC-RPA, TRAH-SCF, COSX integrals
   Lee Huntington         : MR-EOM, pCC
   Robert Izsak           : Overlap fitted RIJCOSX, COSX-SCS-MP3, EOM
   Marcus Kettner         : VPT2
   Christian Kollmar      : KDIIS, OOCD, Brueckner-CCSD(T), CCSD density, CASPT2, CASPT2-K
   Simone Kossmann        : Meta GGA functionals, TD-DFT gradient, OOMP2, MP2 Hessian
   Martin Krupicka        : Initial AUTO-CI
   Lucas Lang             : DCDCAS
   Marvin Lechner         : AUTO-CI (C++ implementation), FIC-MRCC
   Dagmar Lenk            : GEPOL surface, SMD
   Dimitrios Liakos       : Extrapolation schemes; Compound Job, initial MDCI parallelization
   Dimitrios Manganas     : Further ROCIS development; embedding schemes
   Dimitrios Pantazis     : SARC Basis sets
   Anastasios Papadopoulos: AUTO-CI, single reference methods and gradients
   Taras Petrenko         : DFT Hessian,TD-DFT gradient, ASA, ECA, R-Raman, ABS, FL, XAS/XES, NRVS
   Peter Pinski           : DLPNO-MP2, DLPNO-MP2 Gradient
   Christoph Reimann      : Effective Core Potentials
   Marius Retegan         : Local ZFS, SOC
   Christoph Riplinger    : Optimizer, TS searches, QM/MM, DLPNO-CCSD(T), (RO)-DLPNO pert. Triples
   Tobias Risthaus        : Range-separated hybrids, TD-DFT gradient, RPA, STAB
   Michael Roemelt        : Original ROCIS implementation
   Masaaki Saitow         : Open-shell DLPNO-CCSD energy and density
   Barbara Sandhoefer     : DKH picture change effects
   Avijit Sen             : IP-ROCIS
   Kantharuban Sivalingam : CASSCF convergence, NEVPT2, FIC-MRCI
   Bernardo de Souza      : ESD, SOC TD-DFT
   Georgi Stoychev        : AutoAux, RI-MP2 NMR
   Willem Van den Heuvel  : Paramagnetic NMR
   Boris Wezisla          : Elementary symmetry handling
   Frank Wennmohs         : Technical directorship


 We gratefully acknowledge several colleagues who have allowed us to
 interface, adapt or use parts of their codes:
   Stefan Grimme, W. Hujo, H. Kruse, P. Pracht,  : VdW corrections, initial TS optimization,
                  C. Bannwarth, S. Ehlert          DFT functionals, gCP, sTDA/sTD-DF
   Ed Valeev, F. Pavosevic, A. Kumar             : LibInt (2-el integral package), F12 methods
   Garnet Chan, S. Sharma, J. Yang, R. Olivares  : DMRG
   Ulf Ekstrom                                   : XCFun DFT Library
   Mihaly Kallay                                 : mrcc  (arbitrary order and MRCC methods)
   Jiri Pittner, Ondrej Demel                    : Mk-CCSD
   Frank Weinhold                                : gennbo (NPA and NBO analysis)
   Christopher J. Cramer and Donald G. Truhlar   : smd solvation model
   Lars Goerigk                                  : TD-DFT with DH, B97 family of functionals
   V. Asgeirsson, H. Jonsson                     : NEB implementation
   FAccTs GmbH                                   : IRC, NEB, NEB-TS, DLPNO-Multilevel, CI-OPT
                                                   MM, QMMM, 2- and 3-layer-ONIOM, Crystal-QMMM,
                                                   LR-CPCM, SF, NACMEs, symmetry and pop. for TD-DFT,
                                                   nearIR, NL-DFT gradient (VV10), updates on ESD,
                                                   ML-optimized integration grids
   S Lehtola, MJT Oliveira, MAL Marques          : LibXC Library
   Liviu Ungur et al                             : ANISO software


 Your calculation uses the libint2 library for the computation of 2-el integrals
 For citations please refer to: http://libint.valeyev.net

 Your ORCA version has been built with support for libXC version: 5.1.0
 For citations please refer to: https://tddft.org/programs/libxc/

 This ORCA versions uses:
   CBLAS   interface :  Fast vector & matrix operations
   LAPACKE interface :  Fast linear algebra routines
   SCALAPACK package :  Parallel linear algebra routines
   Shared memory     :  Shared parallel matrices
   BLAS/LAPACK       :  OpenBLAS 0.3.15  USE64BITINT DYNAMIC_ARCH NO_AFFINITY Haswell SINGLE_THREADED
        Core in use  :  Haswell
   Copyright (c) 2011-2014, The OpenBLAS Project


Your calculation utilizes the atom-pairwise dispersion correction
with the Becke-Johnson damping scheme (D3BJ)
Cite in your paper:
S.Grimme, S.Ehrlich, L.Goerigk, J Comput Chem, (2011), 32, 1456–1465 
S.Grimme, J.Antony, S.Ehrlich and H.Krieg, J.Chem.Phys., 132, (2010), 154104 
   

================================================================================

----- Orbital basis set information -----
Your calculation utilizes the basis: def2-SVPD
   F. Weigend and R. Ahlrichs, Phys. Chem. Chem. Phys. 7, 3297 (2005).
   D. Rappoport and F. Furche, J. Chem. Phys. 133 134105 (2010).

----- AuxJ basis set information -----
Your calculation utilizes the auxiliary basis: def2/J
   F. Weigend, Phys. Chem. Chem. Phys. 8, 1057 (2006).

================================================================================
                                        WARNINGS
                       Please study these warnings very carefully!
================================================================================


INFO   : the flag for use of the SHARK integral package has been found!

================================================================================
                                       INPUT FILE
================================================================================
NAME = 14Feb_SVPD_B3LYP_C2_wt_wb97_typ1_neg.com
|  1> !B3LYP D3BJ RIJCOSX def2-SVPD def2/J TightSCF 
|  2> *xyz 0 1 
|  3> C         -0.98480        1.28474       -2.92869
|  4> C         -0.10608        1.76991       -4.08984
|  5> H         -0.34774        2.82220       -4.26294
|  6> H          0.94968        1.74588       -3.80878
|  7> C         -0.25875        1.00432       -5.40983
|  8> C          0.39596       -0.37070       -5.33994
|  9> H          0.23915        1.56939       -6.20125
| 10> H         -1.30936        0.88869       -5.68245
| 11> O         -0.32633       -1.39040       -5.49128
| 12> F          1.61941       -0.40073       -5.03683
| 13> H         -2.01317        1.31546       -3.22263
| 14> H         -0.83724        1.91975       -2.08023
| 15> H         -0.71656        0.28077       -2.67373
| 16> *
| 17> %MaxCore 64000
| 18> 
| 19> %pal nprocs 4
| 20> end  
| 21> 
| 22> %scf
| 23>   MaxIter 150
| 24> end
| 25> 
| 26> 
| 27>                          ****END OF INPUT****
================================================================================

                       ****************************
                       * Single Point Calculation *
                       ****************************

---------------------------------
CARTESIAN COORDINATES (ANGSTROEM)
---------------------------------
  C     -0.984800    1.284740   -2.928690
  C     -0.106080    1.769910   -4.089840
  H     -0.347740    2.822200   -4.262940
  H      0.949680    1.745880   -3.808780
  C     -0.258750    1.004320   -5.409830
  C      0.395960   -0.370700   -5.339940
  H      0.239150    1.569390   -6.201250
  H     -1.309360    0.888690   -5.682450
  O     -0.326330   -1.390400   -5.491280
  F      1.619410   -0.400730   -5.036830
  H     -2.013170    1.315460   -3.222630
  H     -0.837240    1.919750   -2.080230
  H     -0.716560    0.280770   -2.673730

----------------------------
CARTESIAN COORDINATES (A.U.)
----------------------------
  NO LB      ZA    FRAG     MASS         X           Y           Z
   0 C     6.0000    0    12.011   -1.861002    2.427807   -5.534422
   1 C     6.0000    0    12.011   -0.200462    3.344645   -7.728678
   2 H     1.0000    0     1.008   -0.657133    5.333185   -8.055789
   3 H     1.0000    0     1.008    1.794635    3.299235   -7.197551
   4 C     6.0000    0    12.011   -0.488967    1.897890  -10.223097
   5 C     6.0000    0    12.011    0.748256   -0.700521  -10.091024
   6 H     1.0000    0     1.008    0.451928    2.965717  -11.718664
   7 H     1.0000    0     1.008   -2.474332    1.679381  -10.738274
   8 O     8.0000    0    15.999   -0.616674   -2.627475  -10.377015
   9 F     9.0000    0    18.998    3.060241   -0.757270   -9.518229
  10 H     1.0000    0     1.008   -3.804340    2.485859   -6.089888
  11 H     1.0000    0     1.008   -1.582154    3.627802   -3.931065
  12 H     1.0000    0     1.008   -1.354102    0.530578   -5.052617

--------------------------------
INTERNAL COORDINATES (ANGSTROEM)
--------------------------------
 C      0   0   0     0.000000000000     0.00000000     0.00000000
 C      1   0   0     1.534864192624     0.00000000     0.00000000
 H      2   1   0     1.093470351541   107.30323261     0.00000000
 H      2   1   3     1.092795196778   110.58411592   115.15764890
 C      2   1   3     1.533561142276   115.87195125   238.25739618
 C      5   2   1     1.524535928275   111.59549479   286.27945188
 H      5   2   1     1.092499030343   108.65959152   167.67549937
 H      5   2   1     1.091546303828   111.32615887    48.60127132
 O      6   5   2     1.258727424703   118.60144394   118.44579200
 F      6   5   2     1.260796325938   116.69439283   303.37508509
 H      1   2   3     1.069994999474   109.47137220    64.84186695
 H      1   2   3     1.069998142662   109.47135603   304.84141720
 H      1   2   3     1.070006102833   109.47111178   184.84196742

---------------------------
INTERNAL COORDINATES (A.U.)
---------------------------
 C      0   0   0     0.000000000000     0.00000000     0.00000000
 C      1   0   0     2.900472976822     0.00000000     0.00000000
 H      2   1   0     2.066359499976   107.30323261     0.00000000
 H      2   1   3     2.065083642374   110.58411592   115.15764890
 C      2   1   3     2.898010568526   115.87195125   238.25739618
 C      5   2   1     2.880955385762   111.59549479   286.27945188
 H      5   2   1     2.064523968922   108.65959152   167.67549937
 H      5   2   1     2.062723576728   111.32615887    48.60127132
 O      6   5   2     2.378650109945   118.60144394   118.44579200
 F      6   5   2     2.382559766678   116.69439283   303.37508509
 H      1   2   3     2.021997513672   109.47137220    64.84186695
 H      1   2   3     2.022003453435   109.47135603   304.84141720
 H      1   2   3     2.022018495979   109.47111178   184.84196742

---------------------
BASIS SET INFORMATION
---------------------
There are 4 groups of distinct atoms

 Group   1 Type C   : 8s4p2d contracted to 4s2p2d pattern {5111/31/11}
 Group   2 Type H   : 4s2p contracted to 2s2p pattern {31/11}
 Group   3 Type O   : 8s5p2d contracted to 4s3p2d pattern {5111/311/11}
 Group   4 Type F   : 8s5p2d contracted to 4s3p2d pattern {5111/311/11}

Atom   0C    basis set group =>   1
Atom   1C    basis set group =>   1
Atom   2H    basis set group =>   2
Atom   3H    basis set group =>   2
Atom   4C    basis set group =>   1
Atom   5C    basis set group =>   1
Atom   6H    basis set group =>   2
Atom   7H    basis set group =>   2
Atom   8O    basis set group =>   3
Atom   9F    basis set group =>   4
Atom  10H    basis set group =>   2
Atom  11H    basis set group =>   2
Atom  12H    basis set group =>   2
---------------------------------
AUXILIARY/J BASIS SET INFORMATION
---------------------------------
There are 4 groups of distinct atoms

 Group   1 Type C   : 12s5p4d2f1g contracted to 6s4p3d1f1g pattern {711111/2111/211/2/1}
 Group   2 Type H   : 5s2p1d contracted to 3s1p1d pattern {311/2/1}
 Group   3 Type O   : 12s5p4d2f1g contracted to 6s4p3d1f1g pattern {711111/2111/211/2/1}
 Group   4 Type F   : 12s5p4d2f1g contracted to 6s4p3d1f1g pattern {711111/2111/211/2/1}

Atom   0C    basis set group =>   1
Atom   1C    basis set group =>   1
Atom   2H    basis set group =>   2
Atom   3H    basis set group =>   2
Atom   4C    basis set group =>   1
Atom   5C    basis set group =>   1
Atom   6H    basis set group =>   2
Atom   7H    basis set group =>   2
Atom   8O    basis set group =>   3
Atom   9F    basis set group =>   4
Atom  10H    basis set group =>   2
Atom  11H    basis set group =>   2
Atom  12H    basis set group =>   2


           ************************************************************
           *        Program running with 4 parallel MPI-processes     *
           *              working on a common directory               *
           ************************************************************
------------------------------------------------------------------------------
                           ORCA GTO INTEGRAL CALCULATION
                           -- RI-GTO INTEGRALS CHOSEN --
------------------------------------------------------------------------------
------------------------------------------------------------------------------
                   ___                                                        
                  /   \      - P O W E R E D   B Y -                         
                 /     \                                                     
                 |  |  |   _    _      __       _____    __    __             
                 |  |  |  | |  | |    /  \     |  _  \  |  |  /  |          
                  \  \/   | |  | |   /    \    | | | |  |  | /  /          
                 / \  \   | |__| |  /  /\  \   | |_| |  |  |/  /          
                |  |  |   |  __  | /  /__\  \  |    /   |      \           
                |  |  |   | |  | | |   __   |  |    \   |  |\   \          
                \     /   | |  | | |  |  |  |  | |\  \  |  | \   \       
                 \___/    |_|  |_| |__|  |__|  |_| \__\ |__|  \__/        
                                                                              
                      - O R C A' S   B I G   F R I E N D -                    
                                      &                                       
                       - I N T E G R A L  F E E D E R -                       
                                                                              
 v1 FN, 2020, v2 2021                                                         
------------------------------------------------------------------------------


Reading SHARK input file 14Feb_SVPD_B3LYP_C2_wt_wb97_typ1_neg.SHARKINP.tmp ... ok
----------------------
SHARK INTEGRAL PACKAGE
----------------------

Number of atoms                             ...     13
Number of basis functions                   ...    182
Number of shells                            ...     78
Maximum angular momentum                    ...      2
Integral batch strategy                     ... SHARK/LIBINT Hybrid
RI-J (if used) integral strategy            ... SPLIT-RIJ (Revised 2003 algorithm where possible)
Printlevel                                  ...      1
Contraction scheme used                     ... SEGMENTED contraction
Coulomb Range Separation                    ... NOT USED
Exchange Range Separation                   ... NOT USED
Finite Nucleus Model                        ... NOT USED
Auxiliary Coulomb fitting basis             ... AVAILABLE
   # of basis functions in Aux-J            ...    371
   # of shells in Aux-J                     ...    125
   Maximum angular momentum in Aux-J        ...      4
Auxiliary J/K fitting basis                 ... NOT available
Auxiliary Correlation fitting basis         ... NOT available
Auxiliary 'external' fitting basis          ... NOT available
Integral threshold                          ...     2.500000e-11
Primitive cut-off                           ...     2.500000e-12
Primitive pair pre-selection threshold      ...     2.500000e-12

Calculating pre-screening integrals         ... done (  0.0 sec) Dimension = 78
Organizing shell pair data                  ... done (  0.0 sec)
Shell pair information
Total number of shell pairs                 ...      3081
Shell pairs after pre-screening             ...      3029
Total number of primitive shell pairs       ...      8355
Primitive shell pairs kept                  ...      6885
          la=0 lb=0:    724 shell pairs
          la=1 lb=0:   1044 shell pairs
          la=1 lb=1:    402 shell pairs
          la=2 lb=0:    449 shell pairs
          la=2 lb=1:    332 shell pairs
          la=2 lb=2:     78 shell pairs

Calculating one electron integrals          ... done (  0.0 sec)
Calculating RI/J V-Matrix + Cholesky decomp.... done (  0.0 sec)
Calculating Nuclear repulsion               ... done (  0.0 sec) ENN=    241.599264481674 Eh

SHARK setup successfully completed in   0.2 seconds

Maximum memory used throughout the entire GTOINT-calculation: 8.9 MB


           ************************************************************
           *        Program running with 4 parallel MPI-processes     *
           *              working on a common directory               *
           ************************************************************
-------------------------------------------------------------------------------
                                 ORCA SCF
-------------------------------------------------------------------------------

------------
SCF SETTINGS
------------
Hamiltonian:
 Density Functional     Method          .... DFT(GTOs)
 Exchange Functional    Exchange        .... B88
   X-Alpha parameter    XAlpha          ....  0.666667
   Becke's b parameter  XBeta           ....  0.004200
 Correlation Functional Correlation     .... LYP
 LDA part of GGA corr.  LDAOpt          .... VWN-5
 Gradients option       PostSCFGGA      .... off
 Hybrid DFT is turned on
   Fraction HF Exchange ScalHFX         ....  0.200000
   Scaling of DF-GGA-X  ScalDFX         ....  0.720000
   Scaling of DF-GGA-C  ScalDFC         ....  0.810000
   Scaling of DF-LDA-C  ScalLDAC        ....  1.000000
   Perturbative correction              ....  0.000000
   Density functional embedding theory  .... OFF
   NL short-range parameter             ....  4.800000
 RI-approximation to the Coulomb term is turned on
   Number of AuxJ basis functions       .... 371
   RIJ-COSX (HFX calculated with COS-X)).... on


General Settings:
 Integral files         IntName         .... 14Feb_SVPD_B3LYP_C2_wt_wb97_typ1_neg
 Hartree-Fock type      HFTyp           .... RHF
 Total Charge           Charge          ....    0
 Multiplicity           Mult            ....    1
 Number of Electrons    NEL             ....   48
 Basis Dimension        Dim             ....  182
 Nuclear Repulsion      ENuc            ....    241.5992644817 Eh

Convergence Acceleration:
 DIIS                   CNVDIIS         .... on
   Start iteration      DIISMaxIt       ....    12
   Startup error        DIISStart       ....  0.200000
   # of expansion vecs  DIISMaxEq       ....     5
   Bias factor          DIISBfac        ....   1.050
   Max. coefficient     DIISMaxC        ....  10.000
 Trust-Rad. Augm. Hess. CNVTRAH         .... auto
   Auto Start mean grad. ratio tolernc. ....  1.125000
   Auto Start start iteration           ....    20
   Auto Start num. interpolation iter.  ....    10
   Max. Number of Micro iterations      ....    16
   Max. Number of Macro iterations      .... Maxiter - #DIIS iter
   Number of Davidson start vectors     ....     2
   Converg. threshold I  (grad. norm)   ....   1.000e-05
   Converg. threshold II (energy diff.) ....   1.000e-08
   Grad. Scal. Fac. for Micro threshold ....   0.100
   Minimum threshold for Micro iter.    ....   0.010
   NR start threshold (gradient norm)   ....   0.001
   Initial trust radius                 ....   0.400
   Minimum AH scaling param. (alpha)    ....   1.000
   Maximum AH scaling param. (alpha)    .... 1000.000
   Orbital update algorithm             .... Taylor
   White noise on init. David. guess    .... on
   Maximum white noise                  ....   0.010
   Quad. conv. algorithm                .... NR
 SOSCF                  CNVSOSCF        .... on
   Start iteration      SOSCFMaxIt      ....   150
   Startup grad/error   SOSCFStart      ....  0.003300
 Level Shifting         CNVShift        .... on
   Level shift para.    LevelShift      ....    0.2500
   Turn off err/grad.   ShiftErr        ....    0.0010
 Zerner damping         CNVZerner       .... off
 Static damping         CNVDamp         .... on
   Fraction old density DampFac         ....    0.7000
   Max. Damping (<1)    DampMax         ....    0.9800
   Min. Damping (>=0)   DampMin         ....    0.0000
   Turn off err/grad.   DampErr         ....    0.1000
 Fernandez-Rico         CNVRico         .... off

SCF Procedure:
 Maximum # iterations   MaxIter         ....   150
 SCF integral mode      SCFMode         .... Direct
   Integral package                     .... SHARK and LIBINT hybrid scheme
 Reset frequency        DirectResetFreq ....    20
 Integral Threshold     Thresh          ....  2.500e-11 Eh
 Primitive CutOff       TCut            ....  2.500e-12 Eh

Convergence Tolerance:
 Convergence Check Mode ConvCheckMode   .... Total+1el-Energy
 Convergence forced     ConvForced      .... 0
 Energy Change          TolE            ....  1.000e-08 Eh
 1-El. energy change                    ....  1.000e-05 Eh
 Orbital Gradient       TolG            ....  1.000e-05
 Orbital Rotation angle TolX            ....  1.000e-05
 DIIS Error             TolErr          ....  5.000e-07


Diagonalization of the overlap matrix:
Smallest eigenvalue                        ... 1.479e-04
Time for diagonalization                   ...    0.008 sec
Threshold for overlap eigenvalues          ... 1.000e-08
Number of eigenvalues below threshold      ... 0
Time for construction of square roots      ...    0.007 sec
Total time needed                          ...    0.016 sec

Time for model grid setup =    0.080 sec

------------------------------
INITIAL GUESS: MODEL POTENTIAL
------------------------------
Loading Hartree-Fock densities                     ... done
Calculating cut-offs                               ... done
Initializing the effective Hamiltonian             ... done
Setting up the integral package (SHARK)            ... done
Starting the Coulomb interaction                   ... done (   0.0 sec)
Reading the grid                                   ... done
Mapping shells                                     ... done
Starting the XC term evaluation                    ... done (   0.1 sec)
  promolecular density results
     # of electrons  =     47.997360869
     EX              =    -40.892144309
     EC              =     -1.634266101
     EX+EC           =    -42.526410410
Transforming the Hamiltonian                       ... done (   0.0 sec)
Diagonalizing the Hamiltonian                      ... done (   0.0 sec)
Back transforming the eigenvectors                 ... done (   0.0 sec)
Now organizing SCF variables                       ... done
                      ------------------
                      INITIAL GUESS DONE (   0.2 sec)
                      ------------------
-------------------
DFT GRID GENERATION
-------------------

General Integration Accuracy     IntAcc      ... 4.388
Radial Grid Type                 RadialGrid  ... OptM3 with GC (2021)
Angular Grid (max. ang.)         AngularGrid ... 4 (Lebedev-302)
Angular grid pruning method      GridPruning ... 4 (adaptive)
Weight generation scheme         WeightScheme... Becke
Basis function cutoff            BFCut       ... 1.0000e-11
Integration weight cutoff        WCut        ... 1.0000e-14
Angular grids for H and He will be reduced by one unit
Partially contracted basis set               ... off
Rotationally invariant grid construction     ... off

Total number of grid points                  ...    60811
Total number of batches                      ...      956
Average number of points per batch           ...       63
Average number of grid points per atom       ...     4678
Time for grid setup =    0.384 sec

--------------------
COSX GRID GENERATION
--------------------

GRIDX 1
-------
General Integration Accuracy     IntAcc      ... 3.816
Radial Grid Type                 RadialGrid  ... OptM3 with GC (2021)
Angular Grid (max. ang.)         AngularGrid ... 1 (Lebedev-50)
Angular grid pruning method      GridPruning ... 4 (adaptive)
Weight generation scheme         WeightScheme... Becke
Basis function cutoff            BFCut       ... 1.0000e-11
Integration weight cutoff        WCut        ... 1.0000e-14
Angular grids for H and He will be reduced by one unit
Partially contracted basis set               ... on
Rotationally invariant grid construction     ... off

Total number of grid points                  ...     7640
Total number of batches                      ...      127
Average number of points per batch           ...       60
Average number of grid points per atom       ...      588
UseSFitting                                  ... on

GRIDX 2
-------
General Integration Accuracy     IntAcc      ... 4.020
Radial Grid Type                 RadialGrid  ... OptM3 with GC (2021)
Angular Grid (max. ang.)         AngularGrid ... 2 (Lebedev-110)
Angular grid pruning method      GridPruning ... 4 (adaptive)
Weight generation scheme         WeightScheme... Becke
Basis function cutoff            BFCut       ... 1.0000e-11
Integration weight cutoff        WCut        ... 1.0000e-14
Angular grids for H and He will be reduced by one unit
Partially contracted basis set               ... on
Rotationally invariant grid construction     ... off

Total number of grid points                  ...    17604
Total number of batches                      ...      282
Average number of points per batch           ...       62
Average number of grid points per atom       ...     1354
UseSFitting                                  ... on

GRIDX 3
-------
General Integration Accuracy     IntAcc      ... 4.338
Radial Grid Type                 RadialGrid  ... OptM3 with GC (2021)
Angular Grid (max. ang.)         AngularGrid ... 3 (Lebedev-194)
Angular grid pruning method      GridPruning ... 4 (adaptive)
Weight generation scheme         WeightScheme... Becke
Basis function cutoff            BFCut       ... 1.0000e-11
Integration weight cutoff        WCut        ... 1.0000e-14
Angular grids for H and He will be reduced by one unit
Partially contracted basis set               ... on
Rotationally invariant grid construction     ... off

Total number of grid points                  ...    39773
Total number of batches                      ...      631
Average number of points per batch           ...       63
Average number of grid points per atom       ...     3059
UseSFitting                                  ... on

Time for X-Grid setup             =    0.346 sec

--------------
SCF ITERATIONS
--------------
ITER       Energy         Delta-E        Max-DP      RMS-DP      [F,P]     Damp
               ***  Starting incremental Fock matrix formation  ***
  0   -331.0621692106   0.000000000000 0.14161283  0.00330205  0.2810837 0.7000
  1   -331.1827699932  -0.120600782603 0.08719105  0.00188701  0.0912938 0.7000
                               ***Turning on DIIS***
  2   -331.2198763788  -0.037106385557 0.15988071  0.00315168  0.0346981 0.0000
  3   -331.2919234143  -0.072047035495 0.04015006  0.00113715  0.0502336 0.0000
  4   -331.3031584727  -0.011235058380 0.01741533  0.00042587  0.0290973 0.0000
                      *** Initiating the SOSCF procedure ***
                           *** Shutting down DIIS ***
                      *** Re-Reading the Fockian *** 
                      *** Removing any level shift *** 
ITER      Energy       Delta-E        Grad      Rot      Max-DP    RMS-DP
  5   -331.30504787  -0.0018893986  0.000787  0.000787  0.004551  0.000144
               *** Restarting incremental Fock matrix formation ***
  6   -331.30509314  -0.0000452689  0.000649  0.002076  0.004292  0.000098
  7   -331.30508316   0.0000099803  0.001300  0.001308  0.002039  0.000039
  8   -331.30509946  -0.0000163007  0.000169  0.000341  0.000665  0.000021
  9   -331.30509892   0.0000005378  0.000151  0.000164  0.000433  0.000012
 10   -331.30510011  -0.0000011911  0.000004  0.000007  0.000027  0.000001
 11   -331.30510011  -0.0000000000  0.000004  0.000003  0.000017  0.000001
                  ***Gradient check signals convergence***
              ***Rediagonalizing the Fockian in SOSCF/NRSCF***

               *****************************************************
               *                     SUCCESS                       *
               *           SCF CONVERGED AFTER  12 CYCLES          *
               *****************************************************

Old exchange energy                            =     -8.279824316 Eh
New exchange energy                            =     -8.279834051 Eh
Exchange energy change after final integration =     -0.000009735 Eh
Total energy after final integration           =   -331.305109851 Eh
Final COS-X integration done in                =     1.950 sec

----------------
TOTAL SCF ENERGY
----------------

Total Energy       :         -331.30510985 Eh           -9015.27037 eV

Components:
Nuclear Repulsion  :          241.59926448 Eh            6574.25021 eV
Electronic Energy  :         -572.90437433 Eh          -15589.52058 eV
One Electron Energy:         -930.58331549 Eh          -25322.45938 eV
Two Electron Energy:          357.67894116 Eh            9732.93880 eV
Max COSX asymmetry :            0.00000451 Eh               0.00012 eV

Virial components:
Potential Energy   :         -659.65524936 Eh          -17950.13190 eV
Kinetic Energy     :          328.35013950 Eh            8934.86154 eV
Virial Ratio       :            2.00899945


DFT components:
N(Alpha)           :       24.000010321908 electrons
N(Beta)            :       24.000010321908 electrons
N(Total)           :       48.000020643816 electrons
E(X)               :      -32.921706735903 Eh       
E(C)               :       -1.929068969990 Eh       
E(XC)              :      -34.850775705893 Eh       
DFET-embed. en.    :        0.000000000000 Eh       

---------------
SCF CONVERGENCE
---------------

  Last Energy change         ...   -2.2068e-09  Tolerance :   1.0000e-08
  Last MAX-Density change    ...    3.9968e-15  Tolerance :   1.0000e-07
  Last RMS-Density change    ...    4.7266e-17  Tolerance :   5.0000e-09
  Last Orbital Gradient      ...    1.0954e-06  Tolerance :   1.0000e-05
  Last Orbital Rotation      ...    1.8225e-06  Tolerance :   1.0000e-05

             **** THE GBW FILE WAS UPDATED (14Feb_SVPD_B3LYP_C2_wt_wb97_typ1_neg.gbw) ****
             **** DENSITY 14Feb_SVPD_B3LYP_C2_wt_wb97_typ1_neg.scfp WAS UPDATED ****
             **** ENERGY FILE WAS UPDATED (14Feb_SVPD_B3LYP_C2_wt_wb97_typ1_neg.en.tmp) ****
             **** THE GBW FILE WAS UPDATED (14Feb_SVPD_B3LYP_C2_wt_wb97_typ1_neg.gbw) ****
             **** DENSITY 14Feb_SVPD_B3LYP_C2_wt_wb97_typ1_neg.scfp WAS UPDATED ****
----------------
ORBITAL ENERGIES
----------------

  NO   OCC          E(Eh)            E(eV) 
   0   2.0000     -24.768192      -673.9768 
   1   2.0000     -19.149462      -521.0833 
   2   2.0000     -10.365811      -282.0680 
   3   2.0000     -10.215813      -277.9864 
   4   2.0000     -10.203844      -277.6607 
   5   2.0000     -10.181053      -277.0405 
   6   2.0000      -1.304314       -35.4922 
   7   2.0000      -1.023827       -27.8598 
   8   2.0000      -0.811955       -22.0944 
   9   2.0000      -0.727006       -19.7828 
  10   2.0000      -0.659717       -17.9518 
  11   2.0000      -0.612907       -16.6781 
  12   2.0000      -0.553942       -15.0735 
  13   2.0000      -0.541926       -14.7465 
  14   2.0000      -0.497134       -13.5277 
  15   2.0000      -0.466778       -12.7017 
  16   2.0000      -0.460761       -12.5380 
  17   2.0000      -0.424566       -11.5530 
  18   2.0000      -0.403648       -10.9838 
  19   2.0000      -0.380883       -10.3644 
  20   2.0000      -0.364042        -9.9061 
  21   2.0000      -0.359593        -9.7850 
  22   2.0000      -0.349426        -9.5084 
  23   2.0000      -0.292531        -7.9602 
  24   0.0000      -0.036474        -0.9925 
  25   0.0000       0.009945         0.2706 
  26   0.0000       0.040035         1.0894 
  27   0.0000       0.049685         1.3520 
  28   0.0000       0.050313         1.3691 
  29   0.0000       0.078745         2.1428 
  30   0.0000       0.093785         2.5520 
  31   0.0000       0.098228         2.6729 
  32   0.0000       0.104060         2.8316 
  33   0.0000       0.111514         3.0344 
  34   0.0000       0.126808         3.4506 
  35   0.0000       0.135831         3.6961 
  36   0.0000       0.141558         3.8520 
  37   0.0000       0.154992         4.2175 
  38   0.0000       0.158416         4.3107 
  39   0.0000       0.168726         4.5913 
  40   0.0000       0.171236         4.6596 
  41   0.0000       0.179386         4.8814 
  42   0.0000       0.197412         5.3719 
  43   0.0000       0.208368         5.6700 
  44   0.0000       0.213888         5.8202 
  45   0.0000       0.230488         6.2719 
  46   0.0000       0.246677         6.7124 
  47   0.0000       0.262063         7.1311 
  48   0.0000       0.273688         7.4474 
  49   0.0000       0.279364         7.6019 
  50   0.0000       0.286550         7.7974 
  51   0.0000       0.296530         8.0690 
  52   0.0000       0.312506         8.5037 
  53   0.0000       0.316528         8.6132 
  54   0.0000       0.321838         8.7577 
  55   0.0000       0.324863         8.8400 
  56   0.0000       0.347747         9.4627 
  57   0.0000       0.353225         9.6117 
  58   0.0000       0.360966         9.8224 
  59   0.0000       0.363581         9.8935 
  60   0.0000       0.373395        10.1606 
  61   0.0000       0.378199        10.2913 
  62   0.0000       0.381967        10.3939 
  63   0.0000       0.392645        10.6844 
  64   0.0000       0.402469        10.9517 
  65   0.0000       0.405518        11.0347 
  66   0.0000       0.417036        11.3481 
  67   0.0000       0.425378        11.5751 
  68   0.0000       0.444500        12.0955 
  69   0.0000       0.446118        12.1395 
  70   0.0000       0.457309        12.4440 
  71   0.0000       0.460859        12.5406 
  72   0.0000       0.477386        12.9903 
  73   0.0000       0.482979        13.1425 
  74   0.0000       0.489888        13.3305 
  75   0.0000       0.492871        13.4117 
  76   0.0000       0.507458        13.8086 
  77   0.0000       0.514203        13.9922 
  78   0.0000       0.519958        14.1488 
  79   0.0000       0.530353        14.4316 
  80   0.0000       0.550704        14.9854 
  81   0.0000       0.553854        15.0711 
  82   0.0000       0.561132        15.2692 
  83   0.0000       0.567783        15.4502 
  84   0.0000       0.574872        15.6431 
  85   0.0000       0.592582        16.1250 
  86   0.0000       0.599155        16.3038 
  87   0.0000       0.610444        16.6110 
  88   0.0000       0.630728        17.1630 
  89   0.0000       0.644272        17.5315 
  90   0.0000       0.660504        17.9732 
  91   0.0000       0.683746        18.6057 
  92   0.0000       0.688363        18.7313 
  93   0.0000       0.721517        19.6335 
  94   0.0000       0.746256        20.3067 
  95   0.0000       0.757160        20.6034 
  96   0.0000       0.779917        21.2226 
  97   0.0000       0.788868        21.4662 
  98   0.0000       0.811723        22.0881 
  99   0.0000       0.855719        23.2853 
 100   0.0000       0.866902        23.5896 
 101   0.0000       0.882224        24.0065 
 102   0.0000       0.908644        24.7255 
 103   0.0000       0.932475        25.3739 
 104   0.0000       0.960860        26.1463 
 105   0.0000       0.971948        26.4481 
 106   0.0000       0.978228        26.6189 
 107   0.0000       1.003930        27.3183 
 108   0.0000       1.012912        27.5627 
 109   0.0000       1.017516        27.6880 
 110   0.0000       1.022835        27.8328 
 111   0.0000       1.046812        28.4852 
 112   0.0000       1.077873        29.3304 
 113   0.0000       1.118802        30.4441 
 114   0.0000       1.135714        30.9043 
 115   0.0000       1.145144        31.1609 
 116   0.0000       1.159789        31.5595 
 117   0.0000       1.210321        32.9345 
 118   0.0000       1.264817        34.4174 
 119   0.0000       1.295966        35.2650 
 120   0.0000       1.309257        35.6267 
 121   0.0000       1.363238        37.0956 
 122   0.0000       1.379959        37.5506 
 123   0.0000       1.523366        41.4529 
 124   0.0000       1.536092        41.7992 
 125   0.0000       1.552129        42.2356 
 126   0.0000       1.585521        43.1442 
 127   0.0000       1.634884        44.4875 
 128   0.0000       1.646755        44.8105 
 129   0.0000       1.682500        45.7831 
 130   0.0000       1.694231        46.1024 
 131   0.0000       1.715227        46.6737 
 132   0.0000       1.747274        47.5457 
 133   0.0000       1.757026        47.8111 
 134   0.0000       1.800001        48.9805 
 135   0.0000       1.835700        49.9519 
 136   0.0000       1.856457        50.5168 
 137   0.0000       1.871252        50.9193 
 138   0.0000       1.897872        51.6437 
 139   0.0000       1.920507        52.2596 
 140   0.0000       1.923499        52.3411 
 141   0.0000       1.948614        53.0245 
 142   0.0000       1.984745        54.0077 
 143   0.0000       2.012626        54.7663 
 144   0.0000       2.030449        55.2513 
 145   0.0000       2.057090        55.9763 
 146   0.0000       2.088422        56.8288 
 147   0.0000       2.094775        57.0017 
 148   0.0000       2.106866        57.3307 
 149   0.0000       2.151827        58.5542 
 150   0.0000       2.159837        58.7722 
 151   0.0000       2.235957        60.8435 
 152   0.0000       2.280917        62.0669 
 153   0.0000       2.300496        62.5997 
 154   0.0000       2.326168        63.2982 
 155   0.0000       2.372097        64.5480 
 156   0.0000       2.428791        66.0908 
 157   0.0000       2.468279        67.1653 
 158   0.0000       2.503247        68.1168 
 159   0.0000       2.555547        69.5400 
 160   0.0000       2.579939        70.2037 
 161   0.0000       2.599334        70.7315 
 162   0.0000       2.651207        72.1430 
 163   0.0000       2.686694        73.1087 
 164   0.0000       2.743475        74.6538 
 165   0.0000       2.869611        78.0861 
 166   0.0000       2.878929        78.3397 
 167   0.0000       2.922804        79.5335 
 168   0.0000       2.996091        81.5278 
 169   0.0000       3.055525        83.1451 
 170   0.0000       3.061951        83.3199 
 171   0.0000       3.095171        84.2239 
 172   0.0000       3.144109        85.5556 
 173   0.0000       3.153912        85.8223 
 174   0.0000       3.211153        87.3799 
 175   0.0000       3.223231        87.7086 
 176   0.0000       3.343901        90.9922 
 177   0.0000       3.365602        91.5827 
 178   0.0000       3.481156        94.7271 
 179   0.0000       3.553145        96.6860 
 180   0.0000       3.755665       102.1968 
 181   0.0000       4.076985       110.9404 

                    ********************************
                    * MULLIKEN POPULATION ANALYSIS *
                    ********************************

-----------------------
MULLIKEN ATOMIC CHARGES
-----------------------
   0 C :    0.915999
   1 C :   -0.249855
   2 H :   -0.192479
   3 H :   -0.109319
   4 C :    0.229053
   5 C :    0.753240
   6 H :   -0.048609
   7 H :   -0.088153
   8 O :   -0.457801
   9 F :   -0.400426
  10 H :   -0.072415
  11 H :   -0.132645
  12 H :   -0.146589
Sum of atomic charges:   -0.0000000

--------------------------------
MULLIKEN REDUCED ORBITAL CHARGES
--------------------------------
  0 C s       :     2.324591  s :     2.324591
      pz      :     0.890577  p :     2.652960
      px      :     0.907719
      py      :     0.854663
      dz2     :     0.031690  d :     0.106450
      dxz     :     0.002288
      dyz     :     0.036496
      dx2y2   :     0.029605
      dxy     :     0.006370
  1 C s       :     2.812958  s :     2.812958
      pz      :     0.989018  p :     2.799876
      px      :     0.934977
      py      :     0.875881
      dz2     :     0.255252  d :     0.637022
      dxz     :     0.103781
      dyz     :     0.090688
      dx2y2   :     0.127908
      dxy     :     0.059392
  2 H s       :     1.185626  s :     1.185626
      pz      :    -0.025347  p :     0.006853
      px      :    -0.028865
      py      :     0.061065
  3 H s       :     1.105433  s :     1.105433
      pz      :    -0.014315  p :     0.003886
      px      :     0.048372
      py      :    -0.030172
  4 C s       :     2.697963  s :     2.697963
      pz      :     1.006079  p :     2.845901
      px      :     0.900327
      py      :     0.939495
      dz2     :     0.012922  d :     0.227084
      dxz     :     0.101422
      dyz     :     0.015357
      dx2y2   :     0.071715
      dxy     :     0.025668
  5 C s       :     2.849283  s :     2.849283
      pz      :     0.671145  p :     2.198212
      px      :     0.668767
      py      :     0.858300
      dz2     :     0.022387  d :     0.199265
      dxz     :     0.035386
      dyz     :     0.028663
      dx2y2   :     0.080369
      dxy     :     0.032460
  6 H s       :     1.047167  s :     1.047167
      pz      :     0.021063  p :     0.001443
      px      :    -0.011389
      py      :    -0.008232
  7 H s       :     1.031978  s :     1.031978
      pz      :     0.003383  p :     0.056175
      px      :     0.057392
      py      :    -0.004600
  8 O s       :     3.895023  s :     3.895023
      pz      :     1.439518  p :     4.520034
      px      :     1.628761
      py      :     1.451756
      dz2     :     0.004774  d :     0.042743
      dxz     :     0.008011
      dyz     :     0.012336
      dx2y2   :     0.012836
      dxy     :     0.004787
  9 F s       :     4.048793  s :     4.048793
      pz      :     1.853588  p :     5.324581
      px      :     1.499675
      py      :     1.971318
      dz2     :     0.004738  d :     0.027051
      dxz     :     0.010107
      dyz     :     0.002360
      dx2y2   :     0.002952
      dxy     :     0.006895
 10 H s       :     1.042389  s :     1.042389
      pz      :     0.015399  p :     0.030026
      px      :     0.053547
      py      :    -0.038921
 11 H s       :     1.124517  s :     1.124517
      pz      :     0.014299  p :     0.008128
      px      :    -0.020151
      py      :     0.013980
 12 H s       :     1.099421  s :     1.099421
      pz      :    -0.005869  p :     0.047168
      px      :    -0.000948
      py      :     0.053984


                     *******************************
                     * LOEWDIN POPULATION ANALYSIS *
                     *******************************

----------------------
LOEWDIN ATOMIC CHARGES
----------------------
   0 C :    0.144563
   1 C :   -0.061367
   2 H :    0.018583
   3 H :    0.016829
   4 C :    0.052990
   5 C :   -0.014058
   6 H :    0.032667
   7 H :    0.033806
   8 O :   -0.134095
   9 F :   -0.036581
  10 H :   -0.015952
  11 H :   -0.018547
  12 H :   -0.018840

-------------------------------
LOEWDIN REDUCED ORBITAL CHARGES
-------------------------------
  0 C s       :     2.703870  s :     2.703870
      pz      :     0.905504  p :     2.756324
      px      :     0.919853
      py      :     0.930967
      dz2     :     0.092433  d :     0.395242
      dxz     :     0.065054
      dyz     :     0.098572
      dx2y2   :     0.106972
      dxy     :     0.032211
  1 C s       :     2.689565  s :     2.689565
      pz      :     0.876629  p :     2.691697
      px      :     0.914709
      py      :     0.900360
      dz2     :     0.201703  d :     0.680105
      dxz     :     0.141416
      dyz     :     0.135567
      dx2y2   :     0.144353
      dxy     :     0.057066
  2 H s       :     0.731637  s :     0.731637
      pz      :     0.062634  p :     0.249780
      px      :     0.070110
      py      :     0.117036
  3 H s       :     0.726588  s :     0.726588
      pz      :     0.063215  p :     0.256583
      px      :     0.119930
      py      :     0.073438
  4 C s       :     2.687243  s :     2.687243
      pz      :     0.907639  p :     2.681919
      px      :     0.909079
      py      :     0.865201
      dz2     :     0.115468  d :     0.577848
      dxz     :     0.106964
      dyz     :     0.136465
      dx2y2   :     0.127761
      dxy     :     0.091190
  5 C s       :     2.654842  s :     2.654842
      pz      :     0.609700  p :     2.307984
      px      :     0.780223
      py      :     0.918061
      dz2     :     0.106110  d :     1.051231
      dxz     :     0.157934
      dyz     :     0.151206
      dx2y2   :     0.333337
      dxy     :     0.302646
  6 H s       :     0.719611  s :     0.719611
      pz      :     0.091299  p :     0.247722
      px      :     0.079807
      py      :     0.076616
  7 H s       :     0.716701  s :     0.716701
      pz      :     0.064942  p :     0.249493
      px      :     0.120436
      py      :     0.064114
  8 O s       :     3.485094  s :     3.485094
      pz      :     1.331568  p :     4.451228
      px      :     1.576597
      py      :     1.543064
      dz2     :     0.026597  d :     0.197772
      dxz     :     0.016967
      dyz     :     0.025892
      dx2y2   :     0.070743
      dxy     :     0.057572
  9 F s       :     3.618753  s :     3.618753
      pz      :     1.762404  p :     5.203200
      px      :     1.580368
      py      :     1.860428
      dz2     :     0.027516  d :     0.214627
      dxz     :     0.052739
      dyz     :     0.007623
      dx2y2   :     0.053473
      dxy     :     0.073275
 10 H s       :     0.742100  s :     0.742100
      pz      :     0.077677  p :     0.273852
      px      :     0.123771
      py      :     0.072403
 11 H s       :     0.744844  s :     0.744844
      pz      :     0.104713  p :     0.273703
      px      :     0.073324
      py      :     0.095666
 12 H s       :     0.741040  s :     0.741040
      pz      :     0.074000  p :     0.277800
      px      :     0.076803
      py      :     0.126997


                      *****************************
                      * MAYER POPULATION ANALYSIS *
                      *****************************

  NA   - Mulliken gross atomic population
  ZA   - Total nuclear charge
  QA   - Mulliken gross atomic charge
  VA   - Mayer's total valence
  BVA  - Mayer's bonded valence
  FA   - Mayer's free valence

  ATOM       NA         ZA         QA         VA         BVA        FA
  0 C      5.0840     6.0000     0.9160     3.7183     3.7183    -0.0000
  1 C      6.2499     6.0000    -0.2499     5.3871     5.3871    -0.0000
  2 H      1.1925     1.0000    -0.1925     1.0536     1.0536    -0.0000
  3 H      1.1093     1.0000    -0.1093     1.0420     1.0420     0.0000
  4 C      5.7709     6.0000     0.2291     4.2669     4.2669    -0.0000
  5 C      5.2468     6.0000     0.7532     3.8059     3.8059     0.0000
  6 H      1.0486     1.0000    -0.0486     0.9967     0.9967    -0.0000
  7 H      1.0882     1.0000    -0.0882     1.1534     1.1534    -0.0000
  8 O      8.4578     8.0000    -0.4578     1.9603     1.9603     0.0000
  9 F      9.4004     9.0000    -0.4004     0.9206     0.9206     0.0000
 10 H      1.0724     1.0000    -0.0724     1.0352     1.0352    -0.0000
 11 H      1.1326     1.0000    -0.1326     0.9844     0.9844     0.0000
 12 H      1.1466     1.0000    -0.1466     1.0991     1.0991    -0.0000

  Mayer bond orders larger than 0.100000
B(  0-C ,  1-C ) :   1.3144 B(  0-C , 10-H ) :   0.7416 B(  0-C , 11-H ) :   0.7228 
B(  0-C , 12-H ) :   0.7848 B(  1-C ,  2-H ) :   0.9253 B(  1-C ,  3-H ) :   0.8772 
B(  1-C ,  4-C ) :   1.2297 B(  1-C ,  6-H ) :   0.1471 B(  1-C ,  7-H ) :   0.1239 
B(  1-C , 10-H ) :   0.2316 B(  1-C , 11-H ) :   0.2346 B(  1-C , 12-H ) :   0.2275 
B(  2-H ,  4-C ) :   0.1050 B(  3-H ,  4-C ) :   0.1245 B(  4-C ,  5-C ) :   1.0146 
B(  4-C ,  6-H ) :   0.8043 B(  4-C ,  7-H ) :   0.8998 B(  5-C ,  7-H ) :   0.1546 
B(  5-C ,  8-O ) :   1.8180 B(  5-C ,  9-F ) :   0.7023 B(  8-O ,  9-F ) :   0.1195 


-------
TIMINGS
-------

Total SCF time: 0 days 0 hours 0 min 15 sec 

Total time                  ....      15.447 sec
Sum of individual times     ....      15.281 sec  ( 98.9%)

Fock matrix formation       ....      14.228 sec  ( 92.1%)
  Split-RI-J                ....       0.986 sec  (  6.9% of F)
  Chain of spheres X        ....      10.336 sec  ( 72.6% of F)
  XC integration            ....       2.870 sec  ( 20.2% of F)
    Basis function eval.    ....       0.970 sec  ( 33.8% of XC)
    Density eval.           ....       0.694 sec  ( 24.2% of XC)
    XC-Functional eval.     ....       0.172 sec  (  6.0% of XC)
    XC-Potential eval.      ....       0.922 sec  ( 32.1% of XC)
Diagonalization             ....       0.046 sec  (  0.3%)
Density matrix formation    ....       0.004 sec  (  0.0%)
Population analysis         ....       0.007 sec  (  0.0%)
Initial guess               ....       0.126 sec  (  0.8%)
Orbital Transformation      ....       0.000 sec  (  0.0%)
Orbital Orthonormalization  ....       0.000 sec  (  0.0%)
DIIS solution               ....       0.027 sec  (  0.2%)
SOSCF solution              ....       0.035 sec  (  0.2%)
Grid generation             ....       0.810 sec  (  5.2%)

Maximum memory used throughout the entire SCF-calculation: 52.9 MB


-------------------------------------------------------------------------------
                          DFT DISPERSION CORRECTION                            
                                                                               
                              DFTD3 V3.1  Rev 1                                
                          USING Becke-Johnson damping                          
-------------------------------------------------------------------------------
The B3LYP functional is recognized
Active option DFTDOPT                   ...         4   

molecular C6(AA) [au] = 1310.642953 


            DFT-D V3
 parameters
 s6 scaling factor         :     1.0000 
 a1 scaling factor         :     0.3981 
 s8 scaling factor         :     1.9889 
 a2 scaling factor         :     4.4211 
 ad hoc parameters k1-k3   :    16.0000     1.3333    -4.0000 

 Edisp/kcal,au: -9.706397835616  -0.015468127895 
 E6   /kcal   :  -4.759544836 
 E8   /kcal   :  -4.946852999 
 % E8         :  50.964869596 

-------------------------   ----------------
Dispersion correction           -0.015468128
-------------------------   ----------------


-------------------------   --------------------
FINAL SINGLE POINT ENERGY      -331.320577978761
-------------------------   --------------------


                            ***************************************
                            *     ORCA property calculations      *
                            ***************************************

                                    ---------------------
                                    Active property flags
                                    ---------------------
   (+) Dipole Moment


------------------------------------------------------------------------------
                       ORCA ELECTRIC PROPERTIES CALCULATION
------------------------------------------------------------------------------

Dipole Moment Calculation                       ... on
Quadrupole Moment Calculation                   ... off
Polarizability Calculation                      ... off
GBWName                                         ... 14Feb_SVPD_B3LYP_C2_wt_wb97_typ1_neg.gbw
Electron density file                           ... 14Feb_SVPD_B3LYP_C2_wt_wb97_typ1_neg.scfp
The origin for moment calculation is the CENTER OF MASS  = ( 0.210216,  0.525789 -8.916516)

-------------
DIPOLE MOMENT
-------------
                                X             Y             Z
Electronic contribution:      6.03888      -7.37885      -4.89432
Nuclear contribution   :     -5.92016       8.66755       5.06539
                        -----------------------------------------
Total Dipole Moment    :      0.11872       1.28871       0.17107
                        -----------------------------------------
Magnitude (a.u.)       :      1.30542
Magnitude (Debye)      :      3.31812



--------------------
Rotational spectrum 
--------------------
 
Rotational constants in cm-1:     0.191324     0.076691     0.070269 
Rotational constants in MHz :  5735.753800  2299.148675  2106.608556 

 Dipole components along the rotational axes: 
x,y,z [a.u.] :     0.983847    -0.714555    -0.474953 
x,y,z [Debye]:     2.500739    -1.816255    -1.207235 

 

Timings for individual modules:

Sum of individual times         ...       16.118 sec (=   0.269 min)
GTO integral calculation        ...        0.438 sec (=   0.007 min)   2.7 %
SCF iterations                  ...       15.680 sec (=   0.261 min)  97.3 %
                             ****ORCA TERMINATED NORMALLY****
TOTAL RUN TIME: 0 days 0 hours 0 minutes 16 seconds 503 msec
