
                                        *****************
                                        * O   R   C   A *
                                        *****************

                                            #,                                       
                                            ###                                      
                                            ####                                     
                                            #####                                    
                                            ######                                   
                                           ########,                                 
                                     ,,################,,,,,                         
                               ,,#################################,,                 
                          ,,##########################################,,             
                       ,#########################################, ''#####,          
                    ,#############################################,,   '####,        
                  ,##################################################,,,,####,       
                ,###########''''           ''''###############################       
              ,#####''   ,,,,##########,,,,          '''####'''          '####       
            ,##' ,,,,###########################,,,                        '##       
           ' ,,###''''                  '''############,,,                           
         ,,##''                                '''############,,,,        ,,,,,,###''
      ,#''                                            '''#######################'''  
     '                                                          ''''####''''         
             ,#######,   #######,   ,#######,      ##                                
            ,#'     '#,  ##    ##  ,#'     '#,    #''#        ######   ,####,        
            ##       ##  ##   ,#'  ##            #'  '#       #        #'  '#        
            ##       ##  #######   ##           ,######,      #####,   #    #        
            '#,     ,#'  ##    ##  '#,     ,#' ,#      #,         ##   #,  ,#        
             '#######'   ##     ##  '#######'  #'      '#     #####' # '####'        



                  #######################################################
                  #                        -***-                        #
                  #          Department of theory and spectroscopy      #
                  #    Directorship and core code : Frank Neese         #
                  #        Max Planck Institute fuer Kohlenforschung    #
                  #                Kaiser Wilhelm Platz 1               #
                  #                 D-45470 Muelheim/Ruhr               #
                  #                      Germany                        #
                  #                                                     #
                  #                  All rights reserved                #
                  #                        -***-                        #
                  #######################################################


                         Program Version 5.0.0 -  RELEASE  -
                                (SVN: $Rev: 19529$)
                ($Date: 2021-06-28 11:36:33 +0200 (Mo, 28 Jun 2021) $)


 With contributions from (in alphabetic order):
   Daniel Aravena         : Magnetic Suceptibility
   Michael Atanasov       : Ab Initio Ligand Field Theory (pilot matlab implementation)
   Alexander A. Auer      : GIAO ZORA, VPT2 properties, NMR spectrum
   Ute Becker             : Parallelization
   Giovanni Bistoni       : ED, misc. LED, open-shell LED, HFLD
   Martin Brehm           : Molecular dynamics
   Dmytro Bykov           : SCF Hessian
   Vijay G. Chilkuri      : MRCI spin determinant printing, contributions to CSF-ICE
   Dipayan Datta          : RHF DLPNO-CCSD density
   Achintya Kumar Dutta   : EOM-CC, STEOM-CC
   Dmitry Ganyushin       : Spin-Orbit,Spin-Spin,Magnetic field MRCI
   Miquel Garcia          : C-PCM Hessian, Gaussian charge scheme
   Yang Guo               : DLPNO-NEVPT2, F12-NEVPT2, CIM, IAO-localization
   Andreas Hansen         : Spin unrestricted coupled pair/coupled cluster methods
   Benjamin Helmich-Paris : MC-RPA, TRAH-SCF, COSX integrals
   Lee Huntington         : MR-EOM, pCC
   Robert Izsak           : Overlap fitted RIJCOSX, COSX-SCS-MP3, EOM
   Marcus Kettner         : VPT2
   Christian Kollmar      : KDIIS, OOCD, Brueckner-CCSD(T), CCSD density, CASPT2, CASPT2-K
   Simone Kossmann        : Meta GGA functionals, TD-DFT gradient, OOMP2, MP2 Hessian
   Martin Krupicka        : Initial AUTO-CI
   Lucas Lang             : DCDCAS
   Marvin Lechner         : AUTO-CI (C++ implementation), FIC-MRCC
   Dagmar Lenk            : GEPOL surface, SMD
   Dimitrios Liakos       : Extrapolation schemes; Compound Job, initial MDCI parallelization
   Dimitrios Manganas     : Further ROCIS development; embedding schemes
   Dimitrios Pantazis     : SARC Basis sets
   Anastasios Papadopoulos: AUTO-CI, single reference methods and gradients
   Taras Petrenko         : DFT Hessian,TD-DFT gradient, ASA, ECA, R-Raman, ABS, FL, XAS/XES, NRVS
   Peter Pinski           : DLPNO-MP2, DLPNO-MP2 Gradient
   Christoph Reimann      : Effective Core Potentials
   Marius Retegan         : Local ZFS, SOC
   Christoph Riplinger    : Optimizer, TS searches, QM/MM, DLPNO-CCSD(T), (RO)-DLPNO pert. Triples
   Tobias Risthaus        : Range-separated hybrids, TD-DFT gradient, RPA, STAB
   Michael Roemelt        : Original ROCIS implementation
   Masaaki Saitow         : Open-shell DLPNO-CCSD energy and density
   Barbara Sandhoefer     : DKH picture change effects
   Avijit Sen             : IP-ROCIS
   Kantharuban Sivalingam : CASSCF convergence, NEVPT2, FIC-MRCI
   Bernardo de Souza      : ESD, SOC TD-DFT
   Georgi Stoychev        : AutoAux, RI-MP2 NMR
   Willem Van den Heuvel  : Paramagnetic NMR
   Boris Wezisla          : Elementary symmetry handling
   Frank Wennmohs         : Technical directorship


 We gratefully acknowledge several colleagues who have allowed us to
 interface, adapt or use parts of their codes:
   Stefan Grimme, W. Hujo, H. Kruse, P. Pracht,  : VdW corrections, initial TS optimization,
                  C. Bannwarth, S. Ehlert          DFT functionals, gCP, sTDA/sTD-DF
   Ed Valeev, F. Pavosevic, A. Kumar             : LibInt (2-el integral package), F12 methods
   Garnet Chan, S. Sharma, J. Yang, R. Olivares  : DMRG
   Ulf Ekstrom                                   : XCFun DFT Library
   Mihaly Kallay                                 : mrcc  (arbitrary order and MRCC methods)
   Jiri Pittner, Ondrej Demel                    : Mk-CCSD
   Frank Weinhold                                : gennbo (NPA and NBO analysis)
   Christopher J. Cramer and Donald G. Truhlar   : smd solvation model
   Lars Goerigk                                  : TD-DFT with DH, B97 family of functionals
   V. Asgeirsson, H. Jonsson                     : NEB implementation
   FAccTs GmbH                                   : IRC, NEB, NEB-TS, DLPNO-Multilevel, CI-OPT
                                                   MM, QMMM, 2- and 3-layer-ONIOM, Crystal-QMMM,
                                                   LR-CPCM, SF, NACMEs, symmetry and pop. for TD-DFT,
                                                   nearIR, NL-DFT gradient (VV10), updates on ESD,
                                                   ML-optimized integration grids
   S Lehtola, MJT Oliveira, MAL Marques          : LibXC Library
   Liviu Ungur et al                             : ANISO software


 Your calculation uses the libint2 library for the computation of 2-el integrals
 For citations please refer to: http://libint.valeyev.net

 Your ORCA version has been built with support for libXC version: 5.1.0
 For citations please refer to: https://tddft.org/programs/libxc/

 This ORCA versions uses:
   CBLAS   interface :  Fast vector & matrix operations
   LAPACKE interface :  Fast linear algebra routines
   SCALAPACK package :  Parallel linear algebra routines
   Shared memory     :  Shared parallel matrices
   BLAS/LAPACK       :  OpenBLAS 0.3.15  USE64BITINT DYNAMIC_ARCH NO_AFFINITY Haswell SINGLE_THREADED
        Core in use  :  Haswell
   Copyright (c) 2011-2014, The OpenBLAS Project




***************************************
The coordinates will be read from file: D1.xyz
***************************************


Your calculation utilizes the atom-pairwise dispersion correction
with the Becke-Johnson damping scheme (D3BJ)
Cite in your paper:
S.Grimme, S.Ehrlich, L.Goerigk, J Comput Chem, (2011), 32, 1456–1465 
S.Grimme, J.Antony, S.Ehrlich and H.Krieg, J.Chem.Phys., 132, (2010), 154104 
   

================================================================================

----- Orbital basis set information -----
Your calculation utilizes the basis: def2-TZVP
   F. Weigend and R. Ahlrichs, Phys. Chem. Chem. Phys. 7, 3297 (2005).

----- AuxJ basis set information -----
Your calculation utilizes the auxiliary basis: def2/J
   F. Weigend, Phys. Chem. Chem. Phys. 8, 1057 (2006).

================================================================================
                                        WARNINGS
                       Please study these warnings very carefully!
================================================================================


INFO   : the flag for use of the SHARK integral package has been found!

================================================================================
                                       INPUT FILE
================================================================================
NAME = B3LYP_D1_wb97.com
|  1> !B3LYP D3BJ RIJCOSX def2-TZVP def2/J TightSCF xyzfile                                                                                         
|  2> 
|  3> *xyzfile 0 1 D1.xyz
|  4> 
|  5> %MaxCore 64000
|  6> 
|  7> %pal nprocs 18                                                                                                                                                  
|  8> end  
|  9> 
| 10> %scf
| 11>   MaxIter 150
| 12> end
| 13> 
| 14> 
| 15>                          ****END OF INPUT****
================================================================================

                       ****************************
                       * Single Point Calculation *
                       ****************************

---------------------------------
CARTESIAN COORDINATES (ANGSTROEM)
---------------------------------
  C      3.905947    2.819855   -3.752920
  C      5.295615    3.131515   -4.105334
  C      3.803511    1.374716   -3.260807
  C      3.939934    0.320362   -4.367729
  H      4.105043   -0.655085   -3.907733
  H      3.022801    0.280517   -4.957117
  C      5.105846    0.668022   -5.305463
  C      5.708619    3.468885   -5.324190
  N      6.904696    3.038954   -5.717084
  N      4.981884    4.293570   -6.097457
  H      5.000546    4.101311   -7.087761
  H      4.084693    4.596899   -5.739652
  H      5.963358    2.526112   -3.642391
  H      7.047164    2.066861   -5.473604
  H      7.198145    3.307994   -6.645225
  H      3.282025    2.949187   -4.640259
  H      3.565254    3.514574   -2.982523
  H      4.574833    1.215157   -2.500443
  H      2.843514    1.260845   -2.751465
  F      4.809132    1.150187   -6.414361
  O      6.267366    0.564999   -4.819481

----------------------------
CARTESIAN COORDINATES (A.U.)
----------------------------
  NO LB      ZA    FRAG     MASS         X           Y           Z
   0 C     6.0000    0    12.011    7.381171    5.328753   -7.091990
   1 C     6.0000    0    12.011   10.007263    5.917705   -7.757957
   2 C     6.0000    0    12.011    7.187595    2.597836   -6.162033
   3 C     6.0000    0    12.011    7.445396    0.605397   -8.253812
   4 H     1.0000    0     1.008    7.757407   -1.237930   -7.384545
   5 H     1.0000    0     1.008    5.712267    0.530101   -9.367594
   6 C     6.0000    0    12.011    9.648650    1.262379  -10.025871
   7 C     6.0000    0    12.011   10.787727    6.555244  -10.061262
   8 N     7.0000    0    14.007   13.047984    5.742790  -10.803723
   9 N     7.0000    0    14.007    9.414397    8.113671  -11.522523
  10 H     1.0000    0     1.008    9.449663    7.750356  -13.393928
  11 H     1.0000    0     1.008    7.718951    8.686880  -10.846370
  12 H     1.0000    0     1.008   11.269114    4.773660   -6.883122
  13 H     1.0000    0     1.008   13.317210    3.905801  -10.343612
  14 H     1.0000    0     1.008   13.602523    6.251203  -12.557656
  15 H     1.0000    0     1.008    6.202128    5.573156   -8.768819
  16 H     1.0000    0     1.008    6.737353    6.641582   -5.636151
  17 H     1.0000    0     1.008    8.645182    2.296314   -4.725153
  18 H     1.0000    0     1.008    5.373463    2.382653   -5.199515
  19 F     9.0000    0    18.998    9.087942    2.173538  -12.121386
  20 O     8.0000    0    15.999   11.843606    1.067694   -9.107499

--------------------------------
INTERNAL COORDINATES (ANGSTROEM)
--------------------------------
 C      0   0   0     0.000000000000     0.00000000     0.00000000
 C      1   0   0     1.467141978358     0.00000000     0.00000000
 C      1   2   0     1.530063517905   109.95648736     0.00000000
 C      3   1   2     1.534779619809   114.26304417   287.08499053
 H      4   3   1     1.091033620284   108.87872696   165.98404284
 H      4   3   1     1.090916052212   109.87805700   285.05600920
 C      4   3   1     1.536086504513   110.62627363    44.77550193
 C      2   1   3     1.330414023142   124.60886225   117.82427755
 N      8   2   1     1.330340554584   117.88637737   216.04032271
 N      8   2   1     1.343945232509   120.98842718    40.55760065
 H     10   8   2     1.008967339645   115.96355102   215.01872382
 H     10   8   2     1.012415453042   117.36824842   356.14625482
 H      2   1   3     1.013266581664   112.80126275   337.30529129
 H      9   8   2     1.012197712497   111.46140142    44.03797432
 H      9   8   2     1.009921403817   116.52360736   180.07724841
 H      1   2   3     1.092418234860   108.70639248   240.06343406
 H      1   2   3     1.091887397005   109.26080405   121.65715898
 H      3   1   2     1.094783130927   108.29253614    49.74675079
 H      3   1   2     1.092698650205   107.88852219   164.36908434
 F      7   4   3     1.245061367518   116.77397318   256.40244270
 O      7   4   3     1.263298100477   116.39547193    69.30146499

---------------------------
INTERNAL COORDINATES (A.U.)
---------------------------
 C      0   0   0     0.000000000000     0.00000000     0.00000000
 C      1   0   0     2.772496538677     0.00000000     0.00000000
 C      1   2   0     2.891401016345   109.95648736     0.00000000
 C      3   1   2     2.900313157364   114.26304417   287.08499053
 H      4   3   1     2.061754745237   108.87872696   165.98404284
 H      4   3   1     2.061532573779   109.87805700   285.05600920
 C      4   3   1     2.902782811542   110.62627363    44.77550193
 C      2   1   3     2.514118148466   124.60886225   117.82427755
 N      8   2   1     2.513979313013   117.88637737   216.04032271
 N      8   2   1     2.539688428430   120.98842718    40.55760065
 H     10   8   2     1.906671950000   115.96355102   215.01872382
 H     10   8   2     1.913187940000   117.36824842   356.14625482
 H      2   1   3     1.914796340000   112.80126275   337.30529129
 H      9   8   2     1.912776470000   111.46140142    44.03797432
 H      9   8   2     1.908474870000   116.52360736   180.07724841
 H      1   2   3     2.064371287587   108.70639248   240.06343406
 H      1   2   3     2.063368149420   109.26080405   121.65715898
 H      3   1   2     2.068840293488   108.29253614    49.74675079
 H      3   1   2     2.064901195792   107.88852219   164.36908434
 F      7   4   3     2.352825004535   116.77397318   256.40244270
 O      7   4   3     2.387287435404   116.39547193    69.30146499

---------------------
BASIS SET INFORMATION
---------------------
There are 5 groups of distinct atoms

 Group   1 Type C   : 11s6p2d1f contracted to 5s3p2d1f pattern {62111/411/11/1}
 Group   2 Type H   : 5s1p contracted to 3s1p pattern {311/1}
 Group   3 Type N   : 11s6p2d1f contracted to 5s3p2d1f pattern {62111/411/11/1}
 Group   4 Type F   : 11s6p2d1f contracted to 5s3p2d1f pattern {62111/411/11/1}
 Group   5 Type O   : 11s6p2d1f contracted to 5s3p2d1f pattern {62111/411/11/1}

Atom   0C    basis set group =>   1
Atom   1C    basis set group =>   1
Atom   2C    basis set group =>   1
Atom   3C    basis set group =>   1
Atom   4H    basis set group =>   2
Atom   5H    basis set group =>   2
Atom   6C    basis set group =>   1
Atom   7C    basis set group =>   1
Atom   8N    basis set group =>   3
Atom   9N    basis set group =>   3
Atom  10H    basis set group =>   2
Atom  11H    basis set group =>   2
Atom  12H    basis set group =>   2
Atom  13H    basis set group =>   2
Atom  14H    basis set group =>   2
Atom  15H    basis set group =>   2
Atom  16H    basis set group =>   2
Atom  17H    basis set group =>   2
Atom  18H    basis set group =>   2
Atom  19F    basis set group =>   4
Atom  20O    basis set group =>   5
---------------------------------
AUXILIARY/J BASIS SET INFORMATION
---------------------------------
There are 5 groups of distinct atoms

 Group   1 Type C   : 12s5p4d2f1g contracted to 6s4p3d1f1g pattern {711111/2111/211/2/1}
 Group   2 Type H   : 5s2p1d contracted to 3s1p1d pattern {311/2/1}
 Group   3 Type N   : 12s5p4d2f1g contracted to 6s4p3d1f1g pattern {711111/2111/211/2/1}
 Group   4 Type F   : 12s5p4d2f1g contracted to 6s4p3d1f1g pattern {711111/2111/211/2/1}
 Group   5 Type O   : 12s5p4d2f1g contracted to 6s4p3d1f1g pattern {711111/2111/211/2/1}

Atom   0C    basis set group =>   1
Atom   1C    basis set group =>   1
Atom   2C    basis set group =>   1
Atom   3C    basis set group =>   1
Atom   4H    basis set group =>   2
Atom   5H    basis set group =>   2
Atom   6C    basis set group =>   1
Atom   7C    basis set group =>   1
Atom   8N    basis set group =>   3
Atom   9N    basis set group =>   3
Atom  10H    basis set group =>   2
Atom  11H    basis set group =>   2
Atom  12H    basis set group =>   2
Atom  13H    basis set group =>   2
Atom  14H    basis set group =>   2
Atom  15H    basis set group =>   2
Atom  16H    basis set group =>   2
Atom  17H    basis set group =>   2
Atom  18H    basis set group =>   2
Atom  19F    basis set group =>   4
Atom  20O    basis set group =>   5


           ************************************************************
           *        Program running with 18 parallel MPI-processes    *
           *              working on a common directory               *
           ************************************************************
------------------------------------------------------------------------------
                           ORCA GTO INTEGRAL CALCULATION
                           -- RI-GTO INTEGRALS CHOSEN --
------------------------------------------------------------------------------
------------------------------------------------------------------------------
                   ___                                                        
                  /   \      - P O W E R E D   B Y -                         
                 /     \                                                     
                 |  |  |   _    _      __       _____    __    __             
                 |  |  |  | |  | |    /  \     |  _  \  |  |  /  |          
                  \  \/   | |  | |   /    \    | | | |  |  | /  /          
                 / \  \   | |__| |  /  /\  \   | |_| |  |  |/  /          
                |  |  |   |  __  | /  /__\  \  |    /   |      \           
                |  |  |   | |  | | |   __   |  |    \   |  |\   \          
                \     /   | |  | | |  |  |  |  | |\  \  |  | \   \       
                 \___/    |_|  |_| |__|  |__|  |_| \__\ |__|  \__/        
                                                                              
                      - O R C A' S   B I G   F R I E N D -                    
                                      &                                       
                       - I N T E G R A L  F E E D E R -                       
                                                                              
 v1 FN, 2020, v2 2021                                                         
------------------------------------------------------------------------------


Reading SHARK input file B3LYP_D1_wb97.SHARKINP.tmp ... ok
----------------------
SHARK INTEGRAL PACKAGE
----------------------

Number of atoms                             ...     21
Number of basis functions                   ...    376
Number of shells                            ...    154
Maximum angular momentum                    ...      3
Integral batch strategy                     ... SHARK/LIBINT Hybrid
RI-J (if used) integral strategy            ... SPLIT-RIJ (Revised 2003 algorithm where possible)
Printlevel                                  ...      1
Contraction scheme used                     ... SEGMENTED contraction
Coulomb Range Separation                    ... NOT USED
Exchange Range Separation                   ... NOT USED
Finite Nucleus Model                        ... NOT USED
Auxiliary Coulomb fitting basis             ... AVAILABLE
   # of basis functions in Aux-J            ...    611
   # of shells in Aux-J                     ...    205
   Maximum angular momentum in Aux-J        ...      4
Auxiliary J/K fitting basis                 ... NOT available
Auxiliary Correlation fitting basis         ... NOT available
Auxiliary 'external' fitting basis          ... NOT available
Integral threshold                          ...     2.500000e-11
Primitive cut-off                           ...     2.500000e-12
Primitive pair pre-selection threshold      ...     2.500000e-12

Calculating pre-screening integrals         ... done (  0.2 sec) Dimension = 154
Organizing shell pair data                  ... done (  0.2 sec)
Shell pair information
Total number of shell pairs                 ...     11935
Shell pairs after pre-screening             ...     10904
Total number of primitive shell pairs       ...     35764
Primitive shell pairs kept                  ...     23992
          la=0 lb=0:   3059 shell pairs
          la=1 lb=0:   3138 shell pairs
          la=1 lb=1:    822 shell pairs
          la=2 lb=0:   1509 shell pairs
          la=2 lb=1:    786 shell pairs
          la=2 lb=2:    204 shell pairs
          la=3 lb=0:    746 shell pairs
          la=3 lb=1:    393 shell pairs
          la=3 lb=2:    193 shell pairs
          la=3 lb=3:     54 shell pairs

Calculating one electron integrals          ... done (  0.0 sec)
Calculating RI/J V-Matrix + Cholesky decomp.... done (  0.1 sec)
Calculating Nuclear repulsion               ... done (  0.0 sec) ENN=    595.312497094716 Eh

SHARK setup successfully completed in   0.6 seconds

Maximum memory used throughout the entire GTOINT-calculation: 18.7 MB


           ************************************************************
           *        Program running with 18 parallel MPI-processes    *
           *              working on a common directory               *
           ************************************************************
-------------------------------------------------------------------------------
                                 ORCA SCF
-------------------------------------------------------------------------------

------------
SCF SETTINGS
------------
Hamiltonian:
 Density Functional     Method          .... DFT(GTOs)
 Exchange Functional    Exchange        .... B88
   X-Alpha parameter    XAlpha          ....  0.666667
   Becke's b parameter  XBeta           ....  0.004200
 Correlation Functional Correlation     .... LYP
 LDA part of GGA corr.  LDAOpt          .... VWN-5
 Gradients option       PostSCFGGA      .... off
 Hybrid DFT is turned on
   Fraction HF Exchange ScalHFX         ....  0.200000
   Scaling of DF-GGA-X  ScalDFX         ....  0.720000
   Scaling of DF-GGA-C  ScalDFC         ....  0.810000
   Scaling of DF-LDA-C  ScalLDAC        ....  1.000000
   Perturbative correction              ....  0.000000
   Density functional embedding theory  .... OFF
   NL short-range parameter             ....  4.800000
 RI-approximation to the Coulomb term is turned on
   Number of AuxJ basis functions       .... 611
   RIJ-COSX (HFX calculated with COS-X)).... on


General Settings:
 Integral files         IntName         .... B3LYP_D1_wb97
 Hartree-Fock type      HFTyp           .... RHF
 Total Charge           Charge          ....    0
 Multiplicity           Mult            ....    1
 Number of Electrons    NEL             ....   78
 Basis Dimension        Dim             ....  376
 Nuclear Repulsion      ENuc            ....    595.3124970947 Eh

Convergence Acceleration:
 DIIS                   CNVDIIS         .... on
   Start iteration      DIISMaxIt       ....    12
   Startup error        DIISStart       ....  0.200000
   # of expansion vecs  DIISMaxEq       ....     5
   Bias factor          DIISBfac        ....   1.050
   Max. coefficient     DIISMaxC        ....  10.000
 Trust-Rad. Augm. Hess. CNVTRAH         .... auto
   Auto Start mean grad. ratio tolernc. ....  1.125000
   Auto Start start iteration           ....    20
   Auto Start num. interpolation iter.  ....    10
   Max. Number of Micro iterations      ....    16
   Max. Number of Macro iterations      .... Maxiter - #DIIS iter
   Number of Davidson start vectors     ....     2
   Converg. threshold I  (grad. norm)   ....   1.000e-05
   Converg. threshold II (energy diff.) ....   1.000e-08
   Grad. Scal. Fac. for Micro threshold ....   0.100
   Minimum threshold for Micro iter.    ....   0.010
   NR start threshold (gradient norm)   ....   0.001
   Initial trust radius                 ....   0.400
   Minimum AH scaling param. (alpha)    ....   1.000
   Maximum AH scaling param. (alpha)    .... 1000.000
   Orbital update algorithm             .... Taylor
   White noise on init. David. guess    .... on
   Maximum white noise                  ....   0.010
   Quad. conv. algorithm                .... NR
 SOSCF                  CNVSOSCF        .... on
   Start iteration      SOSCFMaxIt      ....   150
   Startup grad/error   SOSCFStart      ....  0.003300
 Level Shifting         CNVShift        .... on
   Level shift para.    LevelShift      ....    0.2500
   Turn off err/grad.   ShiftErr        ....    0.0010
 Zerner damping         CNVZerner       .... off
 Static damping         CNVDamp         .... on
   Fraction old density DampFac         ....    0.7000
   Max. Damping (<1)    DampMax         ....    0.9800
   Min. Damping (>=0)   DampMin         ....    0.0000
   Turn off err/grad.   DampErr         ....    0.1000
 Fernandez-Rico         CNVRico         .... off

SCF Procedure:
 Maximum # iterations   MaxIter         ....   150
 SCF integral mode      SCFMode         .... Direct
   Integral package                     .... SHARK and LIBINT hybrid scheme
 Reset frequency        DirectResetFreq ....    20
 Integral Threshold     Thresh          ....  2.500e-11 Eh
 Primitive CutOff       TCut            ....  2.500e-12 Eh

Convergence Tolerance:
 Convergence Check Mode ConvCheckMode   .... Total+1el-Energy
 Convergence forced     ConvForced      .... 0
 Energy Change          TolE            ....  1.000e-08 Eh
 1-El. energy change                    ....  1.000e-05 Eh
 Orbital Gradient       TolG            ....  1.000e-05
 Orbital Rotation angle TolX            ....  1.000e-05
 DIIS Error             TolErr          ....  5.000e-07


Diagonalization of the overlap matrix:
Smallest eigenvalue                        ... 6.135e-05
Time for diagonalization                   ...    0.031 sec
Threshold for overlap eigenvalues          ... 1.000e-08
Number of eigenvalues below threshold      ... 0
Time for construction of square roots      ...    0.052 sec
Total time needed                          ...    0.084 sec

Time for model grid setup =    0.149 sec

------------------------------
INITIAL GUESS: MODEL POTENTIAL
------------------------------
Loading Hartree-Fock densities                     ... done
Calculating cut-offs                               ... done
Initializing the effective Hamiltonian             ... done
Setting up the integral package (SHARK)            ... done
Starting the Coulomb interaction                   ... done (   0.1 sec)
Reading the grid                                   ... done
Mapping shells                                     ... done
Starting the XC term evaluation                    ... done (   0.1 sec)
  promolecular density results
     # of electrons  =     78.001858614
     EX              =    -65.641804930
     EC              =     -2.679950328
     EX+EC           =    -68.321755258
Transforming the Hamiltonian                       ... done (   0.0 sec)
Diagonalizing the Hamiltonian                      ... done (   0.0 sec)
Back transforming the eigenvectors                 ... done (   0.0 sec)
Now organizing SCF variables                       ... done
                      ------------------
                      INITIAL GUESS DONE (   0.4 sec)
                      ------------------
-------------------
DFT GRID GENERATION
-------------------

General Integration Accuracy     IntAcc      ... 4.388
Radial Grid Type                 RadialGrid  ... OptM3 with GC (2021)
Angular Grid (max. ang.)         AngularGrid ... 4 (Lebedev-302)
Angular grid pruning method      GridPruning ... 4 (adaptive)
Weight generation scheme         WeightScheme... Becke
Basis function cutoff            BFCut       ... 1.0000e-11
Integration weight cutoff        WCut        ... 1.0000e-14
Angular grids for H and He will be reduced by one unit
Partially contracted basis set               ... off
Rotationally invariant grid construction     ... off

Total number of grid points                  ...    95071
Total number of batches                      ...     1493
Average number of points per batch           ...       63
Average number of grid points per atom       ...     4527
Time for grid setup =    0.707 sec

--------------------
COSX GRID GENERATION
--------------------

GRIDX 1
-------
General Integration Accuracy     IntAcc      ... 3.816
Radial Grid Type                 RadialGrid  ... OptM3 with GC (2021)
Angular Grid (max. ang.)         AngularGrid ... 1 (Lebedev-50)
Angular grid pruning method      GridPruning ... 4 (adaptive)
Weight generation scheme         WeightScheme... Becke
Basis function cutoff            BFCut       ... 1.0000e-11
Integration weight cutoff        WCut        ... 1.0000e-14
Angular grids for H and He will be reduced by one unit
Partially contracted basis set               ... on
Rotationally invariant grid construction     ... off

Total number of grid points                  ...    12108
Total number of batches                      ...      202
Average number of points per batch           ...       59
Average number of grid points per atom       ...      577
UseSFitting                                  ... on

GRIDX 2
-------
General Integration Accuracy     IntAcc      ... 4.020
Radial Grid Type                 RadialGrid  ... OptM3 with GC (2021)
Angular Grid (max. ang.)         AngularGrid ... 2 (Lebedev-110)
Angular grid pruning method      GridPruning ... 4 (adaptive)
Weight generation scheme         WeightScheme... Becke
Basis function cutoff            BFCut       ... 1.0000e-11
Integration weight cutoff        WCut        ... 1.0000e-14
Angular grids for H and He will be reduced by one unit
Partially contracted basis set               ... on
Rotationally invariant grid construction     ... off

Total number of grid points                  ...    25973
Total number of batches                      ...      417
Average number of points per batch           ...       62
Average number of grid points per atom       ...     1237
UseSFitting                                  ... on

GRIDX 3
-------
General Integration Accuracy     IntAcc      ... 4.338
Radial Grid Type                 RadialGrid  ... OptM3 with GC (2021)
Angular Grid (max. ang.)         AngularGrid ... 3 (Lebedev-194)
Angular grid pruning method      GridPruning ... 4 (adaptive)
Weight generation scheme         WeightScheme... Becke
Basis function cutoff            BFCut       ... 1.0000e-11
Integration weight cutoff        WCut        ... 1.0000e-14
Angular grids for H and He will be reduced by one unit
Partially contracted basis set               ... on
Rotationally invariant grid construction     ... off

Total number of grid points                  ...    56851
Total number of batches                      ...      897
Average number of points per batch           ...       63
Average number of grid points per atom       ...     2707
UseSFitting                                  ... on

Time for X-Grid setup             =    0.687 sec

--------------
SCF ITERATIONS
--------------
ITER       Energy         Delta-E        Max-DP      RMS-DP      [F,P]     Damp
               ***  Starting incremental Fock matrix formation  ***
  0   -519.2106963101   0.000000000000 0.13045571  0.00161508  0.2999357 0.7000
  1   -519.4490138702  -0.238317560075 0.11860541  0.00127383  0.1270027 0.7000
                               ***Turning on DIIS***
  2   -519.5307225337  -0.081708663519 0.18362193  0.00188330  0.0412115 0.0000
  3   -519.6655728246  -0.134850290945 0.09460795  0.00105566  0.0716658 0.0000
  4   -519.6968831180  -0.031310293347 0.04526868  0.00039587  0.0265992 0.0000
  5   -519.6995258387  -0.002642720727 0.01391484  0.00013609  0.0112401 0.0000
                      *** Initiating the SOSCF procedure ***
                           *** Shutting down DIIS ***
                      *** Re-Reading the Fockian *** 
                      *** Removing any level shift *** 
ITER      Energy       Delta-E        Grad      Rot      Max-DP    RMS-DP
  6   -519.69974341  -0.0002175751  0.000378  0.000378  0.002814  0.000052
               *** Restarting incremental Fock matrix formation ***
  7   -519.69979180  -0.0000483831  0.000197  0.001016  0.002043  0.000037
  8   -519.69979371  -0.0000019129  0.000139  0.000671  0.001029  0.000019
  9   -519.69979413  -0.0000004228  0.000131  0.000371  0.000723  0.000014
 10   -519.69979465  -0.0000005137  0.000063  0.000145  0.000248  0.000005
 11   -519.69979465  -0.0000000060  0.000047  0.000141  0.000261  0.000004
 12   -519.69979476  -0.0000001064  0.000013  0.000038  0.000099  0.000001
 13   -519.69979476   0.0000000003  0.000014  0.000016  0.000049  0.000001
                  ***Gradient check signals convergence***
              ***Rediagonalizing the Fockian in SOSCF/NRSCF***

               *****************************************************
               *                     SUCCESS                       *
               *           SCF CONVERGED AFTER  14 CYCLES          *
               *****************************************************

Old exchange energy                            =    -13.342019460 Eh
New exchange energy                            =    -13.342016962 Eh
Exchange energy change after final integration =      0.000002498 Eh
Total energy after final integration           =   -519.699792272 Eh
Final COS-X integration done in                =     2.698 sec

----------------
TOTAL SCF ENERGY
----------------

Total Energy       :         -519.69979227 Eh          -14141.75030 eV

Components:
Nuclear Repulsion  :          595.31249709 Eh           16199.27660 eV
Electronic Energy  :        -1115.01228937 Eh          -30341.02690 eV
One Electron Energy:        -1890.34568692 Eh          -51438.92125 eV
Two Electron Energy:          775.33339755 Eh           21097.89434 eV
Max COSX asymmetry :            0.00000166 Eh               0.00005 eV

Virial components:
Potential Energy   :        -1037.94343038 Eh          -28243.87663 eV
Kinetic Energy     :          518.24363811 Eh           14102.12633 eV
Virial Ratio       :            2.00280979


DFT components:
N(Alpha)           :       39.000088904244 electrons
N(Beta)            :       39.000088904244 electrons
N(Total)           :       78.000177808489 electrons
E(X)               :      -53.043107838292 Eh       
E(C)               :       -3.156973002172 Eh       
E(XC)              :      -56.200080840463 Eh       
DFET-embed. en.    :        0.000000000000 Eh       

---------------
SCF CONVERGENCE
---------------

  Last Energy change         ...   -1.2608e-08  Tolerance :   1.0000e-08
  Last MAX-Density change    ...    1.5543e-15  Tolerance :   1.0000e-07
  Last RMS-Density change    ...    1.6033e-17  Tolerance :   5.0000e-09
  Last Orbital Gradient      ...    1.7636e-06  Tolerance :   1.0000e-05
  Last Orbital Rotation      ...    2.8975e-06  Tolerance :   1.0000e-05

             **** THE GBW FILE WAS UPDATED (B3LYP_D1_wb97.gbw) ****
             **** DENSITY B3LYP_D1_wb97.scfp WAS UPDATED ****
             **** ENERGY FILE WAS UPDATED (B3LYP_D1_wb97.en.tmp) ****
             **** THE GBW FILE WAS UPDATED (B3LYP_D1_wb97.gbw) ****
             **** DENSITY B3LYP_D1_wb97.scfp WAS UPDATED ****
----------------
ORBITAL ENERGIES
----------------

  NO   OCC          E(Eh)            E(eV) 
   0   2.0000     -24.758937      -673.7249 
   1   2.0000     -19.130920      -520.5788 
   2   2.0000     -14.316256      -389.5651 
   3   2.0000     -14.295043      -388.9879 
   4   2.0000     -10.352830      -281.7148 
   5   2.0000     -10.207542      -277.7613 
   6   2.0000     -10.195668      -277.4382 
   7   2.0000     -10.174230      -276.8549 
   8   2.0000     -10.156556      -276.3739 
   9   2.0000     -10.093664      -274.6626 
  10   2.0000      -1.332315       -36.2541 
  11   2.0000      -1.038230       -28.2517 
  12   2.0000      -0.958820       -26.0908 
  13   2.0000      -0.869895       -23.6710 
  14   2.0000      -0.815912       -22.2021 
  15   2.0000      -0.750697       -20.4275 
  16   2.0000      -0.694873       -18.9085 
  17   2.0000      -0.660909       -17.9842 
  18   2.0000      -0.608349       -16.5540 
  19   2.0000      -0.577849       -15.7241 
  20   2.0000      -0.558149       -15.1880 
  21   2.0000      -0.541657       -14.7392 
  22   2.0000      -0.532961       -14.5026 
  23   2.0000      -0.518800       -14.1173 
  24   2.0000      -0.501225       -13.6390 
  25   2.0000      -0.466920       -12.7055 
  26   2.0000      -0.459376       -12.5003 
  27   2.0000      -0.440842       -11.9959 
  28   2.0000      -0.430338       -11.7101 
  29   2.0000      -0.397980       -10.8296 
  30   2.0000      -0.385394       -10.4871 
  31   2.0000      -0.368105       -10.0166 
  32   2.0000      -0.361886        -9.8474 
  33   2.0000      -0.347372        -9.4525 
  34   2.0000      -0.335643        -9.1333 
  35   2.0000      -0.322195        -8.7674 
  36   2.0000      -0.298745        -8.1293 
  37   2.0000      -0.263885        -7.1807 
  38   2.0000      -0.170589        -4.6420 
  39   0.0000      -0.037310        -1.0153 
  40   0.0000       0.023473         0.6387 
  41   0.0000       0.044377         1.2076 
  42   0.0000       0.055131         1.5002 
  43   0.0000       0.064162         1.7459 
  44   0.0000       0.075737         2.0609 
  45   0.0000       0.084702         2.3048 
  46   0.0000       0.094309         2.5663 
  47   0.0000       0.109411         2.9772 
  48   0.0000       0.113170         3.0795 
  49   0.0000       0.121139         3.2964 
  50   0.0000       0.134022         3.6469 
  51   0.0000       0.150096         4.0843 
  52   0.0000       0.167252         4.5511 
  53   0.0000       0.168824         4.5939 
  54   0.0000       0.180831         4.9207 
  55   0.0000       0.199549         5.4300 
  56   0.0000       0.207541         5.6475 
  57   0.0000       0.213864         5.8195 
  58   0.0000       0.232653         6.3308 
  59   0.0000       0.234872         6.3912 
  60   0.0000       0.242901         6.6097 
  61   0.0000       0.268832         7.3153 
  62   0.0000       0.275402         7.4941 
  63   0.0000       0.287533         7.8242 
  64   0.0000       0.298060         8.1106 
  65   0.0000       0.300355         8.1731 
  66   0.0000       0.325045         8.8449 
  67   0.0000       0.334067         9.0904 
  68   0.0000       0.339680         9.2432 
  69   0.0000       0.348439         9.4815 
  70   0.0000       0.359512         9.7828 
  71   0.0000       0.367688        10.0053 
  72   0.0000       0.372129        10.1261 
  73   0.0000       0.386189        10.5087 
  74   0.0000       0.388374        10.5682 
  75   0.0000       0.396065        10.7775 
  76   0.0000       0.406720        11.0674 
  77   0.0000       0.413486        11.2515 
  78   0.0000       0.417551        11.3621 
  79   0.0000       0.423622        11.5273 
  80   0.0000       0.431846        11.7511 
  81   0.0000       0.443385        12.0651 
  82   0.0000       0.447701        12.1826 
  83   0.0000       0.454707        12.3732 
  84   0.0000       0.458166        12.4673 
  85   0.0000       0.463809        12.6209 
  86   0.0000       0.472838        12.8666 
  87   0.0000       0.475475        12.9383 
  88   0.0000       0.483144        13.1470 
  89   0.0000       0.497257        13.5310 
  90   0.0000       0.511100        13.9077 
  91   0.0000       0.531343        14.4586 
  92   0.0000       0.535859        14.5815 
  93   0.0000       0.541970        14.7477 
  94   0.0000       0.560503        15.2521 
  95   0.0000       0.578644        15.7457 
  96   0.0000       0.580704        15.8018 
  97   0.0000       0.595973        16.2172 
  98   0.0000       0.606129        16.4936 
  99   0.0000       0.620549        16.8860 
 100   0.0000       0.643873        17.5207 
 101   0.0000       0.654288        17.8041 
 102   0.0000       0.685955        18.6658 
 103   0.0000       0.694523        18.8989 
 104   0.0000       0.706013        19.2116 
 105   0.0000       0.726059        19.7571 
 106   0.0000       0.753232        20.4965 
 107   0.0000       0.758982        20.6529 
 108   0.0000       0.778497        21.1840 
 109   0.0000       0.801728        21.8161 
 110   0.0000       0.820845        22.3363 
 111   0.0000       0.823856        22.4183 
 112   0.0000       0.839976        22.8569 
 113   0.0000       0.871472        23.7139 
 114   0.0000       0.880849        23.9691 
 115   0.0000       0.896684        24.4000 
 116   0.0000       0.909123        24.7385 
 117   0.0000       0.938368        25.5343 
 118   0.0000       0.946030        25.7428 
 119   0.0000       0.968731        26.3605 
 120   0.0000       0.970771        26.4160 
 121   0.0000       1.005210        27.3532 
 122   0.0000       1.024957        27.8905 
 123   0.0000       1.027503        27.9598 
 124   0.0000       1.040805        28.3217 
 125   0.0000       1.051299        28.6073 
 126   0.0000       1.078086        29.3362 
 127   0.0000       1.083527        29.4843 
 128   0.0000       1.109624        30.1944 
 129   0.0000       1.141926        31.0734 
 130   0.0000       1.170600        31.8536 
 131   0.0000       1.175753        31.9939 
 132   0.0000       1.201801        32.7027 
 133   0.0000       1.210291        32.9337 
 134   0.0000       1.229875        33.4666 
 135   0.0000       1.244000        33.8510 
 136   0.0000       1.255127        34.1537 
 137   0.0000       1.270742        34.5786 
 138   0.0000       1.292561        35.1724 
 139   0.0000       1.311421        35.6856 
 140   0.0000       1.322058        35.9750 
 141   0.0000       1.340429        36.4749 
 142   0.0000       1.367245        37.2046 
 143   0.0000       1.377438        37.4820 
 144   0.0000       1.414572        38.4925 
 145   0.0000       1.415722        38.5238 
 146   0.0000       1.435105        39.0512 
 147   0.0000       1.451823        39.5061 
 148   0.0000       1.470182        40.0057 
 149   0.0000       1.506772        41.0014 
 150   0.0000       1.516693        41.2713 
 151   0.0000       1.535740        41.7896 
 152   0.0000       1.543582        42.0030 
 153   0.0000       1.560309        42.4582 
 154   0.0000       1.566682        42.6316 
 155   0.0000       1.589537        43.2535 
 156   0.0000       1.603300        43.6280 
 157   0.0000       1.612842        43.8877 
 158   0.0000       1.621897        44.1341 
 159   0.0000       1.648251        44.8512 
 160   0.0000       1.660967        45.1972 
 161   0.0000       1.664242        45.2863 
 162   0.0000       1.682232        45.7759 
 163   0.0000       1.694088        46.0985 
 164   0.0000       1.709348        46.5137 
 165   0.0000       1.720344        46.8129 
 166   0.0000       1.725529        46.9540 
 167   0.0000       1.754905        47.7534 
 168   0.0000       1.778652        48.3996 
 169   0.0000       1.803843        49.0851 
 170   0.0000       1.809990        49.2523 
 171   0.0000       1.821859        49.5753 
 172   0.0000       1.854943        50.4756 
 173   0.0000       1.871252        50.9194 
 174   0.0000       1.881755        51.2052 
 175   0.0000       1.910051        51.9751 
 176   0.0000       1.912391        52.0388 
 177   0.0000       1.934226        52.6330 
 178   0.0000       1.953612        53.1605 
 179   0.0000       1.970618        53.6232 
 180   0.0000       1.982361        53.9428 
 181   0.0000       2.003316        54.5130 
 182   0.0000       2.025332        55.1121 
 183   0.0000       2.039126        55.4874 
 184   0.0000       2.057418        55.9852 
 185   0.0000       2.080507        56.6135 
 186   0.0000       2.102418        57.2097 
 187   0.0000       2.108292        57.3695 
 188   0.0000       2.126909        57.8761 
 189   0.0000       2.137696        58.1697 
 190   0.0000       2.164009        58.8857 
 191   0.0000       2.188422        59.5500 
 192   0.0000       2.213767        60.2397 
 193   0.0000       2.226112        60.5756 
 194   0.0000       2.233192        60.7682 
 195   0.0000       2.268130        61.7190 
 196   0.0000       2.289972        62.3133 
 197   0.0000       2.302721        62.6602 
 198   0.0000       2.330132        63.4061 
 199   0.0000       2.360595        64.2351 
 200   0.0000       2.370442        64.5030 
 201   0.0000       2.412102        65.6366 
 202   0.0000       2.417695        65.7888 
 203   0.0000       2.421301        65.8870 
 204   0.0000       2.435522        66.2739 
 205   0.0000       2.452792        66.7439 
 206   0.0000       2.462854        67.0177 
 207   0.0000       2.474760        67.3416 
 208   0.0000       2.491955        67.8095 
 209   0.0000       2.499651        68.0190 
 210   0.0000       2.543325        69.2074 
 211   0.0000       2.549443        69.3739 
 212   0.0000       2.561861        69.7118 
 213   0.0000       2.586704        70.3878 
 214   0.0000       2.595162        70.6179 
 215   0.0000       2.606849        70.9360 
 216   0.0000       2.611206        71.0545 
 217   0.0000       2.628646        71.5291 
 218   0.0000       2.636634        71.7465 
 219   0.0000       2.652090        72.1670 
 220   0.0000       2.664414        72.5024 
 221   0.0000       2.687230        73.1232 
 222   0.0000       2.710561        73.7581 
 223   0.0000       2.731256        74.3213 
 224   0.0000       2.745276        74.7028 
 225   0.0000       2.765045        75.2407 
 226   0.0000       2.789603        75.9090 
 227   0.0000       2.802208        76.2520 
 228   0.0000       2.824536        76.8595 
 229   0.0000       2.849976        77.5518 
 230   0.0000       2.856578        77.7315 
 231   0.0000       2.882042        78.4244 
 232   0.0000       2.905509        79.0629 
 233   0.0000       2.918681        79.4213 
 234   0.0000       2.936654        79.9104 
 235   0.0000       2.951903        80.3254 
 236   0.0000       2.970238        80.8243 
 237   0.0000       3.010406        81.9173 
 238   0.0000       3.035849        82.6096 
 239   0.0000       3.043320        82.8129 
 240   0.0000       3.067898        83.4818 
 241   0.0000       3.077995        83.7565 
 242   0.0000       3.091610        84.1270 
 243   0.0000       3.093140        84.1686 
 244   0.0000       3.109542        84.6149 
 245   0.0000       3.119430        84.8840 
 246   0.0000       3.138829        85.4119 
 247   0.0000       3.143826        85.5478 
 248   0.0000       3.160757        86.0086 
 249   0.0000       3.176612        86.4400 
 250   0.0000       3.187299        86.7308 
 251   0.0000       3.206666        87.2578 
 252   0.0000       3.212584        87.4188 
 253   0.0000       3.238894        88.1348 
 254   0.0000       3.246077        88.3302 
 255   0.0000       3.259977        88.7085 
 256   0.0000       3.269246        88.9607 
 257   0.0000       3.289002        89.4983 
 258   0.0000       3.307812        90.0101 
 259   0.0000       3.326488        90.5183 
 260   0.0000       3.338215        90.8375 
 261   0.0000       3.357895        91.3730 
 262   0.0000       3.375510        91.8523 
 263   0.0000       3.395147        92.3866 
 264   0.0000       3.407892        92.7335 
 265   0.0000       3.424187        93.1769 
 266   0.0000       3.437579        93.5413 
 267   0.0000       3.470079        94.4256 
 268   0.0000       3.491951        95.0208 
 269   0.0000       3.508582        95.4734 
 270   0.0000       3.523004        95.8658 
 271   0.0000       3.536034        96.2204 
 272   0.0000       3.569817        97.1397 
 273   0.0000       3.587874        97.6310 
 274   0.0000       3.590170        97.6935 
 275   0.0000       3.600536        97.9756 
 276   0.0000       3.627143        98.6996 
 277   0.0000       3.668995        99.8384 
 278   0.0000       3.692626       100.4815 
 279   0.0000       3.713609       101.0524 
 280   0.0000       3.732144       101.5568 
 281   0.0000       3.748873       102.0120 
 282   0.0000       3.773070       102.6705 
 283   0.0000       3.799779       103.3972 
 284   0.0000       3.851453       104.8034 
 285   0.0000       3.858440       104.9935 
 286   0.0000       3.887793       105.7922 
 287   0.0000       3.908250       106.3489 
 288   0.0000       3.918953       106.6401 
 289   0.0000       3.930208       106.9464 
 290   0.0000       3.957041       107.6766 
 291   0.0000       3.973869       108.1345 
 292   0.0000       3.988128       108.5225 
 293   0.0000       4.035859       109.8213 
 294   0.0000       4.082167       111.0814 
 295   0.0000       4.097073       111.4870 
 296   0.0000       4.123475       112.2054 
 297   0.0000       4.151569       112.9699 
 298   0.0000       4.175764       113.6283 
 299   0.0000       4.226422       115.0068 
 300   0.0000       4.252301       115.7110 
 301   0.0000       4.287618       116.6720 
 302   0.0000       4.336348       117.9980 
 303   0.0000       4.365210       118.7834 
 304   0.0000       4.375136       119.0535 
 305   0.0000       4.421540       120.3162 
 306   0.0000       4.452671       121.1633 
 307   0.0000       4.479038       121.8808 
 308   0.0000       4.500829       122.4738 
 309   0.0000       4.537687       123.4767 
 310   0.0000       4.593147       124.9859 
 311   0.0000       4.633867       126.0939 
 312   0.0000       4.634233       126.1039 
 313   0.0000       4.675313       127.2217 
 314   0.0000       4.696979       127.8113 
 315   0.0000       4.727248       128.6349 
 316   0.0000       4.765039       129.6633 
 317   0.0000       4.800698       130.6336 
 318   0.0000       4.806223       130.7840 
 319   0.0000       4.827271       131.3567 
 320   0.0000       4.861838       132.2974 
 321   0.0000       4.884102       132.9032 
 322   0.0000       4.917978       133.8250 
 323   0.0000       4.937135       134.3463 
 324   0.0000       4.982179       135.5720 
 325   0.0000       5.004188       136.1709 
 326   0.0000       5.013986       136.4375 
 327   0.0000       5.056070       137.5826 
 328   0.0000       5.123162       139.4083 
 329   0.0000       5.136110       139.7607 
 330   0.0000       5.162020       140.4657 
 331   0.0000       5.181101       140.9849 
 332   0.0000       5.233974       142.4237 
 333   0.0000       5.256400       143.0339 
 334   0.0000       5.271509       143.4451 
 335   0.0000       5.328018       144.9827 
 336   0.0000       5.350337       145.5901 
 337   0.0000       5.399867       146.9379 
 338   0.0000       5.476814       149.0317 
 339   0.0000       5.486297       149.2897 
 340   0.0000       5.548583       150.9846 
 341   0.0000       5.571838       151.6174 
 342   0.0000       5.625674       153.0824 
 343   0.0000       5.930773       161.3846 
 344   0.0000       5.956251       162.0778 
 345   0.0000       5.969123       162.4281 
 346   0.0000       6.114444       166.3825 
 347   0.0000       6.129318       166.7872 
 348   0.0000       6.195462       168.5871 
 349   0.0000       6.439178       175.2190 
 350   0.0000       6.528851       177.6591 
 351   0.0000       6.762643       184.0209 
 352   0.0000       6.802735       185.1118 
 353   0.0000       6.831655       185.8988 
 354   0.0000       6.859486       186.6561 
 355   0.0000       6.993246       190.2959 
 356   0.0000       7.067815       192.3250 
 357   0.0000       7.135947       194.1790 
 358   0.0000       7.347210       199.9277 
 359   0.0000       7.488563       203.7742 
 360   0.0000       7.809998       212.5209 
 361   0.0000       8.330627       226.6879 
 362   0.0000       8.410457       228.8602 
 363   0.0000       8.815639       239.8857 
 364   0.0000       8.954698       243.6697 
 365   0.0000       8.976352       244.2590 
 366   0.0000      22.407394       609.7362 
 367   0.0000      22.487627       611.9194 
 368   0.0000      22.580880       614.4570 
 369   0.0000      22.888207       622.8198 
 370   0.0000      23.254390       632.7841 
 371   0.0000      23.377710       636.1398 
 372   0.0000      32.005311       870.9088 
 373   0.0000      32.175123       875.5296 
 374   0.0000      43.922832      1195.2010 
 375   0.0000      57.399646      1561.9238 

                    ********************************
                    * MULLIKEN POPULATION ANALYSIS *
                    ********************************

-----------------------
MULLIKEN ATOMIC CHARGES
-----------------------
   0 C :   -0.162599
   1 C :   -0.282221
   2 C :   -0.181583
   3 C :   -0.216629
   4 H :    0.119608
   5 H :    0.096363
   6 C :    0.454367
   7 C :    0.179951
   8 N :   -0.401639
   9 N :   -0.440168
  10 H :    0.197127
  11 H :    0.228735
  12 H :    0.098868
  13 H :    0.251370
  14 H :    0.192876
  15 H :    0.044233
  16 H :    0.097506
  17 H :    0.111852
  18 H :    0.093459
  19 F :   -0.101347
  20 O :   -0.380130
Sum of atomic charges:   -0.0000000

--------------------------------
MULLIKEN REDUCED ORBITAL CHARGES
--------------------------------
  0 C s       :     3.193704  s :     3.193704
      pz      :     0.993536  p :     2.867885
      px      :     0.936852
      py      :     0.937496
      dz2     :     0.009436  d :     0.094799
      dxz     :     0.024039
      dyz     :     0.015410
      dx2y2   :     0.015168
      dxy     :     0.030746
      f0      :     0.000248  f :     0.006212
      f+1     :     0.001016
      f-1     :     0.000682
      f+2     :     0.001415
      f-2     :     0.000411
      f+3     :     0.001153
      f-3     :     0.001287
  1 C s       :     3.197289  s :     3.197289
      pz      :     0.920130  p :     3.005090
      px      :     0.881288
      py      :     1.203671
      dz2     :     0.010348  d :     0.072650
      dxz     :     0.019549
      dyz     :     0.016816
      dx2y2   :     0.008891
      dxy     :     0.017046
      f0      :     0.001559  f :     0.007193
      f+1     :     0.001015
      f-1     :     0.000800
      f+2     :     0.001210
      f-2     :     0.000974
      f+3     :     0.000833
      f-3     :     0.000800
  2 C s       :     3.230536  s :     3.230536
      pz      :     0.936892  p :     2.856146
      px      :     1.025283
      py      :     0.893971
      dz2     :     0.013403  d :     0.088989
      dxz     :     0.018940
      dyz     :     0.020483
      dx2y2   :     0.019084
      dxy     :     0.017079
      f0      :     0.000478  f :     0.005912
      f+1     :     0.000247
      f-1     :     0.001314
      f+2     :     0.001808
      f-2     :     0.000727
      f+3     :     0.000902
      f-3     :     0.000435
  3 C s       :     3.229715  s :     3.229715
      pz      :     0.956258  p :     2.907431
      px      :     0.935902
      py      :     1.015270
      dz2     :     0.013849  d :     0.073892
      dxz     :     0.026182
      dyz     :     0.007643
      dx2y2   :     0.017371
      dxy     :     0.008847
      f0      :     0.000604  f :     0.005592
      f+1     :     0.000675
      f-1     :     0.000619
      f+2     :     0.001901
      f-2     :     0.000952
      f+3     :     0.000427
      f-3     :     0.000413
  4 H s       :     0.858264  s :     0.858264
      pz      :     0.005985  p :     0.022128
      px      :     0.004064
      py      :     0.012079
  5 H s       :     0.881780  s :     0.881780
      pz      :     0.006504  p :     0.021857
      px      :     0.010966
      py      :     0.004387
  6 C s       :     3.041781  s :     3.041781
      pz      :     0.687063  p :     2.211499
      px      :     0.821445
      py      :     0.702991
      dz2     :     0.061301  d :     0.263706
      dxz     :     0.079629
      dyz     :     0.037096
      dx2y2   :     0.035676
      dxy     :     0.050003
      f0      :     0.005248  f :     0.028647
      f+1     :     0.007293
      f-1     :     0.002720
      f+2     :     0.004556
      f-2     :     0.003545
      f+3     :     0.002146
      f-3     :     0.003141
  7 C s       :     3.095067  s :     3.095067
      pz      :     0.851096  p :     2.492064
      px      :     0.751826
      py      :     0.889142
      dz2     :     0.049830  d :     0.214441
      dxz     :     0.045999
      dyz     :     0.046184
      dx2y2   :     0.049205
      dxy     :     0.023223
      f0      :     0.002115  f :     0.018476
      f+1     :     0.003228
      f-1     :     0.002163
      f+2     :     0.003367
      f-2     :     0.002336
      f+3     :     0.002891
      f-3     :     0.002376
  8 N s       :     3.456580  s :     3.456580
      pz      :     1.284066  p :     3.907295
      px      :     1.332344
      py      :     1.290885
      dz2     :     0.007974  d :     0.034752
      dxz     :     0.006817
      dyz     :     0.002041
      dx2y2   :     0.010227
      dxy     :     0.007692
      f0      :     0.000364  f :     0.003012
      f+1     :     0.000538
      f-1     :     0.000343
      f+2     :     0.000424
      f-2     :     0.000344
      f+3     :     0.000394
      f-3     :     0.000605
  9 N s       :     3.461905  s :     3.461905
      pz      :     1.097319  p :     3.940245
      px      :     1.284745
      py      :     1.558181
      dz2     :     0.011878  d :     0.034841
      dxz     :     0.003228
      dyz     :     0.005622
      dx2y2   :     0.009004
      dxy     :     0.005109
      f0      :     0.000679  f :     0.003178
      f+1     :     0.000210
      f-1     :     0.000426
      f+2     :     0.000340
      f-2     :     0.000408
      f+3     :     0.000508
      f-3     :     0.000607
 10 H s       :     0.765094  s :     0.765094
      pz      :     0.019216  p :     0.037780
      px      :     0.007580
      py      :     0.010984
 11 H s       :     0.733152  s :     0.733152
      pz      :     0.007125  p :     0.038113
      px      :     0.018558
      py      :     0.012430
 12 H s       :     0.874769  s :     0.874769
      pz      :     0.007592  p :     0.026363
      px      :     0.008678
      py      :     0.010093
 13 H s       :     0.702510  s :     0.702510
      pz      :     0.009787  p :     0.046120
      px      :     0.008747
      py      :     0.027586
 14 H s       :     0.769220  s :     0.769220
      pz      :     0.018561  p :     0.037904
      px      :     0.010716
      py      :     0.008626
 15 H s       :     0.933909  s :     0.933909
      pz      :     0.009830  p :     0.021858
      px      :     0.007504
      py      :     0.004524
 16 H s       :     0.880791  s :     0.880791
      pz      :     0.008116  p :     0.021703
      px      :     0.005434
      py      :     0.008154
 17 H s       :     0.866438  s :     0.866438
      pz      :     0.008798  p :     0.021710
      px      :     0.008580
      py      :     0.004332
 18 H s       :     0.884786  s :     0.884786
      pz      :     0.006686  p :     0.021755
      px      :     0.010633
      py      :     0.004436
 19 F s       :     3.900553  s :     3.900553
      pz      :     1.556267  p :     5.180732
      px      :     1.871300
      py      :     1.753165
      dz2     :     0.006726  d :     0.019139
      dxz     :     0.004496
      dyz     :     0.005447
      dx2y2   :     0.001252
      dxy     :     0.001218
      f0      :     0.000238  f :     0.000923
      f+1     :     0.000193
      f-1     :     0.000242
      f+2     :     0.000106
      f-2     :     0.000116
      f+3     :     0.000015
      f-3     :     0.000014
 20 O s       :     3.856120  s :     3.856120
      pz      :     1.647222  p :     4.493811
      px      :     1.372092
      py      :     1.474497
      dz2     :     0.003755  d :     0.028599
      dxz     :     0.008061
      dyz     :     0.002189
      dx2y2   :     0.006731
      dxy     :     0.007864
      f0      :     0.000161  f :     0.001599
      f+1     :     0.000365
      f-1     :     0.000016
      f+2     :     0.000320
      f-2     :     0.000195
      f+3     :     0.000215
      f-3     :     0.000328


                     *******************************
                     * LOEWDIN POPULATION ANALYSIS *
                     *******************************

----------------------
LOEWDIN ATOMIC CHARGES
----------------------
   0 C :   -0.281490
   1 C :   -0.260498
   2 C :   -0.242748
   3 C :   -0.222033
   4 H :    0.151993
   5 H :    0.138178
   6 C :   -0.498118
   7 C :   -0.482686
   8 N :   -0.001571
   9 N :   -0.013753
  10 H :    0.152404
  11 H :    0.170414
  12 H :    0.130317
  13 H :    0.164551
  14 H :    0.155684
  15 H :    0.127797
  16 H :    0.132913
  17 H :    0.143782
  18 H :    0.134052
  19 F :    0.352511
  20 O :    0.048301

-------------------------------
LOEWDIN REDUCED ORBITAL CHARGES
-------------------------------
  0 C s       :     2.760009  s :     2.760009
      pz      :     1.004829  p :     3.037333
      px      :     1.038341
      py      :     0.994164
      dz2     :     0.046312  d :     0.439663
      dxz     :     0.110578
      dyz     :     0.082832
      dx2y2   :     0.092253
      dxy     :     0.107687
      f0      :     0.003178  f :     0.044485
      f+1     :     0.007163
      f-1     :     0.005257
      f+2     :     0.006224
      f-2     :     0.004391
      f+3     :     0.009037
      f-3     :     0.009235
  1 C s       :     2.750125  s :     2.750125
      pz      :     1.051393  p :     3.079579
      px      :     0.990360
      py      :     1.037825
      dz2     :     0.080981  d :     0.382849
      dxz     :     0.118920
      dyz     :     0.047721
      dx2y2   :     0.054865
      dxy     :     0.080363
      f0      :     0.010624  f :     0.047944
      f+1     :     0.009312
      f-1     :     0.005636
      f+2     :     0.006192
      f-2     :     0.005959
      f+3     :     0.005055
      f-3     :     0.005166
  2 C s       :     2.779251  s :     2.779251
      pz      :     0.996446  p :     3.027720
      px      :     1.024755
      py      :     1.006519
      dz2     :     0.055005  d :     0.397079
      dxz     :     0.096300
      dyz     :     0.094573
      dx2y2   :     0.093427
      dxy     :     0.057773
      f0      :     0.005374  f :     0.038699
      f+1     :     0.002419
      f-1     :     0.008252
      f+2     :     0.006185
      f-2     :     0.004921
      f+3     :     0.007578
      f-3     :     0.003970
  3 C s       :     2.789362  s :     2.789362
      pz      :     1.018579  p :     3.042085
      px      :     0.997701
      py      :     1.025805
      dz2     :     0.055639  d :     0.354056
      dxz     :     0.111834
      dyz     :     0.063111
      dx2y2   :     0.088057
      dxy     :     0.035414
      f0      :     0.007197  f :     0.036530
      f+1     :     0.004683
      f-1     :     0.004656
      f+2     :     0.006088
      f-2     :     0.005966
      f+3     :     0.003957
      f-3     :     0.003983
  4 H s       :     0.788607  s :     0.788607
      pz      :     0.016915  p :     0.059400
      px      :     0.012433
      py      :     0.030053
  5 H s       :     0.802364  s :     0.802364
      pz      :     0.018375  p :     0.059458
      px      :     0.027970
      py      :     0.013112
  6 C s       :     2.777486  s :     2.777486
      pz      :     0.843636  p :     2.584714
      px      :     1.011290
      py      :     0.729789
      dz2     :     0.225117  d :     0.955964
      dxz     :     0.298072
      dyz     :     0.142408
      dx2y2   :     0.142796
      dxy     :     0.147572
      f0      :     0.032930  f :     0.179953
      f+1     :     0.045068
      f-1     :     0.023079
      f+2     :     0.026069
      f-2     :     0.021686
      f+3     :     0.014835
      f-3     :     0.016286
  7 C s       :     2.698997  s :     2.698997
      pz      :     1.019071  p :     2.815845
      px      :     0.916502
      py      :     0.880271
      dz2     :     0.177732  d :     0.851629
      dxz     :     0.189659
      dyz     :     0.175838
      dx2y2   :     0.181363
      dxy     :     0.127038
      f0      :     0.014256  f :     0.116215
      f+1     :     0.022683
      f-1     :     0.014980
      f+2     :     0.019510
      f-2     :     0.011659
      f+3     :     0.017824
      f-3     :     0.015303
  8 N s       :     2.989068  s :     2.989068
      pz      :     1.249173  p :     3.844498
      px      :     1.348093
      py      :     1.247232
      dz2     :     0.037674  d :     0.155301
      dxz     :     0.032029
      dyz     :     0.011048
      dx2y2   :     0.046128
      dxy     :     0.028422
      f0      :     0.001299  f :     0.012704
      f+1     :     0.001867
      f-1     :     0.001253
      f+2     :     0.002160
      f-2     :     0.001221
      f+3     :     0.002052
      f-3     :     0.002851
  9 N s       :     2.991691  s :     2.991691
      pz      :     1.135781  p :     3.856465
      px      :     1.254344
      py      :     1.466340
      dz2     :     0.057754  d :     0.153853
      dxz     :     0.021909
      dyz     :     0.024118
      dx2y2   :     0.029349
      dxy     :     0.020723
      f0      :     0.001583  f :     0.011744
      f+1     :     0.001084
      f-1     :     0.002119
      f+2     :     0.002198
      f-2     :     0.001828
      f+3     :     0.001239
      f-3     :     0.001694
 10 H s       :     0.738048  s :     0.738048
      pz      :     0.054018  p :     0.109547
      px      :     0.022287
      py      :     0.033242
 11 H s       :     0.721635  s :     0.721635
      pz      :     0.022310  p :     0.107951
      px      :     0.052232
      py      :     0.033409
 12 H s       :     0.793658  s :     0.793658
      pz      :     0.022260  p :     0.076025
      px      :     0.024735
      py      :     0.029029
 13 H s       :     0.703714  s :     0.703714
      pz      :     0.028302  p :     0.131735
      px      :     0.024873
      py      :     0.078559
 14 H s       :     0.735807  s :     0.735807
      pz      :     0.054419  p :     0.108509
      px      :     0.028007
      py      :     0.026082
 15 H s       :     0.813910  s :     0.813910
      pz      :     0.026482  p :     0.058294
      px      :     0.018974
      py      :     0.012838
 16 H s       :     0.808945  s :     0.808945
      pz      :     0.022735  p :     0.058143
      px      :     0.014733
      py      :     0.020675
 17 H s       :     0.797667  s :     0.797667
      pz      :     0.021796  p :     0.058551
      px      :     0.024190
      py      :     0.012565
 18 H s       :     0.807227  s :     0.807227
      pz      :     0.017043  p :     0.058721
      px      :     0.028855
      py      :     0.012824
 19 F s       :     3.529060  s :     3.529060
      pz      :     1.614452  p :     5.076663
      px      :     1.776686
      py      :     1.685525
      dz2     :     0.013730  d :     0.039604
      dxz     :     0.009915
      dyz     :     0.011220
      dx2y2   :     0.002265
      dxy     :     0.002473
      f0      :     0.000495  f :     0.002163
      f+1     :     0.000498
      f-1     :     0.000555
      f+2     :     0.000249
      f-2     :     0.000301
      f+3     :     0.000032
      f-3     :     0.000033
 20 O s       :     3.436723  s :     3.436723
      pz      :     1.569563  p :     4.448660
      px      :     1.491146
      py      :     1.387951
      dz2     :     0.008316  d :     0.061279
      dxz     :     0.018975
      dyz     :     0.003150
      dx2y2   :     0.019528
      dxy     :     0.011310
      f0      :     0.000597  f :     0.005038
      f+1     :     0.001026
      f-1     :     0.000027
      f+2     :     0.001281
      f-2     :     0.000437
      f+3     :     0.001024
      f-3     :     0.000645


                      *****************************
                      * MAYER POPULATION ANALYSIS *
                      *****************************

  NA   - Mulliken gross atomic population
  ZA   - Total nuclear charge
  QA   - Mulliken gross atomic charge
  VA   - Mayer's total valence
  BVA  - Mayer's bonded valence
  FA   - Mayer's free valence

  ATOM       NA         ZA         QA         VA         BVA        FA
  0 C      6.1626     6.0000    -0.1626     3.8561     3.8561     0.0000
  1 C      6.2822     6.0000    -0.2822     3.6798     3.6798    -0.0000
  2 C      6.1816     6.0000    -0.1816     3.9047     3.9047     0.0000
  3 C      6.2166     6.0000    -0.2166     3.8703     3.8703    -0.0000
  4 H      0.8804     1.0000     0.1196     0.9787     0.9787    -0.0000
  5 H      0.9036     1.0000     0.0964     0.9707     0.9707     0.0000
  6 C      5.5456     6.0000     0.4544     4.1632     4.1632    -0.0000
  7 C      5.8200     6.0000     0.1800     4.0315     4.0315    -0.0000
  8 N      7.4016     7.0000    -0.4016     3.0361     3.0361    -0.0000
  9 N      7.4402     7.0000    -0.4402     3.0759     3.0759    -0.0000
 10 H      0.8029     1.0000     0.1971     0.9730     0.9730    -0.0000
 11 H      0.7713     1.0000     0.2287     0.9606     0.9606     0.0000
 12 H      0.9011     1.0000     0.0989     1.0196     1.0196    -0.0000
 13 H      0.7486     1.0000     0.2514     0.9883     0.9883    -0.0000
 14 H      0.8071     1.0000     0.1929     0.9731     0.9731     0.0000
 15 H      0.9558     1.0000     0.0442     0.9928     0.9928     0.0000
 16 H      0.9025     1.0000     0.0975     0.9498     0.9498     0.0000
 17 H      0.8881     1.0000     0.1119     0.9735     0.9735     0.0000
 18 H      0.9065     1.0000     0.0935     0.9682     0.9682    -0.0000
 19 F      9.1013     9.0000    -0.1013     1.2003     1.2003    -0.0000
 20 O      8.3801     8.0000    -0.3801     2.0851     2.0851     0.0000

  Mayer bond orders larger than 0.100000
B(  0-C ,  1-C ) :   0.9807 B(  0-C ,  2-C ) :   0.9608 B(  0-C , 15-H ) :   0.9607 
B(  0-C , 16-H ) :   0.9587 B(  1-C ,  7-C ) :   1.6069 B(  1-C , 12-H ) :   1.0345 
B(  2-C ,  3-C ) :   0.9743 B(  2-C , 17-H ) :   0.9670 B(  2-C , 18-H ) :   0.9632 
B(  3-C ,  4-H ) :   0.9482 B(  3-C ,  5-H ) :   0.9513 B(  3-C ,  6-C ) :   0.9931 
B(  6-C , 19-F ) :   1.1537 B(  6-C , 20-O ) :   1.9316 B(  7-C ,  8-N ) :   1.1870 
B(  7-C ,  9-N ) :   1.1522 B(  8-N , 13-H ) :   0.8661 B(  8-N , 14-H ) :   0.9310 
B(  9-N , 10-H ) :   0.9181 B(  9-N , 11-H ) :   0.9263 

-------
TIMINGS
-------

Total SCF time: 0 days 0 hours 0 min 28 sec 

Total time                  ....      28.149 sec
Sum of individual times     ....      27.548 sec  ( 97.9%)

Fock matrix formation       ....      24.931 sec  ( 88.6%)
  Split-RI-J                ....       3.301 sec  ( 13.2% of F)
  Chain of spheres X        ....      18.070 sec  ( 72.5% of F)
  XC integration            ....       3.367 sec  ( 13.5% of F)
    Basis function eval.    ....       0.758 sec  ( 22.5% of XC)
    Density eval.           ....       0.762 sec  ( 22.6% of XC)
    XC-Functional eval.     ....       0.082 sec  (  2.4% of XC)
    XC-Potential eval.      ....       0.770 sec  ( 22.9% of XC)
Diagonalization             ....       0.303 sec  (  1.1%)
Density matrix formation    ....       0.034 sec  (  0.1%)
Population analysis         ....       0.034 sec  (  0.1%)
Initial guess               ....       0.272 sec  (  1.0%)
Orbital Transformation      ....       0.000 sec  (  0.0%)
Orbital Orthonormalization  ....       0.000 sec  (  0.0%)
DIIS solution               ....       0.171 sec  (  0.6%)
SOSCF solution              ....       0.260 sec  (  0.9%)
Grid generation             ....       1.544 sec  (  5.5%)

Maximum memory used throughout the entire SCF-calculation: 87.1 MB


-------------------------------------------------------------------------------
                          DFT DISPERSION CORRECTION                            
                                                                               
                              DFTD3 V3.1  Rev 1                                
                          USING Becke-Johnson damping                          
-------------------------------------------------------------------------------
The B3LYP functional is recognized
Active option DFTDOPT                   ...         4   

molecular C6(AA) [au] = 3727.633153 


            DFT-D V3
 parameters
 s6 scaling factor         :     1.0000 
 a1 scaling factor         :     0.3981 
 s8 scaling factor         :     1.9889 
 a2 scaling factor         :     4.4211 
 ad hoc parameters k1-k3   :    16.0000     1.3333    -4.0000 

 Edisp/kcal,au: -23.744989463053  -0.037840045309 
 E6   /kcal   : -11.518586162 
 E8   /kcal   : -12.226403301 
 % E8         :  51.490455786 

-------------------------   ----------------
Dispersion correction           -0.037840045
-------------------------   ----------------


-------------------------   --------------------
FINAL SINGLE POINT ENERGY      -519.737632317792
-------------------------   --------------------


                            ***************************************
                            *     ORCA property calculations      *
                            ***************************************

                                    ---------------------
                                    Active property flags
                                    ---------------------
   (+) Dipole Moment


------------------------------------------------------------------------------
                       ORCA ELECTRIC PROPERTIES CALCULATION
------------------------------------------------------------------------------

Dipole Moment Calculation                       ... on
Quadrupole Moment Calculation                   ... off
Polarizability Calculation                      ... off
GBWName                                         ... B3LYP_D1_wb97.gbw
Electron density file                           ... B3LYP_D1_wb97.scfp
The origin for moment calculation is the CENTER OF MASS  = ( 9.601419,  3.884988 -9.423337)

-------------
DIPOLE MOMENT
-------------
                                X             Y             Z
Electronic contribution:      3.44291      -3.60597      -6.50099
Nuclear contribution   :     -4.60158       3.22721       5.56005
                        -----------------------------------------
Total Dipole Moment    :     -1.15868      -0.37875      -0.94094
                        -----------------------------------------
Magnitude (a.u.)       :      1.53992
Magnitude (Debye)      :      3.91417



--------------------
Rotational spectrum 
--------------------
 
Rotational constants in cm-1:     0.061224     0.042534     0.033552 
Rotational constants in MHz :  1835.464095  1275.135177  1005.856966 

 Dipole components along the rotational axes: 
x,y,z [a.u.] :     0.384145     0.127960     1.485736 
x,y,z [Debye]:     0.976420     0.325248     3.776441 

 

Timings for individual modules:

Sum of individual times         ...       29.627 sec (=   0.494 min)
GTO integral calculation        ...        1.017 sec (=   0.017 min)   3.4 %
SCF iterations                  ...       28.610 sec (=   0.477 min)  96.6 %
                             ****ORCA TERMINATED NORMALLY****
TOTAL RUN TIME: 0 days 0 hours 0 minutes 30 seconds 247 msec
