
                                        *****************
                                        * O   R   C   A *
                                        *****************

                                            #,                                       
                                            ###                                      
                                            ####                                     
                                            #####                                    
                                            ######                                   
                                           ########,                                 
                                     ,,################,,,,,                         
                               ,,#################################,,                 
                          ,,##########################################,,             
                       ,#########################################, ''#####,          
                    ,#############################################,,   '####,        
                  ,##################################################,,,,####,       
                ,###########''''           ''''###############################       
              ,#####''   ,,,,##########,,,,          '''####'''          '####       
            ,##' ,,,,###########################,,,                        '##       
           ' ,,###''''                  '''############,,,                           
         ,,##''                                '''############,,,,        ,,,,,,###''
      ,#''                                            '''#######################'''  
     '                                                          ''''####''''         
             ,#######,   #######,   ,#######,      ##                                
            ,#'     '#,  ##    ##  ,#'     '#,    #''#        ######   ,####,        
            ##       ##  ##   ,#'  ##            #'  '#       #        #'  '#        
            ##       ##  #######   ##           ,######,      #####,   #    #        
            '#,     ,#'  ##    ##  '#,     ,#' ,#      #,         ##   #,  ,#        
             '#######'   ##     ##  '#######'  #'      '#     #####' # '####'        



                  #######################################################
                  #                        -***-                        #
                  #          Department of theory and spectroscopy      #
                  #    Directorship and core code : Frank Neese         #
                  #        Max Planck Institute fuer Kohlenforschung    #
                  #                Kaiser Wilhelm Platz 1               #
                  #                 D-45470 Muelheim/Ruhr               #
                  #                      Germany                        #
                  #                                                     #
                  #                  All rights reserved                #
                  #                        -***-                        #
                  #######################################################


                         Program Version 5.0.0 -  RELEASE  -
                                (SVN: $Rev: 19529$)
                ($Date: 2021-06-28 11:36:33 +0200 (Mo, 28 Jun 2021) $)


 With contributions from (in alphabetic order):
   Daniel Aravena         : Magnetic Suceptibility
   Michael Atanasov       : Ab Initio Ligand Field Theory (pilot matlab implementation)
   Alexander A. Auer      : GIAO ZORA, VPT2 properties, NMR spectrum
   Ute Becker             : Parallelization
   Giovanni Bistoni       : ED, misc. LED, open-shell LED, HFLD
   Martin Brehm           : Molecular dynamics
   Dmytro Bykov           : SCF Hessian
   Vijay G. Chilkuri      : MRCI spin determinant printing, contributions to CSF-ICE
   Dipayan Datta          : RHF DLPNO-CCSD density
   Achintya Kumar Dutta   : EOM-CC, STEOM-CC
   Dmitry Ganyushin       : Spin-Orbit,Spin-Spin,Magnetic field MRCI
   Miquel Garcia          : C-PCM Hessian, Gaussian charge scheme
   Yang Guo               : DLPNO-NEVPT2, F12-NEVPT2, CIM, IAO-localization
   Andreas Hansen         : Spin unrestricted coupled pair/coupled cluster methods
   Benjamin Helmich-Paris : MC-RPA, TRAH-SCF, COSX integrals
   Lee Huntington         : MR-EOM, pCC
   Robert Izsak           : Overlap fitted RIJCOSX, COSX-SCS-MP3, EOM
   Marcus Kettner         : VPT2
   Christian Kollmar      : KDIIS, OOCD, Brueckner-CCSD(T), CCSD density, CASPT2, CASPT2-K
   Simone Kossmann        : Meta GGA functionals, TD-DFT gradient, OOMP2, MP2 Hessian
   Martin Krupicka        : Initial AUTO-CI
   Lucas Lang             : DCDCAS
   Marvin Lechner         : AUTO-CI (C++ implementation), FIC-MRCC
   Dagmar Lenk            : GEPOL surface, SMD
   Dimitrios Liakos       : Extrapolation schemes; Compound Job, initial MDCI parallelization
   Dimitrios Manganas     : Further ROCIS development; embedding schemes
   Dimitrios Pantazis     : SARC Basis sets
   Anastasios Papadopoulos: AUTO-CI, single reference methods and gradients
   Taras Petrenko         : DFT Hessian,TD-DFT gradient, ASA, ECA, R-Raman, ABS, FL, XAS/XES, NRVS
   Peter Pinski           : DLPNO-MP2, DLPNO-MP2 Gradient
   Christoph Reimann      : Effective Core Potentials
   Marius Retegan         : Local ZFS, SOC
   Christoph Riplinger    : Optimizer, TS searches, QM/MM, DLPNO-CCSD(T), (RO)-DLPNO pert. Triples
   Tobias Risthaus        : Range-separated hybrids, TD-DFT gradient, RPA, STAB
   Michael Roemelt        : Original ROCIS implementation
   Masaaki Saitow         : Open-shell DLPNO-CCSD energy and density
   Barbara Sandhoefer     : DKH picture change effects
   Avijit Sen             : IP-ROCIS
   Kantharuban Sivalingam : CASSCF convergence, NEVPT2, FIC-MRCI
   Bernardo de Souza      : ESD, SOC TD-DFT
   Georgi Stoychev        : AutoAux, RI-MP2 NMR
   Willem Van den Heuvel  : Paramagnetic NMR
   Boris Wezisla          : Elementary symmetry handling
   Frank Wennmohs         : Technical directorship


 We gratefully acknowledge several colleagues who have allowed us to
 interface, adapt or use parts of their codes:
   Stefan Grimme, W. Hujo, H. Kruse, P. Pracht,  : VdW corrections, initial TS optimization,
                  C. Bannwarth, S. Ehlert          DFT functionals, gCP, sTDA/sTD-DF
   Ed Valeev, F. Pavosevic, A. Kumar             : LibInt (2-el integral package), F12 methods
   Garnet Chan, S. Sharma, J. Yang, R. Olivares  : DMRG
   Ulf Ekstrom                                   : XCFun DFT Library
   Mihaly Kallay                                 : mrcc  (arbitrary order and MRCC methods)
   Jiri Pittner, Ondrej Demel                    : Mk-CCSD
   Frank Weinhold                                : gennbo (NPA and NBO analysis)
   Christopher J. Cramer and Donald G. Truhlar   : smd solvation model
   Lars Goerigk                                  : TD-DFT with DH, B97 family of functionals
   V. Asgeirsson, H. Jonsson                     : NEB implementation
   FAccTs GmbH                                   : IRC, NEB, NEB-TS, DLPNO-Multilevel, CI-OPT
                                                   MM, QMMM, 2- and 3-layer-ONIOM, Crystal-QMMM,
                                                   LR-CPCM, SF, NACMEs, symmetry and pop. for TD-DFT,
                                                   nearIR, NL-DFT gradient (VV10), updates on ESD,
                                                   ML-optimized integration grids
   S Lehtola, MJT Oliveira, MAL Marques          : LibXC Library
   Liviu Ungur et al                             : ANISO software


 Your calculation uses the libint2 library for the computation of 2-el integrals
 For citations please refer to: http://libint.valeyev.net

 Your ORCA version has been built with support for libXC version: 5.1.0
 For citations please refer to: https://tddft.org/programs/libxc/

 This ORCA versions uses:
   CBLAS   interface :  Fast vector & matrix operations
   LAPACKE interface :  Fast linear algebra routines
   SCALAPACK package :  Parallel linear algebra routines
   Shared memory     :  Shared parallel matrices
   BLAS/LAPACK       :  OpenBLAS 0.3.15  USE64BITINT DYNAMIC_ARCH NO_AFFINITY Haswell SINGLE_THREADED
        Core in use  :  Haswell
   Copyright (c) 2011-2014, The OpenBLAS Project


================================================================================

----- Orbital basis set information -----
Your calculation utilizes the basis: def2-SVP
   F. Weigend and R. Ahlrichs, Phys. Chem. Chem. Phys. 7, 3297 (2005).

----- AuxJ basis set information -----
Your calculation utilizes the auxiliary basis: def2/J
   F. Weigend, Phys. Chem. Chem. Phys. 8, 1057 (2006).

================================================================================
                                        WARNINGS
                       Please study these warnings very carefully!
================================================================================


INFO   : the flag for use of the SHARK integral package has been found!

================================================================================
                                       INPUT FILE
================================================================================
NAME = SVP_LC_PBE_C2_wt_dlpno_neg.com
|  1> !LC-PBE RIJCOSX def2-SVP def2/J TightSCF
|  2> 
|  3> *xyz 0 1
|  4> C          2.95263        1.86308       -3.57485
|  5> C          4.12921        0.89839       -3.41895
|  6> H          3.73369       -0.10060       -3.23763
|  7> H          4.71910        0.86256       -4.33901
|  8> C          5.01734        1.31521       -2.22130
|  9> O          4.73706        0.85411       -1.12283
| 10> F          5.92815        2.16811       -2.49136
| 11> H          2.35067        1.56005       -4.40594
| 12> H          3.32277        2.85258       -3.74453
| 13> H          2.36134        1.85149       -2.68315
| 14> *
| 15> %MaxCore 64000
| 16> 
| 17> %pal nprocs 4
| 18> end  
| 19> 
| 20> %scf
| 21>   MaxIter 150
| 22> end
| 23> 
| 24> 
| 25>                          ****END OF INPUT****
================================================================================

                       ****************************
                       * Single Point Calculation *
                       ****************************

---------------------------------
CARTESIAN COORDINATES (ANGSTROEM)
---------------------------------
  C      2.952630    1.863080   -3.574850
  C      4.129210    0.898390   -3.418950
  H      3.733690   -0.100600   -3.237630
  H      4.719100    0.862560   -4.339010
  C      5.017340    1.315210   -2.221300
  O      4.737060    0.854110   -1.122830
  F      5.928150    2.168110   -2.491360
  H      2.350670    1.560050   -4.405940
  H      3.322770    2.852580   -3.744530
  H      2.361340    1.851490   -2.683150

----------------------------
CARTESIAN COORDINATES (A.U.)
----------------------------
  NO LB      ZA    FRAG     MASS         X           Y           Z
   0 C     6.0000    0    12.011    5.579662    3.520711   -6.755487
   1 C     6.0000    0    12.011    7.803076    1.697711   -6.460879
   2 H     1.0000    0     1.008    7.055652   -0.190106   -6.118234
   3 H     1.0000    0     1.008    8.917807    1.630002   -8.199541
   4 C     6.0000    0    12.011    9.481399    2.485387   -4.197649
   5 O     8.0000    0    15.999    8.951746    1.614034   -2.121841
   6 F     9.0000    0    18.998   11.202580    4.097134   -4.707988
   7 H     1.0000    0     1.008    4.442123    2.948067   -8.326020
   8 H     1.0000    0     1.008    6.279125    5.390595   -7.076136
   9 H     1.0000    0     1.008    4.462286    3.498809   -5.070419

--------------------------------
INTERNAL COORDINATES (ANGSTROEM)
--------------------------------
 C      0   0   0     0.000000000000     0.00000000     0.00000000
 C      1   0   0     1.529467914832     0.00000000     0.00000000
 H      2   1   0     1.089630227600   108.42087877     0.00000000
 H      2   1   3     1.093510130086   110.48033880   117.93289825
 C      2   1   3     1.548185819532   110.50804192   240.54004833
 O      5   2   1     1.223849022265   117.48519234    89.39746455
 F      5   2   1     1.276693255915   115.18105086   272.92000304
 H      1   2   3     1.069997014295   109.47056396   299.46024459
 H      1   2   3     1.070002416820   109.47133540   179.46023983
 H      1   2   3     1.069993963628   109.47107416    59.46025929

---------------------------
INTERNAL COORDINATES (A.U.)
---------------------------
 C      0   0   0     0.000000000000     0.00000000     0.00000000
 C      1   0   0     2.890275489652     0.00000000     0.00000000
 H      2   1   0     2.059102717407   108.42087877     0.00000000
 H      2   1   3     2.066434670531   110.48033880   117.93289825
 C      2   1   3     2.925647203336   110.50804192   240.54004833
 O      5   2   1     2.312739481349   117.48519234    89.39746455
 F      5   2   1     2.412600610704   115.18105086   272.92000304
 H      1   2   3     2.022001321131   109.47056396   299.46024459
 H      1   2   3     2.022011530423   109.47133540   179.46023983
 H      1   2   3     2.021995556206   109.47107416    59.46025929

---------------------
BASIS SET INFORMATION
---------------------
There are 4 groups of distinct atoms

 Group   1 Type C   : 7s4p1d contracted to 3s2p1d pattern {511/31/1}
 Group   2 Type H   : 4s1p contracted to 2s1p pattern {31/1}
 Group   3 Type O   : 7s4p1d contracted to 3s2p1d pattern {511/31/1}
 Group   4 Type F   : 7s4p1d contracted to 3s2p1d pattern {511/31/1}

Atom   0C    basis set group =>   1
Atom   1C    basis set group =>   1
Atom   2H    basis set group =>   2
Atom   3H    basis set group =>   2
Atom   4C    basis set group =>   1
Atom   5O    basis set group =>   3
Atom   6F    basis set group =>   4
Atom   7H    basis set group =>   2
Atom   8H    basis set group =>   2
Atom   9H    basis set group =>   2
---------------------------------
AUXILIARY/J BASIS SET INFORMATION
---------------------------------
There are 4 groups of distinct atoms

 Group   1 Type C   : 12s5p4d2f1g contracted to 6s4p3d1f1g pattern {711111/2111/211/2/1}
 Group   2 Type H   : 5s2p1d contracted to 3s1p1d pattern {311/2/1}
 Group   3 Type O   : 12s5p4d2f1g contracted to 6s4p3d1f1g pattern {711111/2111/211/2/1}
 Group   4 Type F   : 12s5p4d2f1g contracted to 6s4p3d1f1g pattern {711111/2111/211/2/1}

Atom   0C    basis set group =>   1
Atom   1C    basis set group =>   1
Atom   2H    basis set group =>   2
Atom   3H    basis set group =>   2
Atom   4C    basis set group =>   1
Atom   5O    basis set group =>   3
Atom   6F    basis set group =>   4
Atom   7H    basis set group =>   2
Atom   8H    basis set group =>   2
Atom   9H    basis set group =>   2


           ************************************************************
           *        Program running with 4 parallel MPI-processes     *
           *              working on a common directory               *
           ************************************************************
------------------------------------------------------------------------------
                           ORCA GTO INTEGRAL CALCULATION
                           -- RI-GTO INTEGRALS CHOSEN --
------------------------------------------------------------------------------
------------------------------------------------------------------------------
                   ___                                                        
                  /   \      - P O W E R E D   B Y -                         
                 /     \                                                     
                 |  |  |   _    _      __       _____    __    __             
                 |  |  |  | |  | |    /  \     |  _  \  |  |  /  |          
                  \  \/   | |  | |   /    \    | | | |  |  | /  /          
                 / \  \   | |__| |  /  /\  \   | |_| |  |  |/  /          
                |  |  |   |  __  | /  /__\  \  |    /   |      \           
                |  |  |   | |  | | |   __   |  |    \   |  |\   \          
                \     /   | |  | | |  |  |  |  | |\  \  |  | \   \       
                 \___/    |_|  |_| |__|  |__|  |_| \__\ |__|  \__/        
                                                                              
                      - O R C A' S   B I G   F R I E N D -                    
                                      &                                       
                       - I N T E G R A L  F E E D E R -                       
                                                                              
 v1 FN, 2020, v2 2021                                                         
------------------------------------------------------------------------------


Reading SHARK input file SVP_LC_PBE_C2_wt_dlpno_neg.SHARKINP.tmp ... ok
----------------------
SHARK INTEGRAL PACKAGE
----------------------

Number of atoms                             ...     10
Number of basis functions                   ...     95
Number of shells                            ...     45
Maximum angular momentum                    ...      2
Integral batch strategy                     ... SHARK/LIBINT Hybrid
RI-J (if used) integral strategy            ... SPLIT-RIJ (Revised 2003 algorithm where possible)
Printlevel                                  ...      1
Contraction scheme used                     ... SEGMENTED contraction
Coulomb Range Separation                    ... NOT USED
Exchange Range Separation                   ... Long Range
   Mu parameter                             ...  0.470000
   Scaling (regular/separated)              ...  0.000000  1.000000
Finite Nucleus Model                        ... NOT USED
Auxiliary Coulomb fitting basis             ... AVAILABLE
   # of basis functions in Aux-J            ...    300
   # of shells in Aux-J                     ...    100
   Maximum angular momentum in Aux-J        ...      4
Auxiliary J/K fitting basis                 ... NOT available
Auxiliary Correlation fitting basis         ... NOT available
Auxiliary 'external' fitting basis          ... NOT available
Integral threshold                          ...     2.500000e-11
Primitive cut-off                           ...     2.500000e-12
Primitive pair pre-selection threshold      ...     2.500000e-12

Calculating pre-screening integrals         ... done (  0.0 sec) Dimension = 45
Organizing shell pair data                  ... done (  0.0 sec)
Shell pair information
Total number of shell pairs                 ...      1035
Shell pairs after pre-screening             ...      1017
Total number of primitive shell pairs       ...      3735
Primitive shell pairs kept                  ...      2922
          la=0 lb=0:    316 shell pairs
          la=1 lb=0:    368 shell pairs
          la=1 lb=1:    120 shell pairs
          la=2 lb=0:    123 shell pairs
          la=2 lb=1:     75 shell pairs
          la=2 lb=2:     15 shell pairs

Calculating one electron integrals          ... done (  0.0 sec)
Calculating RI/J V-Matrix + Cholesky decomp.... done (  0.0 sec)
Calculating Nuclear repulsion               ... done (  0.0 sec) ENN=    176.724480054916 Eh

SHARK setup successfully completed in   0.1 seconds

Maximum memory used throughout the entire GTOINT-calculation: 8.8 MB


           ************************************************************
           *        Program running with 4 parallel MPI-processes     *
           *              working on a common directory               *
           ************************************************************
-------------------------------------------------------------------------------
                                 ORCA SCF
-------------------------------------------------------------------------------

------------
SCF SETTINGS
------------
Hamiltonian:
 Density Functional     Method          .... DFT(GTOs)
 Exchange Functional    Exchange        .... LC-PBE
 Correlation Functional Correlation     .... PBE
   PBE beta parameter  CBetaPBE         ....  0.066725
 LDA part of GGA corr.  LDAOpt          .... PW91-LDA
 Gradients option       PostSCFGGA      .... off
   Density functional embedding theory  .... OFF
 Long-range corrected/Screened/Range-Separated Hybrid DFT is turned on
   Amount of maximum screened exact exchange              ....  1.000000
   Range separation parameter mu (erf(mu*r12)/r12)        ....  0.470000
   NL short-range parameter             ....  6.400000
 RI-approximation to the Coulomb term is turned on
   Number of AuxJ basis functions       .... 300
   RIJ-COSX (HFX calculated with COS-X)).... on


General Settings:
 Integral files         IntName         .... SVP_LC_PBE_C2_wt_dlpno_neg
 Hartree-Fock type      HFTyp           .... RHF
 Total Charge           Charge          ....    0
 Multiplicity           Mult            ....    1
 Number of Electrons    NEL             ....   40
 Basis Dimension        Dim             ....   95
 Nuclear Repulsion      ENuc            ....    176.7244800549 Eh

Convergence Acceleration:
 DIIS                   CNVDIIS         .... on
   Start iteration      DIISMaxIt       ....    12
   Startup error        DIISStart       ....  0.200000
   # of expansion vecs  DIISMaxEq       ....     5
   Bias factor          DIISBfac        ....   1.050
   Max. coefficient     DIISMaxC        ....  10.000
 Trust-Rad. Augm. Hess. CNVTRAH         .... auto
   Auto Start mean grad. ratio tolernc. ....  1.125000
   Auto Start start iteration           ....    20
   Auto Start num. interpolation iter.  ....    10
   Max. Number of Micro iterations      ....    16
   Max. Number of Macro iterations      .... Maxiter - #DIIS iter
   Number of Davidson start vectors     ....     2
   Converg. threshold I  (grad. norm)   ....   1.000e-05
   Converg. threshold II (energy diff.) ....   1.000e-08
   Grad. Scal. Fac. for Micro threshold ....   0.100
   Minimum threshold for Micro iter.    ....   0.010
   NR start threshold (gradient norm)   ....   0.001
   Initial trust radius                 ....   0.400
   Minimum AH scaling param. (alpha)    ....   1.000
   Maximum AH scaling param. (alpha)    .... 1000.000
   Orbital update algorithm             .... Taylor
   White noise on init. David. guess    .... on
   Maximum white noise                  ....   0.010
   Quad. conv. algorithm                .... NR
 SOSCF                  CNVSOSCF        .... on
   Start iteration      SOSCFMaxIt      ....   150
   Startup grad/error   SOSCFStart      ....  0.003300
 Level Shifting         CNVShift        .... on
   Level shift para.    LevelShift      ....    0.2500
   Turn off err/grad.   ShiftErr        ....    0.0010
 Zerner damping         CNVZerner       .... off
 Static damping         CNVDamp         .... on
   Fraction old density DampFac         ....    0.7000
   Max. Damping (<1)    DampMax         ....    0.9800
   Min. Damping (>=0)   DampMin         ....    0.0000
   Turn off err/grad.   DampErr         ....    0.1000
 Fernandez-Rico         CNVRico         .... off

SCF Procedure:
 Maximum # iterations   MaxIter         ....   150
 SCF integral mode      SCFMode         .... Direct
   Integral package                     .... SHARK and LIBINT hybrid scheme
 Reset frequency        DirectResetFreq ....    20
 Integral Threshold     Thresh          ....  2.500e-11 Eh
 Primitive CutOff       TCut            ....  2.500e-12 Eh

Convergence Tolerance:
 Convergence Check Mode ConvCheckMode   .... Total+1el-Energy
 Convergence forced     ConvForced      .... 0
 Energy Change          TolE            ....  1.000e-08 Eh
 1-El. energy change                    ....  1.000e-05 Eh
 Orbital Gradient       TolG            ....  1.000e-05
 Orbital Rotation angle TolX            ....  1.000e-05
 DIIS Error             TolErr          ....  5.000e-07


Diagonalization of the overlap matrix:
Smallest eigenvalue                        ... 3.169e-03
Time for diagonalization                   ...    0.003 sec
Threshold for overlap eigenvalues          ... 1.000e-08
Number of eigenvalues below threshold      ... 0
Time for construction of square roots      ...    0.002 sec
Total time needed                          ...    0.006 sec

Time for model grid setup =    0.050 sec

------------------------------
INITIAL GUESS: MODEL POTENTIAL
------------------------------
Loading Hartree-Fock densities                     ... done
Calculating cut-offs                               ... done
Initializing the effective Hamiltonian             ... done
Setting up the integral package (SHARK)            ... done
Starting the Coulomb interaction                   ... done (   0.0 sec)
Reading the grid                                   ... done
Mapping shells                                     ... done
Starting the XC term evaluation                    ... done (   0.0 sec)
  promolecular density results
     # of electrons  =     39.998061875
     EX              =    -25.372236585
     EC              =     -1.329753243
     EX+EC           =    -26.701989828
Transforming the Hamiltonian                       ... done (   0.0 sec)
Diagonalizing the Hamiltonian                      ... done (   0.0 sec)
Back transforming the eigenvectors                 ... done (   0.0 sec)
Now organizing SCF variables                       ... done
                      ------------------
                      INITIAL GUESS DONE (   0.1 sec)
                      ------------------
-------------------
DFT GRID GENERATION
-------------------

General Integration Accuracy     IntAcc      ... 4.388
Radial Grid Type                 RadialGrid  ... OptM3 with GC (2021)
Angular Grid (max. ang.)         AngularGrid ... 4 (Lebedev-302)
Angular grid pruning method      GridPruning ... 4 (adaptive)
Weight generation scheme         WeightScheme... Becke
Basis function cutoff            BFCut       ... 1.0000e-11
Integration weight cutoff        WCut        ... 1.0000e-14
Angular grids for H and He will be reduced by one unit
Partially contracted basis set               ... off
Rotationally invariant grid construction     ... off

Total number of grid points                  ...    46584
Total number of batches                      ...      733
Average number of points per batch           ...       63
Average number of grid points per atom       ...     4658
Time for grid setup =    0.276 sec

--------------------
COSX GRID GENERATION
--------------------

GRIDX 1
-------
General Integration Accuracy     IntAcc      ... 3.816
Radial Grid Type                 RadialGrid  ... OptM3 with GC (2021)
Angular Grid (max. ang.)         AngularGrid ... 1 (Lebedev-50)
Angular grid pruning method      GridPruning ... 4 (adaptive)
Weight generation scheme         WeightScheme... Becke
Basis function cutoff            BFCut       ... 1.0000e-11
Integration weight cutoff        WCut        ... 1.0000e-14
Angular grids for H and He will be reduced by one unit
Partially contracted basis set               ... on
Rotationally invariant grid construction     ... off

Total number of grid points                  ...     5956
Total number of batches                      ...      100
Average number of points per batch           ...       59
Average number of grid points per atom       ...      596
UseSFitting                                  ... on

GRIDX 2
-------
General Integration Accuracy     IntAcc      ... 4.020
Radial Grid Type                 RadialGrid  ... OptM3 with GC (2021)
Angular Grid (max. ang.)         AngularGrid ... 2 (Lebedev-110)
Angular grid pruning method      GridPruning ... 4 (adaptive)
Weight generation scheme         WeightScheme... Becke
Basis function cutoff            BFCut       ... 1.0000e-11
Integration weight cutoff        WCut        ... 1.0000e-14
Angular grids for H and He will be reduced by one unit
Partially contracted basis set               ... on
Rotationally invariant grid construction     ... off

Total number of grid points                  ...    13069
Total number of batches                      ...      210
Average number of points per batch           ...       62
Average number of grid points per atom       ...     1307
UseSFitting                                  ... on

GRIDX 3
-------
General Integration Accuracy     IntAcc      ... 4.338
Radial Grid Type                 RadialGrid  ... OptM3 with GC (2021)
Angular Grid (max. ang.)         AngularGrid ... 3 (Lebedev-194)
Angular grid pruning method      GridPruning ... 4 (adaptive)
Weight generation scheme         WeightScheme... Becke
Basis function cutoff            BFCut       ... 1.0000e-11
Integration weight cutoff        WCut        ... 1.0000e-14
Angular grids for H and He will be reduced by one unit
Partially contracted basis set               ... on
Rotationally invariant grid construction     ... off

Total number of grid points                  ...    28869
Total number of batches                      ...      457
Average number of points per batch           ...       63
Average number of grid points per atom       ...     2887
UseSFitting                                  ... on

Time for X-Grid setup             =    0.223 sec

--------------
SCF ITERATIONS
--------------
ITER       Energy         Delta-E        Max-DP      RMS-DP      [F,P]     Damp
               ***  Starting incremental Fock matrix formation  ***
  0   -291.2638381230   0.000000000000 0.05753457  0.00221657  0.1385028 0.7000
  1   -291.3062702149  -0.042432091886 0.03421122  0.00150846  0.0599858 0.7000
                               ***Turning on DIIS***
  2   -291.3251020421  -0.018831827211 0.05802756  0.00290282  0.0310129 0.0000
  3   -291.3580563898  -0.032954347746 0.02995831  0.00116271  0.0383426 0.0000
  4   -291.3631088744  -0.005052484560 0.00958750  0.00038188  0.0091988 0.0000
  5   -291.3633886953  -0.000279820929 0.00352648  0.00020182  0.0036896 0.0000
                      *** Initiating the SOSCF procedure ***
                           *** Shutting down DIIS ***
                      *** Re-Reading the Fockian *** 
                      *** Removing any level shift *** 
ITER      Energy       Delta-E        Grad      Rot      Max-DP    RMS-DP
  6   -291.36345504  -0.0000663452  0.001017  0.001017  0.002253  0.000123
               *** Restarting incremental Fock matrix formation ***
  7   -291.36346033  -0.0000052862  0.000210  0.000304  0.000305  0.000021
  8   -291.36346108  -0.0000007560  0.000190  0.000506  0.000305  0.000017
  9   -291.36346134  -0.0000002533  0.000071  0.000117  0.000094  0.000004
 10   -291.36346137  -0.0000000330  0.000015  0.000018  0.000030  0.000002
 11   -291.36346137  -0.0000000032  0.000009  0.000011  0.000016  0.000001
                  ***Gradient check signals convergence***
              ***Rediagonalizing the Fockian in SOSCF/NRSCF***

               *****************************************************
               *                     SUCCESS                       *
               *           SCF CONVERGED AFTER  12 CYCLES          *
               *****************************************************


----------------
TOTAL SCF ENERGY
----------------

Total Energy       :         -291.36346137 Eh           -7928.40286 eV

Components:
Nuclear Repulsion  :          176.72448005 Eh            4808.91758 eV
Electronic Energy  :         -468.08794143 Eh          -12737.32044 eV
One Electron Energy:         -749.39907927 Eh          -20392.18567 eV
Two Electron Energy:          281.31113784 Eh            7654.86523 eV
Max COSX asymmetry :            0.00000576 Eh               0.00016 eV

Virial components:
Potential Energy   :         -580.50251971 Eh          -15796.27663 eV
Kinetic Energy     :          289.13905833 Eh            7867.87377 eV
Virial Ratio       :            2.00769319


DFT components:
N(Alpha)           :       19.999978667048 electrons
N(Beta)            :       19.999978667048 electrons
N(Total)           :       39.999957334095 electrons
E(X)               :      -25.730014733154 Eh       
E(C)               :       -1.343151971635 Eh       
E(XC)              :      -27.073166704789 Eh       
DFET-embed. en.    :        0.000000000000 Eh       

---------------
SCF CONVERGENCE
---------------

  Last Energy change         ...   -1.5890e-09  Tolerance :   1.0000e-08
  Last MAX-Density change    ...    3.2875e-06  Tolerance :   1.0000e-07
  Last RMS-Density change    ...    1.3153e-07  Tolerance :   5.0000e-09
  Last Orbital Gradient      ...    1.4350e-06  Tolerance :   1.0000e-05
  Last Orbital Rotation      ...    2.9681e-06  Tolerance :   1.0000e-05

             **** THE GBW FILE WAS UPDATED (SVP_LC_PBE_C2_wt_dlpno_neg.gbw) ****
             **** DENSITY SVP_LC_PBE_C2_wt_dlpno_neg.scfp WAS UPDATED ****
             **** ENERGY FILE WAS UPDATED (SVP_LC_PBE_C2_wt_dlpno_neg.en.tmp) ****
             **** THE GBW FILE WAS UPDATED (SVP_LC_PBE_C2_wt_dlpno_neg.gbw) ****
             **** DENSITY SVP_LC_PBE_C2_wt_dlpno_neg.scfp WAS UPDATED ****
----------------
ORBITAL ENERGIES
----------------

  NO   OCC          E(Eh)            E(eV) 
   0   2.0000     -24.556094      -668.2053 
   1   2.0000     -18.994679      -516.8715 
   2   2.0000     -10.303932      -280.3842 
   3   2.0000     -10.154064      -276.3061 
   4   2.0000     -10.133816      -275.7551 
   5   2.0000      -1.440146       -39.1884 
   6   2.0000      -1.202608       -32.7246 
   7   2.0000      -0.972135       -26.4531 
   8   2.0000      -0.837091       -22.7784 
   9   2.0000      -0.784909       -21.3585 
  10   2.0000      -0.695262       -18.9190 
  11   2.0000      -0.678240       -18.4559 
  12   2.0000      -0.648149       -17.6370 
  13   2.0000      -0.606580       -16.5059 
  14   2.0000      -0.576451       -15.6860 
  15   2.0000      -0.540116       -14.6973 
  16   2.0000      -0.519205       -14.1283 
  17   2.0000      -0.501597       -13.6491 
  18   2.0000      -0.490105       -13.3364 
  19   2.0000      -0.425079       -11.5670 
  20   0.0000       0.085211         2.3187 
  21   0.0000       0.154538         4.2052 
  22   0.0000       0.198759         5.4085 
  23   0.0000       0.204237         5.5576 
  24   0.0000       0.228439         6.2161 
  25   0.0000       0.237755         6.4696 
  26   0.0000       0.257899         7.0178 
  27   0.0000       0.324952         8.8424 
  28   0.0000       0.353247         9.6123 
  29   0.0000       0.415321        11.3014 
  30   0.0000       0.517377        14.0785 
  31   0.0000       0.533748        14.5240 
  32   0.0000       0.545457        14.8426 
  33   0.0000       0.568210        15.4618 
  34   0.0000       0.640933        17.4407 
  35   0.0000       0.668443        18.1893 
  36   0.0000       0.737663        20.0728 
  37   0.0000       0.741365        20.1736 
  38   0.0000       0.766653        20.8617 
  39   0.0000       0.776133        21.1197 
  40   0.0000       0.793276        21.5862 
  41   0.0000       0.802593        21.8397 
  42   0.0000       0.810075        22.0433 
  43   0.0000       0.820271        22.3207 
  44   0.0000       0.834700        22.7133 
  45   0.0000       0.987108        26.8606 
  46   0.0000       1.031664        28.0730 
  47   0.0000       1.059282        28.8245 
  48   0.0000       1.147791        31.2330 
  49   0.0000       1.189203        32.3598 
  50   0.0000       1.225940        33.3595 
  51   0.0000       1.278664        34.7942 
  52   0.0000       1.389641        37.8140 
  53   0.0000       1.410514        38.3820 
  54   0.0000       1.456685        39.6384 
  55   0.0000       1.477914        40.2161 
  56   0.0000       1.550705        42.1968 
  57   0.0000       1.647260        44.8242 
  58   0.0000       1.686183        45.8834 
  59   0.0000       1.715397        46.6783 
  60   0.0000       1.826366        49.6980 
  61   0.0000       1.841401        50.1071 
  62   0.0000       1.883729        51.2589 
  63   0.0000       1.917917        52.1892 
  64   0.0000       1.925374        52.3921 
  65   0.0000       1.949125        53.0384 
  66   0.0000       1.990221        54.1567 
  67   0.0000       1.998595        54.3845 
  68   0.0000       2.005610        54.5754 
  69   0.0000       2.054922        55.9173 
  70   0.0000       2.118532        57.6482 
  71   0.0000       2.158579        58.7379 
  72   0.0000       2.261392        61.5356 
  73   0.0000       2.307034        62.7776 
  74   0.0000       2.434006        66.2327 
  75   0.0000       2.469857        67.2082 
  76   0.0000       2.536291        69.0160 
  77   0.0000       2.631064        71.5949 
  78   0.0000       2.684687        73.0540 
  79   0.0000       2.740704        74.5784 
  80   0.0000       2.796030        76.0839 
  81   0.0000       2.832276        77.0702 
  82   0.0000       2.936502        79.9063 
  83   0.0000       3.013336        81.9970 
  84   0.0000       3.058612        83.2291 
  85   0.0000       3.093987        84.1917 
  86   0.0000       3.123626        84.9982 
  87   0.0000       3.142113        85.5012 
  88   0.0000       3.167304        86.1867 
  89   0.0000       3.249578        88.4255 
  90   0.0000       3.358460        91.3884 
  91   0.0000       3.536708        96.2387 
  92   0.0000       3.579807        97.4115 
  93   0.0000       3.813427       103.7686 
  94   0.0000       4.043100       110.0183 

                    ********************************
                    * MULLIKEN POPULATION ANALYSIS *
                    ********************************

-----------------------
MULLIKEN ATOMIC CHARGES
-----------------------
   0 C :   -0.150033
   1 C :   -0.195306
   2 H :    0.102960
   3 H :    0.085286
   4 C :    0.217331
   5 O :   -0.211343
   6 F :   -0.087529
   7 H :    0.080571
   8 H :    0.073027
   9 H :    0.085035
Sum of atomic charges:   -0.0000000

--------------------------------
MULLIKEN REDUCED ORBITAL CHARGES
--------------------------------
  0 C s       :     3.035997  s :     3.035997
      pz      :     1.076112  p :     3.084792
      px      :     0.990869
      py      :     1.017812
      dz2     :     0.005449  d :     0.029244
      dxz     :     0.009135
      dyz     :     0.002194
      dx2y2   :     0.006130
      dxy     :     0.006336
  1 C s       :     3.099648  s :     3.099648
      pz      :     0.985325  p :     3.063110
      px      :     1.013206
      py      :     1.064579
      dz2     :     0.005495  d :     0.032549
      dxz     :     0.010781
      dyz     :     0.003260
      dx2y2   :     0.006778
      dxy     :     0.006234
  2 H s       :     0.876654  s :     0.876654
      pz      :     0.003842  p :     0.020386
      px      :     0.004732
      py      :     0.011812
  3 H s       :     0.894292  s :     0.894292
      pz      :     0.010281  p :     0.020423
      px      :     0.006240
      py      :     0.003901
  4 C s       :     3.094475  s :     3.094475
      pz      :     0.970081  p :     2.535508
      px      :     0.793322
      py      :     0.772104
      dz2     :     0.036436  d :     0.152686
      dxz     :     0.037820
      dyz     :     0.030306
      dx2y2   :     0.022117
      dxy     :     0.026008
  5 O s       :     3.731941  s :     3.731941
      pz      :     1.412765  p :     4.460827
      px      :     1.574018
      py      :     1.474044
      dz2     :     0.005787  d :     0.018575
      dxz     :     0.004843
      dyz     :     0.005784
      dx2y2   :     0.001286
      dxy     :     0.000875
  6 F s       :     3.849862  s :     3.849862
      pz      :     1.885249  p :     5.228012
      px      :     1.664813
      py      :     1.677950
      dz2     :     0.001235  d :     0.009655
      dxz     :     0.001375
      dyz     :     0.001150
      dx2y2   :     0.002405
      dxy     :     0.003490
  7 H s       :     0.896770  s :     0.896770
      pz      :     0.010203  p :     0.022658
      px      :     0.007191
      py      :     0.005264
  8 H s       :     0.904352  s :     0.904352
      pz      :     0.005140  p :     0.022621
      px      :     0.005339
      py      :     0.012141
  9 H s       :     0.892474  s :     0.892474
      pz      :     0.011214  p :     0.022491
      px      :     0.006809
      py      :     0.004467


                     *******************************
                     * LOEWDIN POPULATION ANALYSIS *
                     *******************************

----------------------
LOEWDIN ATOMIC CHARGES
----------------------
   0 C :   -0.076713
   1 C :   -0.098308
   2 H :    0.055769
   3 H :    0.043904
   4 C :    0.092390
   5 O :   -0.162118
   6 F :    0.024025
   7 H :    0.041793
   8 H :    0.036981
   9 H :    0.042277

-------------------------------
LOEWDIN REDUCED ORBITAL CHARGES
-------------------------------
  0 C s       :     2.812835  s :     2.812835
      pz      :     1.092891  p :     3.191764
      px      :     1.038668
      py      :     1.060206
      dz2     :     0.013785  d :     0.072114
      dxz     :     0.021983
      dyz     :     0.004857
      dx2y2   :     0.013882
      dxy     :     0.017607
  1 C s       :     2.845893  s :     2.845893
      pz      :     1.044085  p :     3.171999
      px      :     1.049821
      py      :     1.078094
      dz2     :     0.015097  d :     0.080416
      dxz     :     0.027011
      dyz     :     0.007101
      dx2y2   :     0.014616
      dxy     :     0.016591
  2 H s       :     0.876446  s :     0.876446
      pz      :     0.012466  p :     0.067784
      px      :     0.017537
      py      :     0.037782
  3 H s       :     0.888176  s :     0.888176
      pz      :     0.033991  p :     0.067920
      px      :     0.020351
      py      :     0.013577
  4 C s       :     2.874984  s :     2.874984
      pz      :     1.051903  p :     2.708020
      px      :     0.840394
      py      :     0.815723
      dz2     :     0.076993  d :     0.324606
      dxz     :     0.082562
      dyz     :     0.067219
      dx2y2   :     0.041823
      dxy     :     0.056009
  5 O s       :     3.551177  s :     3.551177
      pz      :     1.521049  p :     4.580199
      px      :     1.572799
      py      :     1.486352
      dz2     :     0.011395  d :     0.030743
      dxz     :     0.006908
      dyz     :     0.009518
      dx2y2   :     0.001551
      dxy     :     0.001371
  6 F s       :     3.684358  s :     3.684358
      pz      :     1.880587  p :     5.275318
      px      :     1.692653
      py      :     1.702078
      dz2     :     0.002346  d :     0.016299
      dxz     :     0.002146
      dyz     :     0.001873
      dx2y2   :     0.002979
      dxy     :     0.006956
  7 H s       :     0.888508  s :     0.888508
      pz      :     0.030642  p :     0.069700
      px      :     0.022852
      py      :     0.016205
  8 H s       :     0.893237  s :     0.893237
      pz      :     0.015176  p :     0.069782
      px      :     0.017150
      py      :     0.037456
  9 H s       :     0.887589  s :     0.887589
      pz      :     0.033581  p :     0.070135
      px      :     0.022523
      py      :     0.014030


                      *****************************
                      * MAYER POPULATION ANALYSIS *
                      *****************************

  NA   - Mulliken gross atomic population
  ZA   - Total nuclear charge
  QA   - Mulliken gross atomic charge
  VA   - Mayer's total valence
  BVA  - Mayer's bonded valence
  FA   - Mayer's free valence

  ATOM       NA         ZA         QA         VA         BVA        FA
  0 C      6.1500     6.0000    -0.1500     3.9941     3.9941     0.0000
  1 C      6.1953     6.0000    -0.1953     3.9367     3.9367    -0.0000
  2 H      0.8970     1.0000     0.1030     0.9806     0.9806    -0.0000
  3 H      0.9147     1.0000     0.0853     0.9727     0.9727    -0.0000
  4 C      5.7827     6.0000     0.2173     4.3353     4.3353    -0.0000
  5 O      8.2113     8.0000    -0.2113     2.2415     2.2415    -0.0000
  6 F      9.0875     9.0000    -0.0875     1.2670     1.2670    -0.0000
  7 H      0.9194     1.0000     0.0806     0.9818     0.9818     0.0000
  8 H      0.9270     1.0000     0.0730     0.9822     0.9822     0.0000
  9 H      0.9150     1.0000     0.0850     0.9842     0.9842     0.0000

  Mayer bond orders larger than 0.100000
B(  0-C ,  1-C ) :   1.0618 B(  0-C ,  7-H ) :   0.9759 B(  0-C ,  8-H ) :   0.9766 
B(  0-C ,  9-H ) :   0.9732 B(  1-C ,  2-H ) :   0.9537 B(  1-C ,  3-H ) :   0.9481 
B(  1-C ,  4-C ) :   0.9814 B(  4-C ,  5-O ) :   2.1440 B(  4-C ,  6-F ) :   1.1883 


-------
TIMINGS
-------

Total SCF time: 0 days 0 hours 0 min 6 sec 

Total time                  ....       6.742 sec
Sum of individual times     ....       6.630 sec  ( 98.3%)

Fock matrix formation       ....       5.977 sec  ( 88.7%)
  Split-RI-J                ....       0.329 sec  (  5.5% of F)
  Chain of spheres X        ....       4.421 sec  ( 74.0% of F)
  XC integration            ....       1.206 sec  ( 20.2% of F)
    Basis function eval.    ....       0.466 sec  ( 38.6% of XC)
    Density eval.           ....       0.210 sec  ( 17.4% of XC)
    XC-Functional eval.     ....       0.233 sec  ( 19.3% of XC)
    XC-Potential eval.      ....       0.190 sec  ( 15.7% of XC)
Diagonalization             ....       0.020 sec  (  0.3%)
Density matrix formation    ....       0.001 sec  (  0.0%)
Population analysis         ....       0.004 sec  (  0.1%)
Initial guess               ....       0.050 sec  (  0.7%)
Orbital Transformation      ....       0.000 sec  (  0.0%)
Orbital Orthonormalization  ....       0.000 sec  (  0.0%)
DIIS solution               ....       0.016 sec  (  0.2%)
SOSCF solution              ....       0.013 sec  (  0.2%)
Grid generation             ....       0.549 sec  (  8.1%)

Maximum memory used throughout the entire SCF-calculation: 15.6 MB

-------------------------   --------------------
FINAL SINGLE POINT ENERGY      -291.363461373813
-------------------------   --------------------


                            ***************************************
                            *     ORCA property calculations      *
                            ***************************************

                                    ---------------------
                                    Active property flags
                                    ---------------------
   (+) Dipole Moment


------------------------------------------------------------------------------
                       ORCA ELECTRIC PROPERTIES CALCULATION
------------------------------------------------------------------------------

Dipole Moment Calculation                       ... on
Quadrupole Moment Calculation                   ... off
Polarizability Calculation                      ... off
GBWName                                         ... SVP_LC_PBE_C2_wt_dlpno_neg.gbw
Electron density file                           ... SVP_LC_PBE_C2_wt_dlpno_neg.scfp
The origin for moment calculation is the CENTER OF MASS  = ( 8.703470,  2.755019 -4.832629)

-------------
DIPOLE MOMENT
-------------
                                X             Y             Z
Electronic contribution:      7.05900       1.01639       4.26549
Nuclear contribution   :     -7.35982      -0.91407      -5.31589
                        -----------------------------------------
Total Dipole Moment    :     -0.30081       0.10232      -1.05041
                        -----------------------------------------
Magnitude (a.u.)       :      1.09741
Magnitude (Debye)      :      2.78940



--------------------
Rotational spectrum 
--------------------
 
Rotational constants in cm-1:     0.275433     0.132201     0.105422 
Rotational constants in MHz :  8257.268192  3963.279062  3160.465566 

 Dipole components along the rotational axes: 
x,y,z [a.u.] :    -0.882040    -0.573648     0.311840 
x,y,z [Debye]:    -2.241969    -1.458096     0.792634 

 

Timings for individual modules:

Sum of individual times         ...       10.269 sec (=   0.171 min)
GTO integral calculation        ...        1.762 sec (=   0.029 min)  17.2 %
SCF iterations                  ...        8.507 sec (=   0.142 min)  82.8 %
                             ****ORCA TERMINATED NORMALLY****
TOTAL RUN TIME: 0 days 0 hours 0 minutes 10 seconds 700 msec
