
                                        *****************
                                        * O   R   C   A *
                                        *****************

                                            #,                                       
                                            ###                                      
                                            ####                                     
                                            #####                                    
                                            ######                                   
                                           ########,                                 
                                     ,,################,,,,,                         
                               ,,#################################,,                 
                          ,,##########################################,,             
                       ,#########################################, ''#####,          
                    ,#############################################,,   '####,        
                  ,##################################################,,,,####,       
                ,###########''''           ''''###############################       
              ,#####''   ,,,,##########,,,,          '''####'''          '####       
            ,##' ,,,,###########################,,,                        '##       
           ' ,,###''''                  '''############,,,                           
         ,,##''                                '''############,,,,        ,,,,,,###''
      ,#''                                            '''#######################'''  
     '                                                          ''''####''''         
             ,#######,   #######,   ,#######,      ##                                
            ,#'     '#,  ##    ##  ,#'     '#,    #''#        ######   ,####,        
            ##       ##  ##   ,#'  ##            #'  '#       #        #'  '#        
            ##       ##  #######   ##           ,######,      #####,   #    #        
            '#,     ,#'  ##    ##  '#,     ,#' ,#      #,         ##   #,  ,#        
             '#######'   ##     ##  '#######'  #'      '#     #####' # '####'        



                  #######################################################
                  #                        -***-                        #
                  #          Department of theory and spectroscopy      #
                  #    Directorship and core code : Frank Neese         #
                  #        Max Planck Institute fuer Kohlenforschung    #
                  #                Kaiser Wilhelm Platz 1               #
                  #                 D-45470 Muelheim/Ruhr               #
                  #                      Germany                        #
                  #                                                     #
                  #                  All rights reserved                #
                  #                        -***-                        #
                  #######################################################


                         Program Version 5.0.0 -  RELEASE  -
                                (SVN: $Rev: 19529$)
                ($Date: 2021-06-28 11:36:33 +0200 (Mo, 28 Jun 2021) $)


 With contributions from (in alphabetic order):
   Daniel Aravena         : Magnetic Suceptibility
   Michael Atanasov       : Ab Initio Ligand Field Theory (pilot matlab implementation)
   Alexander A. Auer      : GIAO ZORA, VPT2 properties, NMR spectrum
   Ute Becker             : Parallelization
   Giovanni Bistoni       : ED, misc. LED, open-shell LED, HFLD
   Martin Brehm           : Molecular dynamics
   Dmytro Bykov           : SCF Hessian
   Vijay G. Chilkuri      : MRCI spin determinant printing, contributions to CSF-ICE
   Dipayan Datta          : RHF DLPNO-CCSD density
   Achintya Kumar Dutta   : EOM-CC, STEOM-CC
   Dmitry Ganyushin       : Spin-Orbit,Spin-Spin,Magnetic field MRCI
   Miquel Garcia          : C-PCM Hessian, Gaussian charge scheme
   Yang Guo               : DLPNO-NEVPT2, F12-NEVPT2, CIM, IAO-localization
   Andreas Hansen         : Spin unrestricted coupled pair/coupled cluster methods
   Benjamin Helmich-Paris : MC-RPA, TRAH-SCF, COSX integrals
   Lee Huntington         : MR-EOM, pCC
   Robert Izsak           : Overlap fitted RIJCOSX, COSX-SCS-MP3, EOM
   Marcus Kettner         : VPT2
   Christian Kollmar      : KDIIS, OOCD, Brueckner-CCSD(T), CCSD density, CASPT2, CASPT2-K
   Simone Kossmann        : Meta GGA functionals, TD-DFT gradient, OOMP2, MP2 Hessian
   Martin Krupicka        : Initial AUTO-CI
   Lucas Lang             : DCDCAS
   Marvin Lechner         : AUTO-CI (C++ implementation), FIC-MRCC
   Dagmar Lenk            : GEPOL surface, SMD
   Dimitrios Liakos       : Extrapolation schemes; Compound Job, initial MDCI parallelization
   Dimitrios Manganas     : Further ROCIS development; embedding schemes
   Dimitrios Pantazis     : SARC Basis sets
   Anastasios Papadopoulos: AUTO-CI, single reference methods and gradients
   Taras Petrenko         : DFT Hessian,TD-DFT gradient, ASA, ECA, R-Raman, ABS, FL, XAS/XES, NRVS
   Peter Pinski           : DLPNO-MP2, DLPNO-MP2 Gradient
   Christoph Reimann      : Effective Core Potentials
   Marius Retegan         : Local ZFS, SOC
   Christoph Riplinger    : Optimizer, TS searches, QM/MM, DLPNO-CCSD(T), (RO)-DLPNO pert. Triples
   Tobias Risthaus        : Range-separated hybrids, TD-DFT gradient, RPA, STAB
   Michael Roemelt        : Original ROCIS implementation
   Masaaki Saitow         : Open-shell DLPNO-CCSD energy and density
   Barbara Sandhoefer     : DKH picture change effects
   Avijit Sen             : IP-ROCIS
   Kantharuban Sivalingam : CASSCF convergence, NEVPT2, FIC-MRCI
   Bernardo de Souza      : ESD, SOC TD-DFT
   Georgi Stoychev        : AutoAux, RI-MP2 NMR
   Willem Van den Heuvel  : Paramagnetic NMR
   Boris Wezisla          : Elementary symmetry handling
   Frank Wennmohs         : Technical directorship


 We gratefully acknowledge several colleagues who have allowed us to
 interface, adapt or use parts of their codes:
   Stefan Grimme, W. Hujo, H. Kruse, P. Pracht,  : VdW corrections, initial TS optimization,
                  C. Bannwarth, S. Ehlert          DFT functionals, gCP, sTDA/sTD-DF
   Ed Valeev, F. Pavosevic, A. Kumar             : LibInt (2-el integral package), F12 methods
   Garnet Chan, S. Sharma, J. Yang, R. Olivares  : DMRG
   Ulf Ekstrom                                   : XCFun DFT Library
   Mihaly Kallay                                 : mrcc  (arbitrary order and MRCC methods)
   Jiri Pittner, Ondrej Demel                    : Mk-CCSD
   Frank Weinhold                                : gennbo (NPA and NBO analysis)
   Christopher J. Cramer and Donald G. Truhlar   : smd solvation model
   Lars Goerigk                                  : TD-DFT with DH, B97 family of functionals
   V. Asgeirsson, H. Jonsson                     : NEB implementation
   FAccTs GmbH                                   : IRC, NEB, NEB-TS, DLPNO-Multilevel, CI-OPT
                                                   MM, QMMM, 2- and 3-layer-ONIOM, Crystal-QMMM,
                                                   LR-CPCM, SF, NACMEs, symmetry and pop. for TD-DFT,
                                                   nearIR, NL-DFT gradient (VV10), updates on ESD,
                                                   ML-optimized integration grids
   S Lehtola, MJT Oliveira, MAL Marques          : LibXC Library
   Liviu Ungur et al                             : ANISO software


 Your calculation uses the libint2 library for the computation of 2-el integrals
 For citations please refer to: http://libint.valeyev.net

 Your ORCA version has been built with support for libXC version: 5.1.0
 For citations please refer to: https://tddft.org/programs/libxc/

 This ORCA versions uses:
   CBLAS   interface :  Fast vector & matrix operations
   LAPACKE interface :  Fast linear algebra routines
   SCALAPACK package :  Parallel linear algebra routines
   Shared memory     :  Shared parallel matrices
   BLAS/LAPACK       :  OpenBLAS 0.3.15  USE64BITINT DYNAMIC_ARCH NO_AFFINITY Haswell SINGLE_THREADED
        Core in use  :  Haswell
   Copyright (c) 2011-2014, The OpenBLAS Project


================================================================================

----- Orbital basis set information -----
Your calculation utilizes the basis: def2-SVPD
   F. Weigend and R. Ahlrichs, Phys. Chem. Chem. Phys. 7, 3297 (2005).
   D. Rappoport and F. Furche, J. Chem. Phys. 133 134105 (2010).

----- AuxJ basis set information -----
Your calculation utilizes the auxiliary basis: def2/J
   F. Weigend, Phys. Chem. Chem. Phys. 8, 1057 (2006).

================================================================================
                                        WARNINGS
                       Please study these warnings very carefully!
================================================================================


INFO   : the flag for use of the SHARK integral package has been found!

================================================================================
                                       INPUT FILE
================================================================================
NAME = 14Feb_SVPD_LC_PBE_C3_wt_wb97_typ1_neg.com
|  1> !LC-PBE RIJCOSX def2-SVPD def2/J TightSCF 
|  2> *xyz 0 1
|  3> C          4.93020       -7.37532       -2.64962
|  4> C          3.84189       -6.95161       -3.63283
|  5> H          3.45814       -5.95442       -3.40712
|  6> H          2.98848       -7.64361       -3.56708
|  7> S          4.31812       -6.91593       -5.36869
|  8> O          5.40615       -5.89948       -5.51297
|  9> O          3.11191       -6.44508       -6.04379
| 10> C          6.17399       -6.48552       -2.60631
| 11> H          4.46961       -7.40617       -1.65588
| 12> H          5.23013       -8.39868       -2.88591
| 13> F          4.76340       -8.23942       -5.69863
| 14> H          6.62449       -6.45478       -3.57637
| 15> H          6.87304       -6.88376       -1.90088
| 16> H          5.89434       -5.49571       -2.31140
| 17> *
| 18> 
| 19> %MaxCore 64000
| 20> 
| 21> %pal nprocs 8
| 22> end  
| 23> 
| 24> %scf
| 25>   MaxIter 150
| 26> end
| 27> 
| 28> 
| 29>                          ****END OF INPUT****
================================================================================

                       ****************************
                       * Single Point Calculation *
                       ****************************

---------------------------------
CARTESIAN COORDINATES (ANGSTROEM)
---------------------------------
  C      4.930200   -7.375320   -2.649620
  C      3.841890   -6.951610   -3.632830
  H      3.458140   -5.954420   -3.407120
  H      2.988480   -7.643610   -3.567080
  S      4.318120   -6.915930   -5.368690
  O      5.406150   -5.899480   -5.512970
  O      3.111910   -6.445080   -6.043790
  C      6.173990   -6.485520   -2.606310
  H      4.469610   -7.406170   -1.655880
  H      5.230130   -8.398680   -2.885910
  F      4.763400   -8.239420   -5.698630
  H      6.624490   -6.454780   -3.576370
  H      6.873040   -6.883760   -1.900880
  H      5.894340   -5.495710   -2.311400

----------------------------
CARTESIAN COORDINATES (A.U.)
----------------------------
  NO LB      ZA    FRAG     MASS         X           Y           Z
   0 C     6.0000    0    12.011    9.316728  -13.937335   -5.007056
   1 C     6.0000    0    12.011    7.260120  -13.136639   -6.865054
   2 H     1.0000    0     1.008    6.534938  -11.252223   -6.438524
   3 H     1.0000    0     1.008    5.647409  -14.444330   -6.740804
   4 S    16.0000    0    32.060    8.160064  -13.069214  -10.145354
   5 O     8.0000    0    15.999   10.216143  -11.148402  -10.418003
   6 O     8.0000    0    15.999    5.880658  -12.179436  -11.421108
   7 C     6.0000    0    12.011   11.667150  -12.255857   -4.925212
   8 H     1.0000    0     1.008    8.446339  -13.995633   -3.129160
   9 H     1.0000    0     1.008    9.883513  -15.871205   -5.453580
  10 F     9.0000    0    18.998    9.001521  -15.570247  -10.768850
  11 H     1.0000    0     1.008   12.518472  -12.197766   -6.758360
  12 H     1.0000    0     1.008   12.988163  -13.008421   -3.592143
  13 H     1.0000    0     1.008   11.138688  -10.385387   -4.367913

--------------------------------
INTERNAL COORDINATES (ANGSTROEM)
--------------------------------
 C      0   0   0     0.000000000000     0.00000000     0.00000000
 C      1   0   0     1.526646889199     0.00000000     0.00000000
 H      2   1   0     1.092060878660   111.76657198     0.00000000
 H      2   1   3     1.100679649398   109.86246394   241.61204958
 S      2   1   3     1.800354969138   115.96941522   121.52143752
 O      5   2   1     1.495926669927   107.38869656   297.68884658
 O      5   2   1     1.460274733261   103.51153753   181.67714202
 C      1   2   3     1.529912860329   115.87230956   299.62488677
 H      1   2   3     1.095725357104   106.99235855    61.93754525
 H      1   2   3     1.092271330119   108.44900947   176.54294881
 F      5   2   1     1.434838130975   106.58999943    58.18902687
 H      8   1   2     1.070005421108   109.47102995   301.01982198
 H      8   1   2     1.069998824766   109.47126889   181.02026995
 H      8   1   2     1.069999937710   109.47161890    61.01999562

---------------------------
INTERNAL COORDINATES (A.U.)
---------------------------
 C      0   0   0     0.000000000000     0.00000000     0.00000000
 C      1   0   0     2.884944523788     0.00000000     0.00000000
 H      2   1   0     2.063695982237   111.76657198     0.00000000
 H      2   1   3     2.079983098544   109.86246394   241.61204958
 S      2   1   3     3.402177835515   115.96941522   121.52143752
 O      5   2   1     2.826891722592   107.38869656   297.68884658
 O      5   2   1     2.759519326148   103.51153753   181.67714202
 C      1   2   3     2.891116314786   115.87230956   299.62488677
 H      1   2   3     2.070620842919   106.99235855    61.93754525
 H      1   2   3     2.064093677859   108.44900947   176.54294881
 F      5   2   1     2.711451114050   106.58999943    58.18902687
 H      8   1   2     2.022017207705   109.47102995   301.01982198
 H      8   1   2     2.022004742425   109.47126889   181.02026995
 H      8   1   2     2.022006845585   109.47161890    61.01999562

---------------------
BASIS SET INFORMATION
---------------------
There are 5 groups of distinct atoms

 Group   1 Type C   : 8s4p2d contracted to 4s2p2d pattern {5111/31/11}
 Group   2 Type H   : 4s2p contracted to 2s2p pattern {31/11}
 Group   3 Type S   : 11s8p2d contracted to 5s4p2d pattern {53111/5111/11}
 Group   4 Type O   : 8s5p2d contracted to 4s3p2d pattern {5111/311/11}
 Group   5 Type F   : 8s5p2d contracted to 4s3p2d pattern {5111/311/11}

Atom   0C    basis set group =>   1
Atom   1C    basis set group =>   1
Atom   2H    basis set group =>   2
Atom   3H    basis set group =>   2
Atom   4S    basis set group =>   3
Atom   5O    basis set group =>   4
Atom   6O    basis set group =>   4
Atom   7C    basis set group =>   1
Atom   8H    basis set group =>   2
Atom   9H    basis set group =>   2
Atom  10F    basis set group =>   5
Atom  11H    basis set group =>   2
Atom  12H    basis set group =>   2
Atom  13H    basis set group =>   2
---------------------------------
AUXILIARY/J BASIS SET INFORMATION
---------------------------------
There are 5 groups of distinct atoms

 Group   1 Type C   : 12s5p4d2f1g contracted to 6s4p3d1f1g pattern {711111/2111/211/2/1}
 Group   2 Type H   : 5s2p1d contracted to 3s1p1d pattern {311/2/1}
 Group   3 Type S   : 14s5p5d2f1g contracted to 8s4p3d1f1g pattern {71111111/2111/311/2/1}
 Group   4 Type O   : 12s5p4d2f1g contracted to 6s4p3d1f1g pattern {711111/2111/211/2/1}
 Group   5 Type F   : 12s5p4d2f1g contracted to 6s4p3d1f1g pattern {711111/2111/211/2/1}

Atom   0C    basis set group =>   1
Atom   1C    basis set group =>   1
Atom   2H    basis set group =>   2
Atom   3H    basis set group =>   2
Atom   4S    basis set group =>   3
Atom   5O    basis set group =>   4
Atom   6O    basis set group =>   4
Atom   7C    basis set group =>   1
Atom   8H    basis set group =>   2
Atom   9H    basis set group =>   2
Atom  10F    basis set group =>   5
Atom  11H    basis set group =>   2
Atom  12H    basis set group =>   2
Atom  13H    basis set group =>   2


           ************************************************************
           *        Program running with 8 parallel MPI-processes     *
           *              working on a common directory               *
           ************************************************************
------------------------------------------------------------------------------
                           ORCA GTO INTEGRAL CALCULATION
                           -- RI-GTO INTEGRALS CHOSEN --
------------------------------------------------------------------------------
------------------------------------------------------------------------------
                   ___                                                        
                  /   \      - P O W E R E D   B Y -                         
                 /     \                                                     
                 |  |  |   _    _      __       _____    __    __             
                 |  |  |  | |  | |    /  \     |  _  \  |  |  /  |          
                  \  \/   | |  | |   /    \    | | | |  |  | /  /          
                 / \  \   | |__| |  /  /\  \   | |_| |  |  |/  /          
                |  |  |   |  __  | /  /__\  \  |    /   |      \           
                |  |  |   | |  | | |   __   |  |    \   |  |\   \          
                \     /   | |  | | |  |  |  |  | |\  \  |  | \   \       
                 \___/    |_|  |_| |__|  |__|  |_| \__\ |__|  \__/        
                                                                              
                      - O R C A' S   B I G   F R I E N D -                    
                                      &                                       
                       - I N T E G R A L  F E E D E R -                       
                                                                              
 v1 FN, 2020, v2 2021                                                         
------------------------------------------------------------------------------


Reading SHARK input file 14Feb_SVPD_LC_PBE_C3_wt_wb97_typ1_neg.SHARKINP.tmp ... ok
----------------------
SHARK INTEGRAL PACKAGE
----------------------

Number of atoms                             ...     14
Number of basis functions                   ...    212
Number of shells                            ...     90
Maximum angular momentum                    ...      2
Integral batch strategy                     ... SHARK/LIBINT Hybrid
RI-J (if used) integral strategy            ... SPLIT-RIJ (Revised 2003 algorithm where possible)
Printlevel                                  ...      1
Contraction scheme used                     ... SEGMENTED contraction
Coulomb Range Separation                    ... NOT USED
Exchange Range Separation                   ... Long Range
   Mu parameter                             ...  0.470000
   Scaling (regular/separated)              ...  0.000000  1.000000
Finite Nucleus Model                        ... NOT USED
Auxiliary Coulomb fitting basis             ... AVAILABLE
   # of basis functions in Aux-J            ...    422
   # of shells in Aux-J                     ...    142
   Maximum angular momentum in Aux-J        ...      4
Auxiliary J/K fitting basis                 ... NOT available
Auxiliary Correlation fitting basis         ... NOT available
Auxiliary 'external' fitting basis          ... NOT available
Integral threshold                          ...     2.500000e-11
Primitive cut-off                           ...     2.500000e-12
Primitive pair pre-selection threshold      ...     2.500000e-12

Calculating pre-screening integrals         ... done (  0.0 sec) Dimension = 90
Organizing shell pair data                  ... done (  0.0 sec)
Shell pair information
Total number of shell pairs                 ...      4095
Shell pairs after pre-screening             ...      3993
Total number of primitive shell pairs       ...     11447
Primitive shell pairs kept                  ...      9083
          la=0 lb=0:    909 shell pairs
          la=1 lb=0:   1382 shell pairs
          la=1 lb=1:    552 shell pairs
          la=2 lb=0:    590 shell pairs
          la=2 lb=1:    456 shell pairs
          la=2 lb=2:    104 shell pairs

Calculating one electron integrals          ... done (  0.0 sec)
Calculating RI/J V-Matrix + Cholesky decomp.... done (  0.0 sec)
Calculating Nuclear repulsion               ... done (  0.0 sec) ENN=    447.174022583064 Eh

SHARK setup successfully completed in   0.2 seconds

Maximum memory used throughout the entire GTOINT-calculation: 8.9 MB


           ************************************************************
           *        Program running with 8 parallel MPI-processes     *
           *              working on a common directory               *
           ************************************************************
-------------------------------------------------------------------------------
                                 ORCA SCF
-------------------------------------------------------------------------------

------------
SCF SETTINGS
------------
Hamiltonian:
 Density Functional     Method          .... DFT(GTOs)
 Exchange Functional    Exchange        .... LC-PBE
 Correlation Functional Correlation     .... PBE
   PBE beta parameter  CBetaPBE         ....  0.066725
 LDA part of GGA corr.  LDAOpt          .... PW91-LDA
 Gradients option       PostSCFGGA      .... off
   Density functional embedding theory  .... OFF
 Long-range corrected/Screened/Range-Separated Hybrid DFT is turned on
   Amount of maximum screened exact exchange              ....  1.000000
   Range separation parameter mu (erf(mu*r12)/r12)        ....  0.470000
   NL short-range parameter             ....  6.400000
 RI-approximation to the Coulomb term is turned on
   Number of AuxJ basis functions       .... 422
   RIJ-COSX (HFX calculated with COS-X)).... on


General Settings:
 Integral files         IntName         .... 14Feb_SVPD_LC_PBE_C3_wt_wb97_typ1_neg
 Hartree-Fock type      HFTyp           .... RHF
 Total Charge           Charge          ....    0
 Multiplicity           Mult            ....    1
 Number of Electrons    NEL             ....   66
 Basis Dimension        Dim             ....  212
 Nuclear Repulsion      ENuc            ....    447.1740225831 Eh

Convergence Acceleration:
 DIIS                   CNVDIIS         .... on
   Start iteration      DIISMaxIt       ....    12
   Startup error        DIISStart       ....  0.200000
   # of expansion vecs  DIISMaxEq       ....     5
   Bias factor          DIISBfac        ....   1.050
   Max. coefficient     DIISMaxC        ....  10.000
 Trust-Rad. Augm. Hess. CNVTRAH         .... auto
   Auto Start mean grad. ratio tolernc. ....  1.125000
   Auto Start start iteration           ....    20
   Auto Start num. interpolation iter.  ....    10
   Max. Number of Micro iterations      ....    16
   Max. Number of Macro iterations      .... Maxiter - #DIIS iter
   Number of Davidson start vectors     ....     2
   Converg. threshold I  (grad. norm)   ....   1.000e-05
   Converg. threshold II (energy diff.) ....   1.000e-08
   Grad. Scal. Fac. for Micro threshold ....   0.100
   Minimum threshold for Micro iter.    ....   0.010
   NR start threshold (gradient norm)   ....   0.001
   Initial trust radius                 ....   0.400
   Minimum AH scaling param. (alpha)    ....   1.000
   Maximum AH scaling param. (alpha)    .... 1000.000
   Orbital update algorithm             .... Taylor
   White noise on init. David. guess    .... on
   Maximum white noise                  ....   0.010
   Quad. conv. algorithm                .... NR
 SOSCF                  CNVSOSCF        .... on
   Start iteration      SOSCFMaxIt      ....   150
   Startup grad/error   SOSCFStart      ....  0.003300
 Level Shifting         CNVShift        .... on
   Level shift para.    LevelShift      ....    0.2500
   Turn off err/grad.   ShiftErr        ....    0.0010
 Zerner damping         CNVZerner       .... off
 Static damping         CNVDamp         .... on
   Fraction old density DampFac         ....    0.7000
   Max. Damping (<1)    DampMax         ....    0.9800
   Min. Damping (>=0)   DampMin         ....    0.0000
   Turn off err/grad.   DampErr         ....    0.1000
 Fernandez-Rico         CNVRico         .... off

SCF Procedure:
 Maximum # iterations   MaxIter         ....   150
 SCF integral mode      SCFMode         .... Direct
   Integral package                     .... SHARK and LIBINT hybrid scheme
 Reset frequency        DirectResetFreq ....    20
 Integral Threshold     Thresh          ....  2.500e-11 Eh
 Primitive CutOff       TCut            ....  2.500e-12 Eh

Convergence Tolerance:
 Convergence Check Mode ConvCheckMode   .... Total+1el-Energy
 Convergence forced     ConvForced      .... 0
 Energy Change          TolE            ....  1.000e-08 Eh
 1-El. energy change                    ....  1.000e-05 Eh
 Orbital Gradient       TolG            ....  1.000e-05
 Orbital Rotation angle TolX            ....  1.000e-05
 DIIS Error             TolErr          ....  5.000e-07


Diagonalization of the overlap matrix:
Smallest eigenvalue                        ... 1.731e-04
Time for diagonalization                   ...    0.013 sec
Threshold for overlap eigenvalues          ... 1.000e-08
Number of eigenvalues below threshold      ... 0
Time for construction of square roots      ...    0.011 sec
Total time needed                          ...    0.025 sec

Time for model grid setup =    0.076 sec

------------------------------
INITIAL GUESS: MODEL POTENTIAL
------------------------------
Loading Hartree-Fock densities                     ... done
Calculating cut-offs                               ... done
Initializing the effective Hamiltonian             ... done
Setting up the integral package (SHARK)            ... done
Starting the Coulomb interaction                   ... done (   0.0 sec)
Reading the grid                                   ... done
Mapping shells                                     ... done
Starting the XC term evaluation                    ... done (   0.1 sec)
  promolecular density results
     # of electrons  =     65.999185447
     EX              =    -52.745901298
     EC              =     -2.326296932
     EX+EC           =    -55.072198230
Transforming the Hamiltonian                       ... done (   0.0 sec)
Diagonalizing the Hamiltonian                      ... done (   0.0 sec)
Back transforming the eigenvectors                 ... done (   0.0 sec)
Now organizing SCF variables                       ... done
                      ------------------
                      INITIAL GUESS DONE (   0.2 sec)
                      ------------------
-------------------
DFT GRID GENERATION
-------------------

General Integration Accuracy     IntAcc      ... 4.388
Radial Grid Type                 RadialGrid  ... OptM3 with GC (2021)
Angular Grid (max. ang.)         AngularGrid ... 4 (Lebedev-302)
Angular grid pruning method      GridPruning ... 4 (adaptive)
Weight generation scheme         WeightScheme... Becke
Basis function cutoff            BFCut       ... 1.0000e-11
Integration weight cutoff        WCut        ... 1.0000e-14
Angular grids for H and He will be reduced by one unit
Partially contracted basis set               ... off
Rotationally invariant grid construction     ... off

Total number of grid points                  ...    68660
Total number of batches                      ...     1081
Average number of points per batch           ...       63
Average number of grid points per atom       ...     4904
Time for grid setup =    0.396 sec

--------------------
COSX GRID GENERATION
--------------------

GRIDX 1
-------
General Integration Accuracy     IntAcc      ... 3.816
Radial Grid Type                 RadialGrid  ... OptM3 with GC (2021)
Angular Grid (max. ang.)         AngularGrid ... 1 (Lebedev-50)
Angular grid pruning method      GridPruning ... 4 (adaptive)
Weight generation scheme         WeightScheme... Becke
Basis function cutoff            BFCut       ... 1.0000e-11
Integration weight cutoff        WCut        ... 1.0000e-14
Angular grids for H and He will be reduced by one unit
Partially contracted basis set               ... on
Rotationally invariant grid construction     ... off

Total number of grid points                  ...     8516
Total number of batches                      ...      142
Average number of points per batch           ...       59
Average number of grid points per atom       ...      608
UseSFitting                                  ... on

GRIDX 2
-------
General Integration Accuracy     IntAcc      ... 4.020
Radial Grid Type                 RadialGrid  ... OptM3 with GC (2021)
Angular Grid (max. ang.)         AngularGrid ... 2 (Lebedev-110)
Angular grid pruning method      GridPruning ... 4 (adaptive)
Weight generation scheme         WeightScheme... Becke
Basis function cutoff            BFCut       ... 1.0000e-11
Integration weight cutoff        WCut        ... 1.0000e-14
Angular grids for H and He will be reduced by one unit
Partially contracted basis set               ... on
Rotationally invariant grid construction     ... off

Total number of grid points                  ...    20013
Total number of batches                      ...      322
Average number of points per batch           ...       62
Average number of grid points per atom       ...     1430
UseSFitting                                  ... on

GRIDX 3
-------
General Integration Accuracy     IntAcc      ... 4.338
Radial Grid Type                 RadialGrid  ... OptM3 with GC (2021)
Angular Grid (max. ang.)         AngularGrid ... 3 (Lebedev-194)
Angular grid pruning method      GridPruning ... 4 (adaptive)
Weight generation scheme         WeightScheme... Becke
Basis function cutoff            BFCut       ... 1.0000e-11
Integration weight cutoff        WCut        ... 1.0000e-14
Angular grids for H and He will be reduced by one unit
Partially contracted basis set               ... on
Rotationally invariant grid construction     ... off

Total number of grid points                  ...    45529
Total number of batches                      ...      718
Average number of points per batch           ...       63
Average number of grid points per atom       ...     3252
UseSFitting                                  ... on

Time for X-Grid setup             =    0.325 sec

--------------
SCF ITERATIONS
--------------
ITER       Energy         Delta-E        Max-DP      RMS-DP      [F,P]     Damp
               ***  Starting incremental Fock matrix formation  ***
  0   -764.9449911965   0.000000000000 0.17202949  0.00226089  0.1583985 0.7000
  1   -765.0413020230  -0.096310826522 0.10105550  0.00152414  0.0808808 0.7000
                               ***Turning on DIIS***
  2   -765.0848640106  -0.043561987632 0.13174385  0.00284224  0.0402495 0.0000
  3   -765.1623478313  -0.077483820691 0.09225089  0.00105445  0.0379650 0.0000
  4   -765.1734830435  -0.011135212183 0.01423989  0.00031889  0.0115069 0.0000
  5   -765.1740971610  -0.000614117464 0.00503759  0.00015910  0.0052181 0.0000
                      *** Initiating the SOSCF procedure ***
                           *** Shutting down DIIS ***
                      *** Re-Reading the Fockian *** 
                      *** Removing any level shift *** 
ITER      Energy       Delta-E        Grad      Rot      Max-DP    RMS-DP
  6   -765.17423622  -0.0001390627  0.000468  0.000468  0.001937  0.000086
               *** Restarting incremental Fock matrix formation ***
  7   -765.17421908   0.0000171485  0.000120  0.000128  0.001388  0.000038
  8   -765.17421963  -0.0000005556  0.000126  0.000089  0.000345  0.000011
  9   -765.17422009  -0.0000004553  0.000015  0.000024  0.000123  0.000004
 10   -765.17422010  -0.0000000185  0.000013  0.000012  0.000040  0.000001
                  ***Gradient check signals convergence***
              ***Rediagonalizing the Fockian in SOSCF/NRSCF***

               *****************************************************
               *                     SUCCESS                       *
               *           SCF CONVERGED AFTER  11 CYCLES          *
               *****************************************************


----------------
TOTAL SCF ENERGY
----------------

Total Energy       :         -765.17422011 Eh          -20821.44907 eV

Components:
Nuclear Repulsion  :          447.17402258 Eh           12168.22378 eV
Electronic Energy  :        -1212.34824270 Eh          -32989.67285 eV
One Electron Energy:        -1940.11653823 Eh          -52793.25496 eV
Two Electron Energy:          727.76829554 Eh           19803.58212 eV
Max COSX asymmetry :            0.00001184 Eh               0.00032 eV

Virial components:
Potential Energy   :        -1526.19045687 Eh          -41529.75366 eV
Kinetic Energy     :          761.01623676 Eh           20708.30459 eV
Virial Ratio       :            2.00546372


DFT components:
N(Alpha)           :       33.000082101663 electrons
N(Beta)            :       33.000082101663 electrons
N(Total)           :       66.000164203325 electrons
E(X)               :      -53.122721424400 Eh       
E(C)               :       -2.331503075250 Eh       
E(XC)              :      -55.454224499649 Eh       
DFET-embed. en.    :        0.000000000000 Eh       

---------------
SCF CONVERGENCE
---------------

  Last Energy change         ...   -8.1232e-09  Tolerance :   1.0000e-08
  Last MAX-Density change    ...    2.8751e-05  Tolerance :   1.0000e-07
  Last RMS-Density change    ...    5.1255e-07  Tolerance :   5.0000e-09
  Last Orbital Gradient      ...    2.3972e-06  Tolerance :   1.0000e-05
  Last Orbital Rotation      ...    3.0762e-06  Tolerance :   1.0000e-05

             **** THE GBW FILE WAS UPDATED (14Feb_SVPD_LC_PBE_C3_wt_wb97_typ1_neg.gbw) ****
             **** DENSITY 14Feb_SVPD_LC_PBE_C3_wt_wb97_typ1_neg.scfp WAS UPDATED ****
             **** ENERGY FILE WAS UPDATED (14Feb_SVPD_LC_PBE_C3_wt_wb97_typ1_neg.en.tmp) ****
             **** THE GBW FILE WAS UPDATED (14Feb_SVPD_LC_PBE_C3_wt_wb97_typ1_neg.gbw) ****
             **** DENSITY 14Feb_SVPD_LC_PBE_C3_wt_wb97_typ1_neg.scfp WAS UPDATED ****
----------------
ORBITAL ENERGIES
----------------

  NO   OCC          E(Eh)            E(eV) 
   0   2.0000     -88.577894     -2410.3270 
   1   2.0000     -24.638066      -670.4359 
   2   2.0000     -19.004744      -517.1454 
   3   2.0000     -18.997036      -516.9356 
   4   2.0000     -10.199342      -277.5382 
   5   2.0000     -10.164077      -276.5786 
   6   2.0000     -10.122506      -275.4474 
   7   2.0000      -8.200223      -223.1394 
   8   2.0000      -6.227528      -169.4597 
   9   2.0000      -6.219935      -169.2530 
  10   2.0000      -6.218689      -169.2191 
  11   2.0000      -1.550995       -42.2047 
  12   2.0000      -1.274609       -34.6839 
  13   2.0000      -1.160332       -31.5742 
  14   2.0000      -1.015026       -27.6203 
  15   2.0000      -0.925410       -25.1817 
  16   2.0000      -0.878186       -23.8966 
  17   2.0000      -0.802499       -21.8371 
  18   2.0000      -0.758998       -20.6534 
  19   2.0000      -0.752159       -20.4673 
  20   2.0000      -0.699383       -19.0312 
  21   2.0000      -0.643302       -17.5051 
  22   2.0000      -0.637332       -17.3427 
  23   2.0000      -0.605738       -16.4830 
  24   2.0000      -0.584334       -15.9005 
  25   2.0000      -0.575304       -15.6548 
  26   2.0000      -0.530526       -14.4363 
  27   2.0000      -0.519581       -14.1385 
  28   2.0000      -0.512552       -13.9472 
  29   2.0000      -0.492503       -13.4017 
  30   2.0000      -0.466165       -12.6850 
  31   2.0000      -0.451344       -12.2817 
  32   2.0000      -0.436438       -11.8761 
  33   0.0000       0.060625         1.6497 
  34   0.0000       0.085772         2.3340 
  35   0.0000       0.092931         2.5288 
  36   0.0000       0.093726         2.5504 
  37   0.0000       0.117866         3.2073 
  38   0.0000       0.122328         3.3287 
  39   0.0000       0.134898         3.6708 
  40   0.0000       0.142452         3.8763 
  41   0.0000       0.159858         4.3500 
  42   0.0000       0.166736         4.5371 
  43   0.0000       0.171402         4.6641 
  44   0.0000       0.180201         4.9035 
  45   0.0000       0.192991         5.2515 
  46   0.0000       0.201568         5.4849 
  47   0.0000       0.205678         5.5968 
  48   0.0000       0.208089         5.6624 
  49   0.0000       0.222583         6.0568 
  50   0.0000       0.229929         6.2567 
  51   0.0000       0.235137         6.3984 
  52   0.0000       0.235891         6.4189 
  53   0.0000       0.255899         6.9634 
  54   0.0000       0.263021         7.1572 
  55   0.0000       0.267480         7.2785 
  56   0.0000       0.276640         7.5278 
  57   0.0000       0.292689         7.9645 
  58   0.0000       0.301348         8.2001 
  59   0.0000       0.311437         8.4746 
  60   0.0000       0.314625         8.5614 
  61   0.0000       0.323242         8.7959 
  62   0.0000       0.328016         8.9258 
  63   0.0000       0.341821         9.3014 
  64   0.0000       0.345728         9.4077 
  65   0.0000       0.353366         9.6156 
  66   0.0000       0.374493        10.1905 
  67   0.0000       0.379009        10.3134 
  68   0.0000       0.386024        10.5042 
  69   0.0000       0.396564        10.7911 
  70   0.0000       0.406585        11.0637 
  71   0.0000       0.416705        11.3391 
  72   0.0000       0.423159        11.5147 
  73   0.0000       0.430267        11.7082 
  74   0.0000       0.434848        11.8328 
  75   0.0000       0.440056        11.9745 
  76   0.0000       0.448898        12.2151 
  77   0.0000       0.456976        12.4350 
  78   0.0000       0.460541        12.5320 
  79   0.0000       0.480550        13.0764 
  80   0.0000       0.486289        13.2326 
  81   0.0000       0.496909        13.5216 
  82   0.0000       0.500766        13.6265 
  83   0.0000       0.508059        13.8250 
  84   0.0000       0.523922        14.2566 
  85   0.0000       0.529576        14.4105 
  86   0.0000       0.539937        14.6924 
  87   0.0000       0.542016        14.7490 
  88   0.0000       0.546093        14.8599 
  89   0.0000       0.563474        15.3329 
  90   0.0000       0.572200        15.5703 
  91   0.0000       0.578183        15.7331 
  92   0.0000       0.583150        15.8683 
  93   0.0000       0.584639        15.9088 
  94   0.0000       0.596643        16.2355 
  95   0.0000       0.602893        16.4056 
  96   0.0000       0.614023        16.7084 
  97   0.0000       0.623164        16.9572 
  98   0.0000       0.626634        17.0516 
  99   0.0000       0.633852        17.2480 
 100   0.0000       0.655837        17.8462 
 101   0.0000       0.659005        17.9324 
 102   0.0000       0.665836        18.1183 
 103   0.0000       0.686638        18.6844 
 104   0.0000       0.693795        18.8791 
 105   0.0000       0.709418        19.3042 
 106   0.0000       0.730254        19.8712 
 107   0.0000       0.734669        19.9914 
 108   0.0000       0.752119        20.4662 
 109   0.0000       0.792139        21.5552 
 110   0.0000       0.797972        21.7139 
 111   0.0000       0.807826        21.9821 
 112   0.0000       0.819791        22.3077 
 113   0.0000       0.831136        22.6164 
 114   0.0000       0.847919        23.0731 
 115   0.0000       0.860086        23.4041 
 116   0.0000       0.885107        24.0850 
 117   0.0000       0.905125        24.6297 
 118   0.0000       0.920192        25.0397 
 119   0.0000       0.944923        25.7127 
 120   0.0000       0.974021        26.5045 
 121   0.0000       1.006435        27.3865 
 122   0.0000       1.041044        28.3283 
 123   0.0000       1.048877        28.5414 
 124   0.0000       1.060733        28.8640 
 125   0.0000       1.071827        29.1659 
 126   0.0000       1.081774        29.4366 
 127   0.0000       1.110130        30.2082 
 128   0.0000       1.110498        30.2182 
 129   0.0000       1.119591        30.4656 
 130   0.0000       1.134550        30.8727 
 131   0.0000       1.147197        31.2168 
 132   0.0000       1.152327        31.3564 
 133   0.0000       1.170652        31.8551 
 134   0.0000       1.182342        32.1732 
 135   0.0000       1.197775        32.5931 
 136   0.0000       1.210805        32.9477 
 137   0.0000       1.234757        33.5994 
 138   0.0000       1.269512        34.5452 
 139   0.0000       1.285116        34.9698 
 140   0.0000       1.303602        35.4728 
 141   0.0000       1.350411        36.7466 
 142   0.0000       1.367323        37.2068 
 143   0.0000       1.385174        37.6925 
 144   0.0000       1.416284        38.5390 
 145   0.0000       1.451003        39.4838 
 146   0.0000       1.470407        40.0118 
 147   0.0000       1.495002        40.6811 
 148   0.0000       1.516446        41.2646 
 149   0.0000       1.572195        42.7816 
 150   0.0000       1.643386        44.7188 
 151   0.0000       1.682490        45.7829 
 152   0.0000       1.697520        46.1919 
 153   0.0000       1.717288        46.7298 
 154   0.0000       1.722401        46.8689 
 155   0.0000       1.739226        47.3267 
 156   0.0000       1.765965        48.0543 
 157   0.0000       1.801599        49.0240 
 158   0.0000       1.822454        49.5915 
 159   0.0000       1.856821        50.5267 
 160   0.0000       1.862586        50.6835 
 161   0.0000       1.891481        51.4698 
 162   0.0000       1.897088        51.6224 
 163   0.0000       1.914037        52.0836 
 164   0.0000       1.933157        52.6039 
 165   0.0000       1.997543        54.3559 
 166   0.0000       2.013263        54.7837 
 167   0.0000       2.033030        55.3215 
 168   0.0000       2.058811        56.0231 
 169   0.0000       2.077395        56.5288 
 170   0.0000       2.094355        56.9903 
 171   0.0000       2.137336        58.1599 
 172   0.0000       2.158291        58.7301 
 173   0.0000       2.174243        59.1641 
 174   0.0000       2.186687        59.5028 
 175   0.0000       2.241413        60.9919 
 176   0.0000       2.255957        61.3877 
 177   0.0000       2.311149        62.8896 
 178   0.0000       2.352160        64.0055 
 179   0.0000       2.409347        65.5617 
 180   0.0000       2.426890        66.0390 
 181   0.0000       2.449605        66.6571 
 182   0.0000       2.550664        69.4071 
 183   0.0000       2.592288        70.5398 
 184   0.0000       2.627712        71.5037 
 185   0.0000       2.696740        73.3820 
 186   0.0000       2.703509        73.5662 
 187   0.0000       2.782462        75.7146 
 188   0.0000       2.824053        76.8464 
 189   0.0000       2.851552        77.5947 
 190   0.0000       2.979452        81.0750 
 191   0.0000       2.995295        81.5061 
 192   0.0000       3.003593        81.7319 
 193   0.0000       3.009737        81.8991 
 194   0.0000       3.053511        83.0903 
 195   0.0000       3.060386        83.2773 
 196   0.0000       3.073404        83.6316 
 197   0.0000       3.097272        84.2811 
 198   0.0000       3.145813        85.6019 
 199   0.0000       3.174950        86.3948 
 200   0.0000       3.198188        87.0271 
 201   0.0000       3.215710        87.5039 
 202   0.0000       3.274149        89.0941 
 203   0.0000       3.312098        90.1268 
 204   0.0000       3.354712        91.2863 
 205   0.0000       3.385097        92.1132 
 206   0.0000       3.418796        93.0302 
 207   0.0000       3.436799        93.5201 
 208   0.0000       3.440133        93.6108 
 209   0.0000       3.470570        94.4390 
 210   0.0000       3.667481        99.7972 
 211   0.0000       3.891822       105.9018 

                    ********************************
                    * MULLIKEN POPULATION ANALYSIS *
                    ********************************

-----------------------
MULLIKEN ATOMIC CHARGES
-----------------------
   0 C :   -0.372359
   1 C :   -0.230392
   2 H :    0.133511
   3 H :    0.151929
   4 S :    1.381464
   5 O :   -0.670864
   6 O :   -0.633080
   7 C :    0.574646
   8 H :   -0.000086
   9 H :    0.030086
  10 F :   -0.356844
  11 H :   -0.072757
  12 H :    0.020354
  13 H :    0.044392
Sum of atomic charges:   -0.0000000

--------------------------------
MULLIKEN REDUCED ORBITAL CHARGES
--------------------------------
  0 C s       :     2.859975  s :     2.859975
      pz      :     0.931905  p :     3.010131
      px      :     1.006486
      py      :     1.071740
      dz2     :     0.006164  d :     0.502254
      dxz     :     0.139899
      dyz     :     0.060930
      dx2y2   :     0.203114
      dxy     :     0.092147
  1 C s       :     2.927267  s :     2.927267
      pz      :     0.899071  p :     3.073690
      px      :     1.086110
      py      :     1.088509
      dz2     :     0.120196  d :     0.229434
      dxz     :    -0.004937
      dyz     :     0.012305
      dx2y2   :     0.009612
      dxy     :     0.092257
  2 H s       :     0.808121  s :     0.808121
      pz      :     0.002384  p :     0.058368
      px      :     0.018836
      py      :     0.037149
  3 H s       :     0.814573  s :     0.814573
      pz      :    -0.005666  p :     0.033498
      px      :     0.031740
      py      :     0.007424
  4 S s       :     5.022906  s :     5.022906
      pz      :     3.082275  p :     8.770531
      px      :     2.920781
      py      :     2.767475
      dz2     :     0.171309  d :     0.825099
      dxz     :     0.158083
      dyz     :     0.095955
      dx2y2   :     0.208913
      dxy     :     0.190839
  5 O s       :     3.934514  s :     3.934514
      pz      :     1.761784  p :     4.721746
      px      :     1.520715
      py      :     1.439246
      dz2     :     0.001923  d :     0.014605
      dxz     :    -0.001913
      dyz     :     0.006849
      dx2y2   :     0.005443
      dxy     :     0.002303
  6 O s       :     3.917714  s :     3.917714
      pz      :     1.659812  p :     4.694921
      px      :     1.388777
      py      :     1.646332
      dz2     :     0.005079  d :     0.020445
      dxz     :     0.000994
      dyz     :     0.004248
      dx2y2   :     0.004827
      dxy     :     0.005297
  7 C s       :     2.458863  s :     2.458863
      pz      :     0.981292  p :     2.871415
      px      :     0.923389
      py      :     0.966734
      dz2     :    -0.005287  d :     0.095075
      dxz     :     0.040762
      dyz     :     0.000529
      dx2y2   :     0.044350
      dxy     :     0.014721
  8 H s       :     0.994775  s :     0.994775
      pz      :     0.032785  p :     0.005311
      px      :    -0.007355
      py      :    -0.020119
  9 H s       :     0.946050  s :     0.946050
      pz      :    -0.009885  p :     0.023864
      px      :    -0.015433
      py      :     0.049182
 10 F s       :     3.947874  s :     3.947874
      pz      :     1.921909  p :     5.397771
      px      :     1.895004
      py      :     1.580858
      dz2     :     0.002185  d :     0.011200
      dxz     :     0.001239
      dyz     :     0.004620
      dx2y2   :     0.003402
      dxy     :    -0.000245
 11 H s       :     0.967098  s :     0.967098
      pz      :     0.095641  p :     0.105659
      px      :     0.025438
      py      :    -0.015420
 12 H s       :     0.970049  s :     0.970049
      pz      :     0.011009  p :     0.009597
      px      :    -0.001792
      py      :     0.000381
 13 H s       :     0.933429  s :     0.933429
      pz      :    -0.018462  p :     0.022178
      px      :     0.008250
      py      :     0.032391


                     *******************************
                     * LOEWDIN POPULATION ANALYSIS *
                     *******************************

----------------------
LOEWDIN ATOMIC CHARGES
----------------------
   0 C :   -0.102497
   1 C :   -0.075716
   2 H :    0.051532
   3 H :    0.043559
   4 S :    1.107242
   5 O :   -0.476528
   6 O :   -0.470461
   7 C :    0.106029
   8 H :    0.042293
   9 H :    0.034915
  10 F :   -0.236027
  11 H :   -0.029789
  12 H :   -0.001121
  13 H :    0.006569

-------------------------------
LOEWDIN REDUCED ORBITAL CHARGES
-------------------------------
  0 C s       :     2.673886  s :     2.673886
      pz      :     0.910198  p :     2.751932
      px      :     0.907783
      py      :     0.933951
      dz2     :     0.121347  d :     0.676679
      dxz     :     0.169199
      dyz     :     0.065908
      dx2y2   :     0.179317
      dxy     :     0.140907
  1 C s       :     2.709327  s :     2.709327
      pz      :     0.833519  p :     2.756798
      px      :     0.944381
      py      :     0.978898
      dz2     :     0.197480  d :     0.609590
      dxz     :     0.130725
      dyz     :     0.088421
      dx2y2   :     0.068302
      dxy     :     0.124662
  2 H s       :     0.695999  s :     0.695999
      pz      :     0.062611  p :     0.252469
      px      :     0.069492
      py      :     0.120366
  3 H s       :     0.704360  s :     0.704360
      pz      :     0.060780  p :     0.252080
      px      :     0.098663
      py      :     0.092637
  4 S s       :     4.666792  s :     4.666792
      pz      :     2.835206  p :     8.391456
      px      :     2.823009
      py      :     2.733241
      dz2     :     0.382558  d :     1.834510
      dxz     :     0.344470
      dyz     :     0.264101
      dx2y2   :     0.406861
      dxy     :     0.436519
  5 O s       :     3.565728  s :     3.565728
      pz      :     1.652612  p :     4.676741
      px      :     1.552829
      py      :     1.471299
      dz2     :     0.033752  d :     0.234060
      dxz     :     0.044545
      dyz     :     0.028994
      dx2y2   :     0.062017
      dxy     :     0.064752
  6 O s       :     3.555843  s :     3.555843
      pz      :     1.613246  p :     4.675581
      px      :     1.488266
      py      :     1.574069
      dz2     :     0.049111  d :     0.239037
      dxz     :     0.059699
      dyz     :     0.022834
      dx2y2   :     0.052095
      dxy     :     0.055298
  7 C s       :     2.686646  s :     2.686646
      pz      :     0.956151  p :     2.802885
      px      :     0.912469
      py      :     0.934264
      dz2     :     0.060322  d :     0.404440
      dxz     :     0.111868
      dyz     :     0.040890
      dx2y2   :     0.108590
      dxy     :     0.082771
  8 H s       :     0.712950  s :     0.712950
      pz      :     0.109817  p :     0.244757
      px      :     0.069662
      py      :     0.065277
  9 H s       :     0.714427  s :     0.714427
      pz      :     0.074110  p :     0.250658
      px      :     0.064894
      py      :     0.111653
 10 F s       :     3.681469  s :     3.681469
      pz      :     1.831657  p :     5.316902
      px      :     1.827730
      py      :     1.657516
      dz2     :     0.034847  d :     0.237656
      dxz     :     0.015865
      dyz     :     0.056812
      dx2y2   :     0.059812
      dxy     :     0.070320
 11 H s       :     0.707935  s :     0.707935
      pz      :     0.161406  p :     0.321855
      px      :     0.085699
      py      :     0.074750
 12 H s       :     0.732671  s :     0.732671
      pz      :     0.098320  p :     0.268450
      px      :     0.090008
      py      :     0.080122
 13 H s       :     0.727696  s :     0.727696
      pz      :     0.075096  p :     0.265735
      px      :     0.073020
      py      :     0.117620


                      *****************************
                      * MAYER POPULATION ANALYSIS *
                      *****************************

  NA   - Mulliken gross atomic population
  ZA   - Total nuclear charge
  QA   - Mulliken gross atomic charge
  VA   - Mayer's total valence
  BVA  - Mayer's bonded valence
  FA   - Mayer's free valence

  ATOM       NA         ZA         QA         VA         BVA        FA
  0 C      6.3724     6.0000    -0.3724     5.1065     5.1065    -0.0000
  1 C      6.2304     6.0000    -0.2304     4.3496     4.3496    -0.0000
  2 H      0.8665     1.0000     0.1335     1.1361     1.1361     0.0000
  3 H      0.8481     1.0000     0.1519     1.0696     1.0696    -0.0000
  4 S     14.6185    16.0000     1.3815     4.8768     4.8768    -0.0000
  5 O      8.6709     8.0000    -0.6709     1.6323     1.6323     0.0000
  6 O      8.6331     8.0000    -0.6331     1.6696     1.6696     0.0000
  7 C      5.4254     6.0000     0.5746     3.8437     3.8437    -0.0000
  8 H      1.0001     1.0000    -0.0001     1.0682     1.0682    -0.0000
  9 H      0.9699     1.0000     0.0301     1.0976     1.0976     0.0000
 10 F      9.3568     9.0000    -0.3568     0.7879     0.7879    -0.0000
 11 H      1.0728     1.0000    -0.0728     1.2699     1.2699    -0.0000
 12 H      0.9796     1.0000     0.0204     0.9932     0.9932     0.0000
 13 H      0.9556     1.0000     0.0444     1.0217     1.0217    -0.0000

  Mayer bond orders larger than 0.100000
B(  0-C ,  1-C ) :   1.2292 B(  0-C ,  2-H ) :   0.1154 B(  0-C ,  3-H ) :   0.1104 
B(  0-C ,  7-C ) :   1.2860 B(  0-C ,  8-H ) :   0.9236 B(  0-C ,  9-H ) :   0.9411 
B(  0-C , 11-H ) :   0.1896 B(  0-C , 12-H ) :   0.1545 B(  0-C , 13-H ) :   0.1798 
B(  1-C ,  2-H ) :   0.9447 B(  1-C ,  3-H ) :   0.9063 B(  1-C ,  4-S ) :   1.0089 
B(  1-C ,  8-H ) :   0.1070 B(  1-C ,  9-H ) :   0.1074 B(  4-S ,  5-O ) :   1.5058 
B(  4-S ,  6-O ) :   1.5969 B(  4-S , 10-F ) :   0.7038 B(  7-C , 11-H ) :   0.8589 
B(  7-C , 12-H ) :   0.8160 B(  7-C , 13-H ) :   0.7861 B( 11-H , 13-H ) :   0.1140 


-------
TIMINGS
-------

Total SCF time: 0 days 0 hours 0 min 14 sec 

Total time                  ....      14.064 sec
Sum of individual times     ....      13.859 sec  ( 98.5%)

Fock matrix formation       ....      12.793 sec  ( 91.0%)
  Split-RI-J                ....       0.726 sec  (  5.7% of F)
  Chain of spheres X        ....       9.892 sec  ( 77.3% of F)
  XC integration            ....       2.131 sec  ( 16.7% of F)
    Basis function eval.    ....       0.641 sec  ( 30.1% of XC)
    Density eval.           ....       0.504 sec  ( 23.6% of XC)
    XC-Functional eval.     ....       0.154 sec  (  7.2% of XC)
    XC-Potential eval.      ....       0.646 sec  ( 30.3% of XC)
Diagonalization             ....       0.075 sec  (  0.5%)
Density matrix formation    ....       0.005 sec  (  0.0%)
Population analysis         ....       0.009 sec  (  0.1%)
Initial guess               ....       0.098 sec  (  0.7%)
Orbital Transformation      ....       0.000 sec  (  0.0%)
Orbital Orthonormalization  ....       0.000 sec  (  0.0%)
DIIS solution               ....       0.046 sec  (  0.3%)
SOSCF solution              ....       0.037 sec  (  0.3%)
Grid generation             ....       0.797 sec  (  5.7%)

Maximum memory used throughout the entire SCF-calculation: 26.6 MB

-------------------------   --------------------
FINAL SINGLE POINT ENERGY      -765.174220112699
-------------------------   --------------------


                            ***************************************
                            *     ORCA property calculations      *
                            ***************************************

                                    ---------------------
                                    Active property flags
                                    ---------------------
   (+) Dipole Moment


------------------------------------------------------------------------------
                       ORCA ELECTRIC PROPERTIES CALCULATION
------------------------------------------------------------------------------

Dipole Moment Calculation                       ... on
Quadrupole Moment Calculation                   ... off
Polarizability Calculation                      ... off
GBWName                                         ... 14Feb_SVPD_LC_PBE_C3_wt_wb97_typ1_neg.gbw
Electron density file                           ... 14Feb_SVPD_LC_PBE_C3_wt_wb97_typ1_neg.scfp
The origin for moment calculation is the CENTER OF MASS  = ( 8.697045, -13.098414 -8.861037)

-------------
DIPOLE MOMENT
-------------
                                X             Y             Z
Electronic contribution:     -3.02306      -2.63479     -12.04159
Nuclear contribution   :      2.96568       1.49902      13.60585
                        -----------------------------------------
Total Dipole Moment    :     -0.05739      -1.13577       1.56426
                        -----------------------------------------
Magnitude (a.u.)       :      1.93395
Magnitude (Debye)      :      4.91571



--------------------
Rotational spectrum 
--------------------
 
Rotational constants in cm-1:     0.127173     0.053596     0.051689 
Rotational constants in MHz :  3812.547794  1606.772866  1549.597841 

 Dipole components along the rotational axes: 
x,y,z [a.u.] :     1.366707    -1.252744    -0.550376 
x,y,z [Debye]:     3.473893    -3.184223    -1.398944 

 

Timings for individual modules:

Sum of individual times         ...       14.689 sec (=   0.245 min)
GTO integral calculation        ...        0.402 sec (=   0.007 min)   2.7 %
SCF iterations                  ...       14.287 sec (=   0.238 min)  97.3 %
                             ****ORCA TERMINATED NORMALLY****
TOTAL RUN TIME: 0 days 0 hours 0 minutes 15 seconds 37 msec
