
                                        *****************
                                        * O   R   C   A *
                                        *****************

                                            #,                                       
                                            ###                                      
                                            ####                                     
                                            #####                                    
                                            ######                                   
                                           ########,                                 
                                     ,,################,,,,,                         
                               ,,#################################,,                 
                          ,,##########################################,,             
                       ,#########################################, ''#####,          
                    ,#############################################,,   '####,        
                  ,##################################################,,,,####,       
                ,###########''''           ''''###############################       
              ,#####''   ,,,,##########,,,,          '''####'''          '####       
            ,##' ,,,,###########################,,,                        '##       
           ' ,,###''''                  '''############,,,                           
         ,,##''                                '''############,,,,        ,,,,,,###''
      ,#''                                            '''#######################'''  
     '                                                          ''''####''''         
             ,#######,   #######,   ,#######,      ##                                
            ,#'     '#,  ##    ##  ,#'     '#,    #''#        ######   ,####,        
            ##       ##  ##   ,#'  ##            #'  '#       #        #'  '#        
            ##       ##  #######   ##           ,######,      #####,   #    #        
            '#,     ,#'  ##    ##  '#,     ,#' ,#      #,         ##   #,  ,#        
             '#######'   ##     ##  '#######'  #'      '#     #####' # '####'        



                  #######################################################
                  #                        -***-                        #
                  #          Department of theory and spectroscopy      #
                  #    Directorship and core code : Frank Neese         #
                  #        Max Planck Institute fuer Kohlenforschung    #
                  #                Kaiser Wilhelm Platz 1               #
                  #                 D-45470 Muelheim/Ruhr               #
                  #                      Germany                        #
                  #                                                     #
                  #                  All rights reserved                #
                  #                        -***-                        #
                  #######################################################


                         Program Version 5.0.0 -  RELEASE  -
                                (SVN: $Rev: 19529$)
                ($Date: 2021-06-28 11:36:33 +0200 (Mo, 28 Jun 2021) $)


 With contributions from (in alphabetic order):
   Daniel Aravena         : Magnetic Suceptibility
   Michael Atanasov       : Ab Initio Ligand Field Theory (pilot matlab implementation)
   Alexander A. Auer      : GIAO ZORA, VPT2 properties, NMR spectrum
   Ute Becker             : Parallelization
   Giovanni Bistoni       : ED, misc. LED, open-shell LED, HFLD
   Martin Brehm           : Molecular dynamics
   Dmytro Bykov           : SCF Hessian
   Vijay G. Chilkuri      : MRCI spin determinant printing, contributions to CSF-ICE
   Dipayan Datta          : RHF DLPNO-CCSD density
   Achintya Kumar Dutta   : EOM-CC, STEOM-CC
   Dmitry Ganyushin       : Spin-Orbit,Spin-Spin,Magnetic field MRCI
   Miquel Garcia          : C-PCM Hessian, Gaussian charge scheme
   Yang Guo               : DLPNO-NEVPT2, F12-NEVPT2, CIM, IAO-localization
   Andreas Hansen         : Spin unrestricted coupled pair/coupled cluster methods
   Benjamin Helmich-Paris : MC-RPA, TRAH-SCF, COSX integrals
   Lee Huntington         : MR-EOM, pCC
   Robert Izsak           : Overlap fitted RIJCOSX, COSX-SCS-MP3, EOM
   Marcus Kettner         : VPT2
   Christian Kollmar      : KDIIS, OOCD, Brueckner-CCSD(T), CCSD density, CASPT2, CASPT2-K
   Simone Kossmann        : Meta GGA functionals, TD-DFT gradient, OOMP2, MP2 Hessian
   Martin Krupicka        : Initial AUTO-CI
   Lucas Lang             : DCDCAS
   Marvin Lechner         : AUTO-CI (C++ implementation), FIC-MRCC
   Dagmar Lenk            : GEPOL surface, SMD
   Dimitrios Liakos       : Extrapolation schemes; Compound Job, initial MDCI parallelization
   Dimitrios Manganas     : Further ROCIS development; embedding schemes
   Dimitrios Pantazis     : SARC Basis sets
   Anastasios Papadopoulos: AUTO-CI, single reference methods and gradients
   Taras Petrenko         : DFT Hessian,TD-DFT gradient, ASA, ECA, R-Raman, ABS, FL, XAS/XES, NRVS
   Peter Pinski           : DLPNO-MP2, DLPNO-MP2 Gradient
   Christoph Reimann      : Effective Core Potentials
   Marius Retegan         : Local ZFS, SOC
   Christoph Riplinger    : Optimizer, TS searches, QM/MM, DLPNO-CCSD(T), (RO)-DLPNO pert. Triples
   Tobias Risthaus        : Range-separated hybrids, TD-DFT gradient, RPA, STAB
   Michael Roemelt        : Original ROCIS implementation
   Masaaki Saitow         : Open-shell DLPNO-CCSD energy and density
   Barbara Sandhoefer     : DKH picture change effects
   Avijit Sen             : IP-ROCIS
   Kantharuban Sivalingam : CASSCF convergence, NEVPT2, FIC-MRCI
   Bernardo de Souza      : ESD, SOC TD-DFT
   Georgi Stoychev        : AutoAux, RI-MP2 NMR
   Willem Van den Heuvel  : Paramagnetic NMR
   Boris Wezisla          : Elementary symmetry handling
   Frank Wennmohs         : Technical directorship


 We gratefully acknowledge several colleagues who have allowed us to
 interface, adapt or use parts of their codes:
   Stefan Grimme, W. Hujo, H. Kruse, P. Pracht,  : VdW corrections, initial TS optimization,
                  C. Bannwarth, S. Ehlert          DFT functionals, gCP, sTDA/sTD-DF
   Ed Valeev, F. Pavosevic, A. Kumar             : LibInt (2-el integral package), F12 methods
   Garnet Chan, S. Sharma, J. Yang, R. Olivares  : DMRG
   Ulf Ekstrom                                   : XCFun DFT Library
   Mihaly Kallay                                 : mrcc  (arbitrary order and MRCC methods)
   Jiri Pittner, Ondrej Demel                    : Mk-CCSD
   Frank Weinhold                                : gennbo (NPA and NBO analysis)
   Christopher J. Cramer and Donald G. Truhlar   : smd solvation model
   Lars Goerigk                                  : TD-DFT with DH, B97 family of functionals
   V. Asgeirsson, H. Jonsson                     : NEB implementation
   FAccTs GmbH                                   : IRC, NEB, NEB-TS, DLPNO-Multilevel, CI-OPT
                                                   MM, QMMM, 2- and 3-layer-ONIOM, Crystal-QMMM,
                                                   LR-CPCM, SF, NACMEs, symmetry and pop. for TD-DFT,
                                                   nearIR, NL-DFT gradient (VV10), updates on ESD,
                                                   ML-optimized integration grids
   S Lehtola, MJT Oliveira, MAL Marques          : LibXC Library
   Liviu Ungur et al                             : ANISO software


 Your calculation uses the libint2 library for the computation of 2-el integrals
 For citations please refer to: http://libint.valeyev.net

 Your ORCA version has been built with support for libXC version: 5.1.0
 For citations please refer to: https://tddft.org/programs/libxc/

 This ORCA versions uses:
   CBLAS   interface :  Fast vector & matrix operations
   LAPACKE interface :  Fast linear algebra routines
   SCALAPACK package :  Parallel linear algebra routines
   Shared memory     :  Shared parallel matrices
   BLAS/LAPACK       :  OpenBLAS 0.3.15  USE64BITINT DYNAMIC_ARCH NO_AFFINITY Haswell SINGLE_THREADED
        Core in use  :  Haswell
   Copyright (c) 2011-2014, The OpenBLAS Project


XCFun DFT library Copyright 2009-2010 Ulf Ekstrom and contributors.
See http://admol.org/xcfun for more information.
This is free software; see the source code for copying conditions.
There is ABSOLUTELY NO WARRANTY; not even for MERCHANTABILITY or FITNESS FOR A PARTICULAR PURPOSE.
For details see the documentation.
Scientific users of this library should cite U. Ekstrom, L. Visscher, R. Bast, A. J. Thorvaldsen and K. Ruud;
J.Chem.Theor.Comp. 2010, DOI: 10.1021/ct100117s
XCFun Version 0.99 

================================================================================

----- Orbital basis set information -----
Your calculation utilizes the basis: def2-SVPD
   F. Weigend and R. Ahlrichs, Phys. Chem. Chem. Phys. 7, 3297 (2005).
   D. Rappoport and F. Furche, J. Chem. Phys. 133 134105 (2010).

----- AuxJ basis set information -----
Your calculation utilizes the auxiliary basis: def2/J
   F. Weigend, Phys. Chem. Chem. Phys. 8, 1057 (2006).

================================================================================
                                        WARNINGS
                       Please study these warnings very carefully!
================================================================================


INFO   : the flag for use of the SHARK integral package has been found!

================================================================================
                                       INPUT FILE
================================================================================
NAME = 14Feb_SVPD_CAMB3LYP_C1_wt_wb97_typ1_neg.com
|  1> !CAM-B3LYP RIJCOSX def2-SVPD def2/J TightSCF 
|  2> *xyz 0 1
|  3> C         -0.01741        0.08059       -2.77841
|  4> C         -0.90349       -0.87394       -1.98739
|  5> H         -0.50255       -1.89210       -2.08120
|  6> H         -1.91704       -0.89543       -2.40628
|  7> C         -0.96015       -0.52236       -0.48987
|  8> H         -1.69039       -1.20813       -0.02168
|  9> H         -1.41449        0.48633       -0.40668
| 10> F          0.26170       -0.58031        0.13861
| 11> H         -0.01329       -0.20776       -3.80881
| 12> H          0.98025        0.04284       -2.39348
| 13> H         -0.39697        1.07694       -2.68836
| 14> *
| 15> 
| 16> %MaxCore 64000
| 17> 
| 18> %pal nprocs 4
| 19> end  
| 20> 
| 21> %scf
| 22>   MaxIter 150
| 23> end
| 24> 
| 25> 
| 26>                          ****END OF INPUT****
================================================================================

                       ****************************
                       * Single Point Calculation *
                       ****************************

---------------------------------
CARTESIAN COORDINATES (ANGSTROEM)
---------------------------------
  C     -0.017410    0.080590   -2.778410
  C     -0.903490   -0.873940   -1.987390
  H     -0.502550   -1.892100   -2.081200
  H     -1.917040   -0.895430   -2.406280
  C     -0.960150   -0.522360   -0.489870
  H     -1.690390   -1.208130   -0.021680
  H     -1.414490    0.486330   -0.406680
  F      0.261700   -0.580310    0.138610
  H     -0.013290   -0.207760   -3.808810
  H      0.980250    0.042840   -2.393480
  H     -0.396970    1.076940   -2.688360

----------------------------
CARTESIAN COORDINATES (A.U.)
----------------------------
  NO LB      ZA    FRAG     MASS         X           Y           Z
   0 C     6.0000    0    12.011   -0.032900    0.152293   -5.250434
   1 C     6.0000    0    12.011   -1.707349   -1.651507   -3.755623
   2 H     1.0000    0     1.008   -0.949682   -3.575551   -3.932898
   3 H     1.0000    0     1.008   -3.622681   -1.692117   -4.547210
   4 C     6.0000    0    12.011   -1.814421   -0.987117   -0.925720
   5 H     1.0000    0     1.008   -3.194374   -2.283035   -0.040969
   6 H     1.0000    0     1.008   -2.672999    0.919031   -0.768514
   7 F     9.0000    0    18.998    0.494541   -1.096627    0.261935
   8 H     1.0000    0     1.008   -0.025114   -0.392610   -7.197608
   9 H     1.0000    0     1.008    1.852404    0.080956   -4.523022
  10 H     1.0000    0     1.008   -0.750165    2.035122   -5.080264

--------------------------------
INTERNAL COORDINATES (ANGSTROEM)
--------------------------------
 C      0   0   0     0.000000000000     0.00000000     0.00000000
 C      1   0   0     1.523803769420     0.00000000     0.00000000
 H      2   1   0     1.098272728105   108.91089557     0.00000000
 H      2   1   3     1.096911233738   110.56900344   243.12332736
 C      2   1   3     1.539280676940   112.54157789   119.67119010
 H      5   2   1     1.105772502190   107.13211972   175.07566311
 H      5   2   1     1.109414678017   107.19915763    62.61491043
 F      5   2   1     1.375231884229   113.72030747   298.78936050
 H      1   2   3     1.069993858347   109.47092397    60.32872428
 H      1   2   3     1.070010113504   109.47086985   300.32901996
 H      1   2   3     1.069994447930   109.47147777   180.32997863

---------------------------
INTERNAL COORDINATES (A.U.)
---------------------------
 C      0   0   0     0.000000000000     0.00000000     0.00000000
 C      1   0   0     2.879571806042     0.00000000     0.00000000
 H      2   1   0     2.075434676474   108.91089557     0.00000000
 H      2   1   3     2.072861824986   110.56900344   243.12332736
 C      2   1   3     2.908818922653   112.54157789   119.67119010
 H      5   2   1     2.089607195560   107.13211972   175.07566311
 H      5   2   1     2.096489910405   107.19915763    62.61491043
 F      5   2   1     2.598811631829   113.72030747   298.78936050
 H      1   2   3     2.021995357253   109.47092397    60.32872428
 H      1   2   3     2.022026075048   109.47086985   300.32901996
 H      1   2   3     2.021996471403   109.47147777   180.32997863

---------------------
BASIS SET INFORMATION
---------------------
There are 3 groups of distinct atoms

 Group   1 Type C   : 8s4p2d contracted to 4s2p2d pattern {5111/31/11}
 Group   2 Type H   : 4s2p contracted to 2s2p pattern {31/11}
 Group   3 Type F   : 8s5p2d contracted to 4s3p2d pattern {5111/311/11}

Atom   0C    basis set group =>   1
Atom   1C    basis set group =>   1
Atom   2H    basis set group =>   2
Atom   3H    basis set group =>   2
Atom   4C    basis set group =>   1
Atom   5H    basis set group =>   2
Atom   6H    basis set group =>   2
Atom   7F    basis set group =>   3
Atom   8H    basis set group =>   2
Atom   9H    basis set group =>   2
Atom  10H    basis set group =>   2
---------------------------------
AUXILIARY/J BASIS SET INFORMATION
---------------------------------
There are 3 groups of distinct atoms

 Group   1 Type C   : 12s5p4d2f1g contracted to 6s4p3d1f1g pattern {711111/2111/211/2/1}
 Group   2 Type H   : 5s2p1d contracted to 3s1p1d pattern {311/2/1}
 Group   3 Type F   : 12s5p4d2f1g contracted to 6s4p3d1f1g pattern {711111/2111/211/2/1}

Atom   0C    basis set group =>   1
Atom   1C    basis set group =>   1
Atom   2H    basis set group =>   2
Atom   3H    basis set group =>   2
Atom   4C    basis set group =>   1
Atom   5H    basis set group =>   2
Atom   6H    basis set group =>   2
Atom   7F    basis set group =>   3
Atom   8H    basis set group =>   2
Atom   9H    basis set group =>   2
Atom  10H    basis set group =>   2


           ************************************************************
           *        Program running with 4 parallel MPI-processes     *
           *              working on a common directory               *
           ************************************************************
------------------------------------------------------------------------------
                           ORCA GTO INTEGRAL CALCULATION
                           -- RI-GTO INTEGRALS CHOSEN --
------------------------------------------------------------------------------
------------------------------------------------------------------------------
                   ___                                                        
                  /   \      - P O W E R E D   B Y -                         
                 /     \                                                     
                 |  |  |   _    _      __       _____    __    __             
                 |  |  |  | |  | |    /  \     |  _  \  |  |  /  |          
                  \  \/   | |  | |   /    \    | | | |  |  | /  /          
                 / \  \   | |__| |  /  /\  \   | |_| |  |  |/  /          
                |  |  |   |  __  | /  /__\  \  |    /   |      \           
                |  |  |   | |  | | |   __   |  |    \   |  |\   \          
                \     /   | |  | | |  |  |  |  | |\  \  |  | \   \       
                 \___/    |_|  |_| |__|  |__|  |_| \__\ |__|  \__/        
                                                                              
                      - O R C A' S   B I G   F R I E N D -                    
                                      &                                       
                       - I N T E G R A L  F E E D E R -                       
                                                                              
 v1 FN, 2020, v2 2021                                                         
------------------------------------------------------------------------------


Reading SHARK input file 14Feb_SVPD_CAMB3LYP_C1_wt_wb97_typ1_neg.SHARKINP.tmp ... ok
----------------------
SHARK INTEGRAL PACKAGE
----------------------

Number of atoms                             ...     11
Number of basis functions                   ...    139
Number of shells                            ...     61
Maximum angular momentum                    ...      2
Integral batch strategy                     ... SHARK/LIBINT Hybrid
RI-J (if used) integral strategy            ... SPLIT-RIJ (Revised 2003 algorithm where possible)
Printlevel                                  ...      1
Contraction scheme used                     ... SEGMENTED contraction
Coulomb Range Separation                    ... NOT USED
Exchange Range Separation                   ... Long Range
   Mu parameter                             ...  0.330000
   Scaling (regular/separated)              ...  0.190000  0.460000
Finite Nucleus Model                        ... NOT USED
Auxiliary Coulomb fitting basis             ... AVAILABLE
   # of basis functions in Aux-J            ...    273
   # of shells in Aux-J                     ...     95
   Maximum angular momentum in Aux-J        ...      4
Auxiliary J/K fitting basis                 ... NOT available
Auxiliary Correlation fitting basis         ... NOT available
Auxiliary 'external' fitting basis          ... NOT available
Integral threshold                          ...     2.500000e-11
Primitive cut-off                           ...     2.500000e-12
Primitive pair pre-selection threshold      ...     2.500000e-12

Calculating pre-screening integrals         ... done (  0.0 sec) Dimension = 61
Organizing shell pair data                  ... done (  0.0 sec)
Shell pair information
Total number of shell pairs                 ...      1891
Shell pairs after pre-screening             ...      1880
Total number of primitive shell pairs       ...      5023
Primitive shell pairs kept                  ...      4373
          la=0 lb=0:    461 shell pairs
          la=1 lb=0:    684 shell pairs
          la=1 lb=1:    276 shell pairs
          la=2 lb=0:    239 shell pairs
          la=2 lb=1:    184 shell pairs
          la=2 lb=2:     36 shell pairs

Calculating one electron integrals          ... done (  0.0 sec)
Calculating RI/J V-Matrix + Cholesky decomp.... done (  0.0 sec)
Calculating Nuclear repulsion               ... done (  0.0 sec) ENN=    129.985564377793 Eh

SHARK setup successfully completed in   0.1 seconds

Maximum memory used throughout the entire GTOINT-calculation: 8.8 MB


           ************************************************************
           *        Program running with 4 parallel MPI-processes     *
           *              working on a common directory               *
           ************************************************************
-------------------------------------------------------------------------------
                                 ORCA SCF
-------------------------------------------------------------------------------

------------
SCF SETTINGS
------------
Hamiltonian:
 Density Functional     Method          .... DFT(GTOs)
 Exchange Functional    Exchange        .... WB88
 Correlation Functional Correlation     .... LYP
 LDA part of GGA corr.  LDAOpt          .... VWN-5
 Gradients option       PostSCFGGA      .... off
 Hybrid DFT is turned on
   Fraction HF Exchange ScalHFX         ....  0.190000
   Scaling of DF-GGA-X  ScalDFX         ....  0.350000
   Scaling of DF-GGA-C  ScalDFC         ....  0.810000
   Scaling of DF-LDA-C  ScalLDAC        ....  1.000000
   Perturbative correction              ....  0.000000
   Density functional embedding theory  .... OFF
 Long-range corrected/Screened/Range-Separated Hybrid DFT is turned on
   Amount of maximum screened exact exchange              ....  0.460000
   Range separation parameter mu (erf(mu*r12)/r12)        ....  0.330000
 RI-approximation to the Coulomb term is turned on
   Number of AuxJ basis functions       .... 273
   RIJ-COSX (HFX calculated with COS-X)).... on


General Settings:
 Integral files         IntName         .... 14Feb_SVPD_CAMB3LYP_C1_wt_wb97_typ1_neg
 Hartree-Fock type      HFTyp           .... RHF
 Total Charge           Charge          ....    0
 Multiplicity           Mult            ....    1
 Number of Electrons    NEL             ....   34
 Basis Dimension        Dim             ....  139
 Nuclear Repulsion      ENuc            ....    129.9855643778 Eh

Convergence Acceleration:
 DIIS                   CNVDIIS         .... on
   Start iteration      DIISMaxIt       ....    12
   Startup error        DIISStart       ....  0.200000
   # of expansion vecs  DIISMaxEq       ....     5
   Bias factor          DIISBfac        ....   1.050
   Max. coefficient     DIISMaxC        ....  10.000
 Trust-Rad. Augm. Hess. CNVTRAH         .... auto
   Auto Start mean grad. ratio tolernc. ....  1.125000
   Auto Start start iteration           ....    20
   Auto Start num. interpolation iter.  ....    10
   Max. Number of Micro iterations      ....    16
   Max. Number of Macro iterations      .... Maxiter - #DIIS iter
   Number of Davidson start vectors     ....     2
   Converg. threshold I  (grad. norm)   ....   1.000e-05
   Converg. threshold II (energy diff.) ....   1.000e-08
   Grad. Scal. Fac. for Micro threshold ....   0.100
   Minimum threshold for Micro iter.    ....   0.010
   NR start threshold (gradient norm)   ....   0.001
   Initial trust radius                 ....   0.400
   Minimum AH scaling param. (alpha)    ....   1.000
   Maximum AH scaling param. (alpha)    .... 1000.000
   Orbital update algorithm             .... Taylor
   White noise on init. David. guess    .... on
   Maximum white noise                  ....   0.010
   Quad. conv. algorithm                .... NR
 SOSCF                  CNVSOSCF        .... on
   Start iteration      SOSCFMaxIt      ....   150
   Startup grad/error   SOSCFStart      ....  0.003300
 Level Shifting         CNVShift        .... on
   Level shift para.    LevelShift      ....    0.2500
   Turn off err/grad.   ShiftErr        ....    0.0010
 Zerner damping         CNVZerner       .... off
 Static damping         CNVDamp         .... on
   Fraction old density DampFac         ....    0.7000
   Max. Damping (<1)    DampMax         ....    0.9800
   Min. Damping (>=0)   DampMin         ....    0.0000
   Turn off err/grad.   DampErr         ....    0.1000
 Fernandez-Rico         CNVRico         .... off

SCF Procedure:
 Maximum # iterations   MaxIter         ....   150
 SCF integral mode      SCFMode         .... Direct
   Integral package                     .... SHARK and LIBINT hybrid scheme
 Reset frequency        DirectResetFreq ....    20
 Integral Threshold     Thresh          ....  2.500e-11 Eh
 Primitive CutOff       TCut            ....  2.500e-12 Eh

Convergence Tolerance:
 Convergence Check Mode ConvCheckMode   .... Total+1el-Energy
 Convergence forced     ConvForced      .... 0
 Energy Change          TolE            ....  1.000e-08 Eh
 1-El. energy change                    ....  1.000e-05 Eh
 Orbital Gradient       TolG            ....  1.000e-05
 Orbital Rotation angle TolX            ....  1.000e-05
 DIIS Error             TolErr          ....  5.000e-07


Diagonalization of the overlap matrix:
Smallest eigenvalue                        ... 2.405e-04
Time for diagonalization                   ...    0.005 sec
Threshold for overlap eigenvalues          ... 1.000e-08
Number of eigenvalues below threshold      ... 0
Time for construction of square roots      ...    0.004 sec
Total time needed                          ...    0.009 sec

Time for model grid setup =    0.053 sec

------------------------------
INITIAL GUESS: MODEL POTENTIAL
------------------------------
Loading Hartree-Fock densities                     ... done
Calculating cut-offs                               ... done
Initializing the effective Hamiltonian             ... done
Setting up the integral package (SHARK)            ... done
Starting the Coulomb interaction                   ... done (   0.0 sec)
Reading the grid                                   ... done
Mapping shells                                     ... done
Starting the XC term evaluation                    ... done (   0.0 sec)
  promolecular density results
     # of electrons  =     33.997496297
     EX              =    -27.392199038
     EC              =     -1.110889949
     EX+EC           =    -28.503088987
Transforming the Hamiltonian                       ... done (   0.0 sec)
Diagonalizing the Hamiltonian                      ... done (   0.0 sec)
Back transforming the eigenvectors                 ... done (   0.0 sec)
Now organizing SCF variables                       ... done
                      ------------------
                      INITIAL GUESS DONE (   0.1 sec)
                      ------------------
-------------------
DFT GRID GENERATION
-------------------

General Integration Accuracy     IntAcc      ... 4.388
Radial Grid Type                 RadialGrid  ... OptM3 with GC (2021)
Angular Grid (max. ang.)         AngularGrid ... 4 (Lebedev-302)
Angular grid pruning method      GridPruning ... 4 (adaptive)
Weight generation scheme         WeightScheme... Becke
Basis function cutoff            BFCut       ... 1.0000e-11
Integration weight cutoff        WCut        ... 1.0000e-14
Angular grids for H and He will be reduced by one unit
Partially contracted basis set               ... off
Rotationally invariant grid construction     ... off

Total number of grid points                  ...    48590
Total number of batches                      ...      765
Average number of points per batch           ...       63
Average number of grid points per atom       ...     4417
Time for grid setup =    0.266 sec

--------------------
COSX GRID GENERATION
--------------------

GRIDX 1
-------
General Integration Accuracy     IntAcc      ... 3.816
Radial Grid Type                 RadialGrid  ... OptM3 with GC (2021)
Angular Grid (max. ang.)         AngularGrid ... 1 (Lebedev-50)
Angular grid pruning method      GridPruning ... 4 (adaptive)
Weight generation scheme         WeightScheme... Becke
Basis function cutoff            BFCut       ... 1.0000e-11
Integration weight cutoff        WCut        ... 1.0000e-14
Angular grids for H and He will be reduced by one unit
Partially contracted basis set               ... on
Rotationally invariant grid construction     ... off

Total number of grid points                  ...     6092
Total number of batches                      ...      103
Average number of points per batch           ...       59
Average number of grid points per atom       ...      554
UseSFitting                                  ... on

GRIDX 2
-------
General Integration Accuracy     IntAcc      ... 4.020
Radial Grid Type                 RadialGrid  ... OptM3 with GC (2021)
Angular Grid (max. ang.)         AngularGrid ... 2 (Lebedev-110)
Angular grid pruning method      GridPruning ... 4 (adaptive)
Weight generation scheme         WeightScheme... Becke
Basis function cutoff            BFCut       ... 1.0000e-11
Integration weight cutoff        WCut        ... 1.0000e-14
Angular grids for H and He will be reduced by one unit
Partially contracted basis set               ... on
Rotationally invariant grid construction     ... off

Total number of grid points                  ...    13742
Total number of batches                      ...      221
Average number of points per batch           ...       62
Average number of grid points per atom       ...     1249
UseSFitting                                  ... on

GRIDX 3
-------
General Integration Accuracy     IntAcc      ... 4.338
Radial Grid Type                 RadialGrid  ... OptM3 with GC (2021)
Angular Grid (max. ang.)         AngularGrid ... 3 (Lebedev-194)
Angular grid pruning method      GridPruning ... 4 (adaptive)
Weight generation scheme         WeightScheme... Becke
Basis function cutoff            BFCut       ... 1.0000e-11
Integration weight cutoff        WCut        ... 1.0000e-14
Angular grids for H and He will be reduced by one unit
Partially contracted basis set               ... on
Rotationally invariant grid construction     ... off

Total number of grid points                  ...    31401
Total number of batches                      ...      494
Average number of points per batch           ...       63
Average number of grid points per atom       ...     2855
UseSFitting                                  ... on

Time for X-Grid setup             =    0.255 sec

--------------
SCF ITERATIONS
--------------
ITER       Energy         Delta-E        Max-DP      RMS-DP      [F,P]     Damp
               ***  Starting incremental Fock matrix formation  ***
  0   -218.0261634704   0.000000000000 0.07791661  0.00189298  0.1521390 0.7000
  1   -218.0674715332  -0.041308062840 0.04901446  0.00127793  0.0862268 0.7000
                               ***Turning on DIIS***
  2   -218.0877927522  -0.020321218994 0.07625601  0.00240613  0.0392764 0.0000
  3   -218.1188504541  -0.031057701858 0.04697570  0.00104795  0.0407166 0.0000
  4   -218.1249088626  -0.006058408516 0.00377612  0.00015914  0.0049392 0.0000
                      *** Initiating the SOSCF procedure ***
                           *** Shutting down DIIS ***
                      *** Re-Reading the Fockian *** 
                      *** Removing any level shift *** 
ITER      Energy       Delta-E        Grad      Rot      Max-DP    RMS-DP
  5   -218.12501579  -0.0001069238  0.000358  0.000358  0.001245  0.000052
               *** Restarting incremental Fock matrix formation ***
  6   -218.12501342   0.0000023706  0.000245  0.000354  0.001036  0.000034
  7   -218.12501346  -0.0000000466  0.000280  0.000112  0.000631  0.000015
  8   -218.12501554  -0.0000020788  0.000014  0.000021  0.000132  0.000004
  9   -218.12501555  -0.0000000091  0.000013  0.000011  0.000068  0.000002
                  ***Gradient check signals convergence***
              ***Rediagonalizing the Fockian in SOSCF/NRSCF***

               *****************************************************
               *                     SUCCESS                       *
               *           SCF CONVERGED AFTER  10 CYCLES          *
               *****************************************************

Old exchange energy                            =     -7.996133080 Eh
New exchange energy                            =     -7.996125965 Eh
Exchange energy change after final integration =      0.000007115 Eh
Total energy after final integration           =   -218.125008445 Eh
Final COS-X integration done in                =     2.069 sec

----------------
TOTAL SCF ENERGY
----------------

Total Energy       :         -218.12500844 Eh           -5935.48323 eV

Components:
Nuclear Repulsion  :          129.98556438 Eh            3537.08703 eV
Electronic Energy  :         -348.11057282 Eh           -9472.57026 eV
One Electron Energy:         -554.70711578 Eh          -15094.34800 eV
Two Electron Energy:          206.59654296 Eh            5621.77774 eV
Max COSX asymmetry :            0.00000391 Eh               0.00011 eV

Virial components:
Potential Energy   :         -434.11770597 Eh          -11812.94334 eV
Kinetic Energy     :          215.99269753 Eh            5877.46010 eV
Virial Ratio       :            2.00987214


DFT components:
N(Alpha)           :       17.000021969118 electrons
N(Beta)            :       17.000021969118 electrons
N(Total)           :       34.000043938236 electrons
E(XC)              :      -21.225244222874 Eh       
DFET-embed. en.    :        0.000000000000 Eh       

---------------
SCF CONVERGENCE
---------------

  Last Energy change         ...   -9.5760e-09  Tolerance :   1.0000e-08
  Last MAX-Density change    ...    1.7764e-15  Tolerance :   1.0000e-07
  Last RMS-Density change    ...    3.5069e-17  Tolerance :   5.0000e-09
  Last Orbital Gradient      ...    4.8728e-07  Tolerance :   1.0000e-05
  Last Orbital Rotation      ...    1.0404e-06  Tolerance :   1.0000e-05

             **** THE GBW FILE WAS UPDATED (14Feb_SVPD_CAMB3LYP_C1_wt_wb97_typ1_neg.gbw) ****
             **** DENSITY 14Feb_SVPD_CAMB3LYP_C1_wt_wb97_typ1_neg.scfp WAS UPDATED ****
             **** ENERGY FILE WAS UPDATED (14Feb_SVPD_CAMB3LYP_C1_wt_wb97_typ1_neg.en.tmp) ****
             **** THE GBW FILE WAS UPDATED (14Feb_SVPD_CAMB3LYP_C1_wt_wb97_typ1_neg.gbw) ****
             **** DENSITY 14Feb_SVPD_CAMB3LYP_C1_wt_wb97_typ1_neg.scfp WAS UPDATED ****
----------------
ORBITAL ENERGIES
----------------

  NO   OCC          E(Eh)            E(eV) 
   0   2.0000     -24.762668      -673.8264 
   1   2.0000     -10.338557      -281.3264 
   2   2.0000     -10.266615      -279.3688 
   3   2.0000     -10.246017      -278.8083 
   4   2.0000      -1.264621       -34.4121 
   5   2.0000      -0.868403       -23.6305 
   6   2.0000      -0.765444       -20.8288 
   7   2.0000      -0.671405       -18.2699 
   8   2.0000      -0.584157       -15.8957 
   9   2.0000      -0.568899       -15.4805 
  10   2.0000      -0.543809       -14.7978 
  11   2.0000      -0.508294       -13.8314 
  12   2.0000      -0.472931       -12.8691 
  13   2.0000      -0.446351       -12.1458 
  14   2.0000      -0.420401       -11.4397 
  15   2.0000      -0.395605       -10.7649 
  16   2.0000      -0.394290       -10.7292 
  17   0.0000       0.051143         1.3917 
  18   0.0000       0.076638         2.0854 
  19   0.0000       0.085353         2.3226 
  20   0.0000       0.101780         2.7696 
  21   0.0000       0.125810         3.4235 
  22   0.0000       0.131012         3.5650 
  23   0.0000       0.144272         3.9258 
  24   0.0000       0.159521         4.3408 
  25   0.0000       0.161223         4.3871 
  26   0.0000       0.190001         5.1702 
  27   0.0000       0.198288         5.3957 
  28   0.0000       0.204163         5.5556 
  29   0.0000       0.211078         5.7437 
  30   0.0000       0.224828         6.1179 
  31   0.0000       0.230276         6.2661 
  32   0.0000       0.236485         6.4351 
  33   0.0000       0.265304         7.2193 
  34   0.0000       0.281159         7.6507 
  35   0.0000       0.312973         8.5164 
  36   0.0000       0.315036         8.5726 
  37   0.0000       0.335232         9.1221 
  38   0.0000       0.339673         9.2430 
  39   0.0000       0.344520         9.3749 
  40   0.0000       0.354830         9.6554 
  41   0.0000       0.371446        10.1076 
  42   0.0000       0.378442        10.2979 
  43   0.0000       0.386340        10.5128 
  44   0.0000       0.394951        10.7472 
  45   0.0000       0.402192        10.9442 
  46   0.0000       0.409244        11.1361 
  47   0.0000       0.417365        11.3571 
  48   0.0000       0.428680        11.6650 
  49   0.0000       0.435123        11.8403 
  50   0.0000       0.440815        11.9952 
  51   0.0000       0.449471        12.2307 
  52   0.0000       0.463520        12.6130 
  53   0.0000       0.490270        13.3409 
  54   0.0000       0.506903        13.7935 
  55   0.0000       0.511640        13.9224 
  56   0.0000       0.516735        14.0611 
  57   0.0000       0.527319        14.3491 
  58   0.0000       0.532387        14.4870 
  59   0.0000       0.543398        14.7866 
  60   0.0000       0.551278        15.0010 
  61   0.0000       0.569339        15.4925 
  62   0.0000       0.584279        15.8990 
  63   0.0000       0.588958        16.0264 
  64   0.0000       0.595939        16.2163 
  65   0.0000       0.611187        16.6312 
  66   0.0000       0.619617        16.8606 
  67   0.0000       0.630435        17.1550 
  68   0.0000       0.654964        17.8225 
  69   0.0000       0.687370        18.7043 
  70   0.0000       0.787747        21.4357 
  71   0.0000       0.804979        21.9046 
  72   0.0000       0.840952        22.8835 
  73   0.0000       0.866429        23.5767 
  74   0.0000       0.886149        24.1134 
  75   0.0000       0.897690        24.4274 
  76   0.0000       0.934100        25.4182 
  77   0.0000       0.957826        26.0638 
  78   0.0000       0.992222        26.9997 
  79   0.0000       1.015625        27.6366 
  80   0.0000       1.047645        28.5079 
  81   0.0000       1.067026        29.0352 
  82   0.0000       1.073530        29.2122 
  83   0.0000       1.081908        29.4402 
  84   0.0000       1.111331        30.2408 
  85   0.0000       1.123088        30.5608 
  86   0.0000       1.157597        31.4998 
  87   0.0000       1.170748        31.8577 
  88   0.0000       1.221540        33.2398 
  89   0.0000       1.309110        35.6227 
  90   0.0000       1.318592        35.8807 
  91   0.0000       1.328396        36.1475 
  92   0.0000       1.359828        37.0028 
  93   0.0000       1.396503        38.0008 
  94   0.0000       1.631094        44.3843 
  95   0.0000       1.646583        44.8058 
  96   0.0000       1.654442        45.0197 
  97   0.0000       1.695238        46.1298 
  98   0.0000       1.749422        47.6042 
  99   0.0000       1.756340        47.7924 
 100   0.0000       1.781722        48.4831 
 101   0.0000       1.795787        48.8659 
 102   0.0000       1.889549        51.4172 
 103   0.0000       1.921364        52.2830 
 104   0.0000       1.923011        52.3278 
 105   0.0000       1.971624        53.6506 
 106   0.0000       2.003328        54.5133 
 107   0.0000       2.032152        55.2977 
 108   0.0000       2.060993        56.0825 
 109   0.0000       2.066713        56.2381 
 110   0.0000       2.081745        56.6472 
 111   0.0000       2.102293        57.2063 
 112   0.0000       2.125804        57.8461 
 113   0.0000       2.162946        58.8568 
 114   0.0000       2.201881        59.9162 
 115   0.0000       2.294552        62.4379 
 116   0.0000       2.335421        63.5500 
 117   0.0000       2.383956        64.8707 
 118   0.0000       2.471357        67.2491 
 119   0.0000       2.498169        67.9786 
 120   0.0000       2.498989        68.0009 
 121   0.0000       2.566932        69.8498 
 122   0.0000       2.614387        71.1411 
 123   0.0000       2.650667        72.1283 
 124   0.0000       2.726853        74.2014 
 125   0.0000       2.750799        74.8531 
 126   0.0000       2.778569        75.6087 
 127   0.0000       2.892820        78.7176 
 128   0.0000       3.049618        82.9843 
 129   0.0000       3.096077        84.2485 
 130   0.0000       3.122675        84.9723 
 131   0.0000       3.185518        86.6823 
 132   0.0000       3.232184        87.9522 
 133   0.0000       3.264252        88.8248 
 134   0.0000       3.485620        94.8485 
 135   0.0000       3.507542        95.4451 
 136   0.0000       3.565672        97.0269 
 137   0.0000       3.583863        97.5219 
 138   0.0000       3.988029       108.5198 

                    ********************************
                    * MULLIKEN POPULATION ANALYSIS *
                    ********************************

-----------------------
MULLIKEN ATOMIC CHARGES
-----------------------
   0 C :    0.810244
   1 C :   -0.334465
   2 H :   -0.122654
   3 H :   -0.137673
   4 C :    0.837042
   5 H :   -0.155318
   6 H :   -0.097569
   7 F :   -0.436320
   8 H :   -0.142734
   9 H :   -0.096379
  10 H :   -0.124175
Sum of atomic charges:    0.0000000

--------------------------------
MULLIKEN REDUCED ORBITAL CHARGES
--------------------------------
  0 C s       :     2.375666  s :     2.375666
      pz      :     0.857547  p :     2.694735
      px      :     0.924630
      py      :     0.912558
      dz2     :     0.031937  d :     0.119355
      dxz     :    -0.010731
      dyz     :     0.005729
      dx2y2   :     0.072306
      dxy     :     0.020113
  1 C s       :     2.829946  s :     2.829946
      pz      :     1.009005  p :     2.954336
      px      :     0.959883
      py      :     0.985448
      dz2     :     0.149548  d :     0.550183
      dxz     :     0.105426
      dyz     :     0.117810
      dx2y2   :     0.148079
      dxy     :     0.029320
  2 H s       :     1.100652  s :     1.100652
      pz      :    -0.019719  p :     0.022002
      px      :    -0.014975
      py      :     0.056695
  3 H s       :     1.121531  s :     1.121531
      pz      :    -0.015831  p :     0.016142
      px      :     0.049775
      py      :    -0.017802
  4 C s       :     2.612120  s :     2.612120
      pz      :     0.903049  p :     2.375769
      px      :     0.584228
      py      :     0.888492
      dz2     :     0.021516  d :     0.175069
      dxz     :     0.060568
      dyz     :     0.055053
      dx2y2   :     0.011115
      dxy     :     0.026817
  5 H s       :     1.133863  s :     1.133863
      pz      :    -0.009462  p :     0.021455
      px      :     0.016094
      py      :     0.014823
  6 H s       :     1.073334  s :     1.073334
      pz      :    -0.012877  p :     0.024235
      px      :    -0.004837
      py      :     0.041948
  7 F s       :     3.988935  s :     3.988935
      pz      :     1.871318  p :     5.407733
      px      :     1.580792
      py      :     1.955623
      dz2     :     0.008629  d :     0.039651
      dxz     :     0.007225
      dyz     :     0.000671
      dx2y2   :     0.005997
      dxy     :     0.017128
  8 H s       :     1.126450  s :     1.126450
      pz      :     0.045532  p :     0.016283
      px      :    -0.023783
      py      :    -0.005465
  9 H s       :     1.057139  s :     1.057139
      pz      :     0.004262  p :     0.039239
      px      :     0.049172
      py      :    -0.014194
 10 H s       :     1.087274  s :     1.087274
      pz      :    -0.019453  p :     0.036900
      px      :     0.010783
      py      :     0.045571


                     *******************************
                     * LOEWDIN POPULATION ANALYSIS *
                     *******************************

----------------------
LOEWDIN ATOMIC CHARGES
----------------------
   0 C :    0.119636
   1 C :   -0.067591
   2 H :    0.025419
   3 H :    0.026969
   4 C :    0.095950
   5 H :    0.029326
   6 H :    0.033978
   7 F :   -0.212322
   8 H :   -0.018933
   9 H :   -0.014909
  10 H :   -0.017522

-------------------------------
LOEWDIN REDUCED ORBITAL CHARGES
-------------------------------
  0 C s       :     2.701541  s :     2.701541
      pz      :     0.918609  p :     2.771293
      px      :     0.931381
      py      :     0.921304
      dz2     :     0.116707  d :     0.407530
      dxz     :     0.051914
      dyz     :     0.049015
      dx2y2   :     0.125783
      dxy     :     0.064110
  1 C s       :     2.699694  s :     2.699694
      pz      :     0.882585  p :     2.717562
      px      :     0.915384
      py      :     0.919592
      dz2     :     0.177501  d :     0.650335
      dxz     :     0.119113
      dyz     :     0.134017
      dx2y2   :     0.143920
      dxy     :     0.075785
  2 H s       :     0.729058  s :     0.729058
      pz      :     0.059049  p :     0.245523
      px      :     0.075611
      py      :     0.110863
  3 H s       :     0.730499  s :     0.730499
      pz      :     0.063850  p :     0.242533
      px      :     0.113357
      py      :     0.065326
  4 C s       :     2.681026  s :     2.681026
      pz      :     0.867147  p :     2.498503
      px      :     0.710321
      py      :     0.921034
      dz2     :     0.160597  d :     0.724522
      dxz     :     0.195352
      dyz     :     0.111545
      dx2y2   :     0.109452
      dxy     :     0.147575
  5 H s       :     0.739373  s :     0.739373
      pz      :     0.067511  p :     0.231302
      px      :     0.069902
      py      :     0.093889
  6 H s       :     0.735744  s :     0.735744
      pz      :     0.057991  p :     0.230277
      px      :     0.051393
      py      :     0.120893
  7 F s       :     3.659811  s :     3.659811
      pz      :     1.811836  p :     5.330880
      px      :     1.634993
      py      :     1.884051
      dz2     :     0.042879  d :     0.221631
      dxz     :     0.059371
      dyz     :     0.012200
      dx2y2   :     0.044683
      dxy     :     0.062497
  8 H s       :     0.744578  s :     0.744578
      pz      :     0.125088  p :     0.274354
      px      :     0.072732
      py      :     0.076535
  9 H s       :     0.735400  s :     0.735400
      pz      :     0.089183  p :     0.279510
      px      :     0.119320
      py      :     0.071007
 10 H s       :     0.742293  s :     0.742293
      pz      :     0.075576  p :     0.275229
      px      :     0.080603
      py      :     0.119050


                      *****************************
                      * MAYER POPULATION ANALYSIS *
                      *****************************

  NA   - Mulliken gross atomic population
  ZA   - Total nuclear charge
  QA   - Mulliken gross atomic charge
  VA   - Mayer's total valence
  BVA  - Mayer's bonded valence
  FA   - Mayer's free valence

  ATOM       NA         ZA         QA         VA         BVA        FA
  0 C      5.1898     6.0000     0.8102     3.8140     3.8140    -0.0000
  1 C      6.3345     6.0000    -0.3345     5.2236     5.2236     0.0000
  2 H      1.1227     1.0000    -0.1227     1.0730     1.0730    -0.0000
  3 H      1.1377     1.0000    -0.1377     1.0690     1.0690     0.0000
  4 C      5.1630     6.0000     0.8370     3.8820     3.8820     0.0000
  5 H      1.1553     1.0000    -0.1553     1.0247     1.0247     0.0000
  6 H      1.0976     1.0000    -0.0976     1.0253     1.0253     0.0000
  7 F      9.4363     9.0000    -0.4363     0.8044     0.8044    -0.0000
  8 H      1.1427     1.0000    -0.1427     0.9987     0.9987    -0.0000
  9 H      1.0964     1.0000    -0.0964     1.0628     1.0628    -0.0000
 10 H      1.1242     1.0000    -0.1242     1.0671     1.0671    -0.0000

  Mayer bond orders larger than 0.100000
B(  0-C ,  1-C ) :   1.2923 B(  0-C ,  8-H ) :   0.7781 B(  0-C ,  9-H ) :   0.7902 
B(  0-C , 10-H ) :   0.7870 B(  1-C ,  2-H ) :   0.9343 B(  1-C ,  3-H ) :   0.9475 
B(  1-C ,  4-C ) :   1.1681 B(  1-C ,  5-H ) :   0.1255 B(  1-C ,  6-H ) :   0.1050 
B(  1-C ,  8-H ) :   0.2082 B(  1-C ,  9-H ) :   0.2008 B(  1-C , 10-H ) :   0.1835 
B(  4-C ,  5-H ) :   0.8897 B(  4-C ,  6-H ) :   0.8881 B(  4-C ,  7-F ) :   0.7433 


-------
TIMINGS
-------

Total SCF time: 0 days 0 hours 0 min 12 sec 

Total time                  ....      12.716 sec
Sum of individual times     ....      12.579 sec  ( 98.9%)

Fock matrix formation       ....      11.862 sec  ( 93.3%)
  Split-RI-J                ....       0.481 sec  (  4.1% of F)
  Chain of spheres X        ....       9.531 sec  ( 80.4% of F)
  XC integration            ....       1.751 sec  ( 14.8% of F)
    Basis function eval.    ....       0.545 sec  ( 31.1% of XC)
    Density eval.           ....       0.341 sec  ( 19.4% of XC)
    XC-Functional eval.     ....       0.338 sec  ( 19.3% of XC)
    XC-Potential eval.      ....       0.464 sec  ( 26.5% of XC)
Diagonalization             ....       0.028 sec  (  0.2%)
Density matrix formation    ....       0.002 sec  (  0.0%)
Population analysis         ....       0.005 sec  (  0.0%)
Initial guess               ....       0.071 sec  (  0.6%)
Orbital Transformation      ....       0.000 sec  (  0.0%)
Orbital Orthonormalization  ....       0.000 sec  (  0.0%)
DIIS solution               ....       0.020 sec  (  0.2%)
SOSCF solution              ....       0.017 sec  (  0.1%)
Grid generation             ....       0.574 sec  (  4.5%)

Maximum memory used throughout the entire SCF-calculation: 49.1 MB

-------------------------   --------------------
FINAL SINGLE POINT ENERGY      -218.125008444641
-------------------------   --------------------


                            ***************************************
                            *     ORCA property calculations      *
                            ***************************************

                                    ---------------------
                                    Active property flags
                                    ---------------------
   (+) Dipole Moment


------------------------------------------------------------------------------
                       ORCA ELECTRIC PROPERTIES CALCULATION
------------------------------------------------------------------------------

Dipole Moment Calculation                       ... on
Quadrupole Moment Calculation                   ... off
Polarizability Calculation                      ... off
GBWName                                         ... 14Feb_SVPD_CAMB3LYP_C1_wt_wb97_typ1_neg.gbw
Electron density file                           ... 14Feb_SVPD_CAMB3LYP_C1_wt_wb97_typ1_neg.scfp
The origin for moment calculation is the CENTER OF MASS  = (-0.688346, -0.896235 -2.264782)

-------------
DIPOLE MOMENT
-------------
                                X             Y             Z
Electronic contribution:      2.22351      -0.77588       5.87557
Nuclear contribution   :     -2.83598       0.77614      -6.32113
                        -----------------------------------------
Total Dipole Moment    :     -0.61248       0.00026      -0.44556
                        -----------------------------------------
Magnitude (a.u.)       :      0.75740
Magnitude (Debye)      :      1.92516



--------------------
Rotational spectrum 
--------------------
 
Rotational constants in cm-1:     0.494803     0.164634     0.139827 
Rotational constants in MHz : 14833.819345  4935.593559  4191.919783 

 Dipole components along the rotational axes: 
x,y,z [a.u.] :    -0.488828     0.555075    -0.163079 
x,y,z [Debye]:    -1.242502     1.410889    -0.414515 

 

Timings for individual modules:

Sum of individual times         ...       13.255 sec (=   0.221 min)
GTO integral calculation        ...        0.342 sec (=   0.006 min)   2.6 %
SCF iterations                  ...       12.913 sec (=   0.215 min)  97.4 %
                             ****ORCA TERMINATED NORMALLY****
TOTAL RUN TIME: 0 days 0 hours 0 minutes 13 seconds 590 msec
