
                                        *****************
                                        * O   R   C   A *
                                        *****************

                                            #,                                       
                                            ###                                      
                                            ####                                     
                                            #####                                    
                                            ######                                   
                                           ########,                                 
                                     ,,################,,,,,                         
                               ,,#################################,,                 
                          ,,##########################################,,             
                       ,#########################################, ''#####,          
                    ,#############################################,,   '####,        
                  ,##################################################,,,,####,       
                ,###########''''           ''''###############################       
              ,#####''   ,,,,##########,,,,          '''####'''          '####       
            ,##' ,,,,###########################,,,                        '##       
           ' ,,###''''                  '''############,,,                           
         ,,##''                                '''############,,,,        ,,,,,,###''
      ,#''                                            '''#######################'''  
     '                                                          ''''####''''         
             ,#######,   #######,   ,#######,      ##                                
            ,#'     '#,  ##    ##  ,#'     '#,    #''#        ######   ,####,        
            ##       ##  ##   ,#'  ##            #'  '#       #        #'  '#        
            ##       ##  #######   ##           ,######,      #####,   #    #        
            '#,     ,#'  ##    ##  '#,     ,#' ,#      #,         ##   #,  ,#        
             '#######'   ##     ##  '#######'  #'      '#     #####' # '####'        



                  #######################################################
                  #                        -***-                        #
                  #          Department of theory and spectroscopy      #
                  #    Directorship and core code : Frank Neese         #
                  #        Max Planck Institute fuer Kohlenforschung    #
                  #                Kaiser Wilhelm Platz 1               #
                  #                 D-45470 Muelheim/Ruhr               #
                  #                      Germany                        #
                  #                                                     #
                  #                  All rights reserved                #
                  #                        -***-                        #
                  #######################################################


                         Program Version 5.0.0 -  RELEASE  -
                                (SVN: $Rev: 19529$)
                ($Date: 2021-06-28 11:36:33 +0200 (Mo, 28 Jun 2021) $)


 With contributions from (in alphabetic order):
   Daniel Aravena         : Magnetic Suceptibility
   Michael Atanasov       : Ab Initio Ligand Field Theory (pilot matlab implementation)
   Alexander A. Auer      : GIAO ZORA, VPT2 properties, NMR spectrum
   Ute Becker             : Parallelization
   Giovanni Bistoni       : ED, misc. LED, open-shell LED, HFLD
   Martin Brehm           : Molecular dynamics
   Dmytro Bykov           : SCF Hessian
   Vijay G. Chilkuri      : MRCI spin determinant printing, contributions to CSF-ICE
   Dipayan Datta          : RHF DLPNO-CCSD density
   Achintya Kumar Dutta   : EOM-CC, STEOM-CC
   Dmitry Ganyushin       : Spin-Orbit,Spin-Spin,Magnetic field MRCI
   Miquel Garcia          : C-PCM Hessian, Gaussian charge scheme
   Yang Guo               : DLPNO-NEVPT2, F12-NEVPT2, CIM, IAO-localization
   Andreas Hansen         : Spin unrestricted coupled pair/coupled cluster methods
   Benjamin Helmich-Paris : MC-RPA, TRAH-SCF, COSX integrals
   Lee Huntington         : MR-EOM, pCC
   Robert Izsak           : Overlap fitted RIJCOSX, COSX-SCS-MP3, EOM
   Marcus Kettner         : VPT2
   Christian Kollmar      : KDIIS, OOCD, Brueckner-CCSD(T), CCSD density, CASPT2, CASPT2-K
   Simone Kossmann        : Meta GGA functionals, TD-DFT gradient, OOMP2, MP2 Hessian
   Martin Krupicka        : Initial AUTO-CI
   Lucas Lang             : DCDCAS
   Marvin Lechner         : AUTO-CI (C++ implementation), FIC-MRCC
   Dagmar Lenk            : GEPOL surface, SMD
   Dimitrios Liakos       : Extrapolation schemes; Compound Job, initial MDCI parallelization
   Dimitrios Manganas     : Further ROCIS development; embedding schemes
   Dimitrios Pantazis     : SARC Basis sets
   Anastasios Papadopoulos: AUTO-CI, single reference methods and gradients
   Taras Petrenko         : DFT Hessian,TD-DFT gradient, ASA, ECA, R-Raman, ABS, FL, XAS/XES, NRVS
   Peter Pinski           : DLPNO-MP2, DLPNO-MP2 Gradient
   Christoph Reimann      : Effective Core Potentials
   Marius Retegan         : Local ZFS, SOC
   Christoph Riplinger    : Optimizer, TS searches, QM/MM, DLPNO-CCSD(T), (RO)-DLPNO pert. Triples
   Tobias Risthaus        : Range-separated hybrids, TD-DFT gradient, RPA, STAB
   Michael Roemelt        : Original ROCIS implementation
   Masaaki Saitow         : Open-shell DLPNO-CCSD energy and density
   Barbara Sandhoefer     : DKH picture change effects
   Avijit Sen             : IP-ROCIS
   Kantharuban Sivalingam : CASSCF convergence, NEVPT2, FIC-MRCI
   Bernardo de Souza      : ESD, SOC TD-DFT
   Georgi Stoychev        : AutoAux, RI-MP2 NMR
   Willem Van den Heuvel  : Paramagnetic NMR
   Boris Wezisla          : Elementary symmetry handling
   Frank Wennmohs         : Technical directorship


 We gratefully acknowledge several colleagues who have allowed us to
 interface, adapt or use parts of their codes:
   Stefan Grimme, W. Hujo, H. Kruse, P. Pracht,  : VdW corrections, initial TS optimization,
                  C. Bannwarth, S. Ehlert          DFT functionals, gCP, sTDA/sTD-DF
   Ed Valeev, F. Pavosevic, A. Kumar             : LibInt (2-el integral package), F12 methods
   Garnet Chan, S. Sharma, J. Yang, R. Olivares  : DMRG
   Ulf Ekstrom                                   : XCFun DFT Library
   Mihaly Kallay                                 : mrcc  (arbitrary order and MRCC methods)
   Jiri Pittner, Ondrej Demel                    : Mk-CCSD
   Frank Weinhold                                : gennbo (NPA and NBO analysis)
   Christopher J. Cramer and Donald G. Truhlar   : smd solvation model
   Lars Goerigk                                  : TD-DFT with DH, B97 family of functionals
   V. Asgeirsson, H. Jonsson                     : NEB implementation
   FAccTs GmbH                                   : IRC, NEB, NEB-TS, DLPNO-Multilevel, CI-OPT
                                                   MM, QMMM, 2- and 3-layer-ONIOM, Crystal-QMMM,
                                                   LR-CPCM, SF, NACMEs, symmetry and pop. for TD-DFT,
                                                   nearIR, NL-DFT gradient (VV10), updates on ESD,
                                                   ML-optimized integration grids
   S Lehtola, MJT Oliveira, MAL Marques          : LibXC Library
   Liviu Ungur et al                             : ANISO software


 Your calculation uses the libint2 library for the computation of 2-el integrals
 For citations please refer to: http://libint.valeyev.net

 Your ORCA version has been built with support for libXC version: 5.1.0
 For citations please refer to: https://tddft.org/programs/libxc/

 This ORCA versions uses:
   CBLAS   interface :  Fast vector & matrix operations
   LAPACKE interface :  Fast linear algebra routines
   SCALAPACK package :  Parallel linear algebra routines
   Shared memory     :  Shared parallel matrices
   BLAS/LAPACK       :  OpenBLAS 0.3.15  USE64BITINT DYNAMIC_ARCH NO_AFFINITY Haswell SINGLE_THREADED
        Core in use  :  Haswell
   Copyright (c) 2011-2014, The OpenBLAS Project


Your calculation utilizes the atom-pairwise dispersion correction
with the Becke-Johnson damping scheme (D3BJ)
Cite in your paper:
S.Grimme, S.Ehrlich, L.Goerigk, J Comput Chem, (2011), 32, 1456–1465 
S.Grimme, J.Antony, S.Ehrlich and H.Krieg, J.Chem.Phys., 132, (2010), 154104 
   

================================================================================

----- Orbital basis set information -----
Your calculation utilizes the basis: def2-TZVP
   F. Weigend and R. Ahlrichs, Phys. Chem. Chem. Phys. 7, 3297 (2005).

----- AuxJ basis set information -----
Your calculation utilizes the auxiliary basis: def2/J
   F. Weigend, Phys. Chem. Chem. Phys. 8, 1057 (2006).

================================================================================
                                        WARNINGS
                       Please study these warnings very carefully!
================================================================================



WARNING: Found flag for RIJCOSX approximation but no HF exchange needed!
  ===> : RIJCOSX  will be disabled and Split-RI-J is turned on

INFO   : the flag for use of the SHARK integral package has been found!

================================================================================
                                       INPUT FILE
================================================================================
NAME = TZVP_BLYP_C2_wt_dlpno_pos.com
|  1> !BLYP D3BJ RIJCOSX def2-TZVP def2/J TightSCF
|  2> *xyz 0 1
|  3> C         -0.46129        2.23469       -4.98962
|  4> C          0.84888        2.66797       -4.30235
|  5> C         -0.42384        2.39877       -6.47432
|  6> N         -0.95947        3.49265       -7.00740
|  7> C          0.14558        1.48689       -7.20399
|  8> H          0.56537        0.69681       -6.72386
|  9> H          0.22068        1.58177       -8.20752
| 10> H         -1.40624        4.18151       -6.40326
| 11> H         -0.93421        3.68160       -7.99947
| 12> H         -1.28888        2.82674       -4.59500
| 13> H         -0.65170        1.18634       -4.75655
| 14> H          1.66208        2.08894       -4.68750
| 15> H          0.76716        2.51042       -3.24717
| 16> H          1.02677        3.70527       -4.49537
| 17> *
| 18> 
| 19> %MaxCore 64000
| 20> 
| 21> %pal nprocs 4
| 22> end  
| 23> 
| 24> %scf
| 25>   MaxIter 150
| 26> end
| 27> 
| 28> 
| 29>                          ****END OF INPUT****
================================================================================

                       ****************************
                       * Single Point Calculation *
                       ****************************

---------------------------------
CARTESIAN COORDINATES (ANGSTROEM)
---------------------------------
  C     -0.461290    2.234690   -4.989620
  C      0.848880    2.667970   -4.302350
  C     -0.423840    2.398770   -6.474320
  N     -0.959470    3.492650   -7.007400
  C      0.145580    1.486890   -7.203990
  H      0.565370    0.696810   -6.723860
  H      0.220680    1.581770   -8.207520
  H     -1.406240    4.181510   -6.403260
  H     -0.934210    3.681600   -7.999470
  H     -1.288880    2.826740   -4.595000
  H     -0.651700    1.186340   -4.756550
  H      1.662080    2.088940   -4.687500
  H      0.767160    2.510420   -3.247170
  H      1.026770    3.705270   -4.495370

----------------------------
CARTESIAN COORDINATES (A.U.)
----------------------------
  NO LB      ZA    FRAG     MASS         X           Y           Z
   0 C     6.0000    0    12.011   -0.871712    4.222952   -9.429015
   1 C     6.0000    0    12.011    1.604151    5.041733   -8.130263
   2 C     6.0000    0    12.011   -0.800942    4.533018  -12.234692
   3 N     7.0000    0    14.007   -1.813136    6.600152  -13.242067
   4 C     6.0000    0    12.011    0.275106    2.809815  -13.613568
   5 H     1.0000    0     1.008    1.068394    1.316780  -12.706254
   6 H     1.0000    0     1.008    0.417025    2.989112  -15.509965
   7 H     1.0000    0     1.008   -2.657408    7.901909  -12.100408
   8 H     1.0000    0     1.008   -1.765401    6.957216  -15.116808
   9 H     1.0000    0     1.008   -2.435630    5.341764   -8.683292
  10 H     1.0000    0     1.008   -1.231535    2.241858   -8.988577
  11 H     1.0000    0     1.008    3.140876    3.947525   -8.858091
  12 H     1.0000    0     1.008    1.449722    4.744006   -6.136262
  13 H     1.0000    0     1.008    1.940314    7.001946   -8.495018

--------------------------------
INTERNAL COORDINATES (ANGSTROEM)
--------------------------------
 C      0   0   0     0.000000000000     0.00000000     0.00000000
 C      1   0   0     1.541628048590     0.00000000     0.00000000
 C      1   2   0     1.494208432214   113.00477853     0.00000000
 N      3   1   2     1.329528953314   118.59744731   262.68979860
 C      3   1   2     1.299300804164   119.46747191    81.59837729
 H      5   3   1     1.015369325615   117.49938006   358.73919989
 H      5   3   1     1.010799033092   121.61652262   182.37359483
 H      4   3   1     1.019370723584   119.66554711   358.25297551
 H      4   3   1     1.010219310348   122.51799227   177.49192510
 H      1   2   3     1.091399722833   109.31618300   238.95470891
 H      1   2   3     1.090694877360   108.85919578   120.99623313
 H      2   1   3     1.070004908120   109.47108158   301.04531775
 H      2   1   3     1.070002333315   109.47176094   181.04538483
 H      2   1   3     1.069996664714   109.47140508    61.04483351

---------------------------
INTERNAL COORDINATES (A.U.)
---------------------------
 C      0   0   0     0.000000000000     0.00000000     0.00000000
 C      1   0   0     2.913254812207     0.00000000     0.00000000
 C      1   2   0     2.823644723881   113.00477853     0.00000000
 N      3   1   2     2.512445608882   118.59744731   262.68979860
 C      3   1   2     2.455322685453   119.46747191    81.59837729
 H      5   3   1     1.918769950197   117.49938006   358.73919989
 H      5   3   1     1.910133348977   121.61652262   182.37359483
 H      4   3   1     1.926331496511   119.66554711   358.25297551
 H      4   3   1     1.909037831757   122.51799227   177.49192510
 H      1   2   3     2.062446578792   109.31618300   238.95470891
 H      1   2   3     2.061114613882   108.85919578   120.99623313
 H      2   1   3     2.022016238298   109.47108158   301.04531775
 H      2   1   3     2.022011372622   109.47176094   181.04538483
 H      2   1   3     2.022000660519   109.47140508    61.04483351

---------------------
BASIS SET INFORMATION
---------------------
There are 3 groups of distinct atoms

 Group   1 Type C   : 11s6p2d1f contracted to 5s3p2d1f pattern {62111/411/11/1}
 Group   2 Type N   : 11s6p2d1f contracted to 5s3p2d1f pattern {62111/411/11/1}
 Group   3 Type H   : 5s1p contracted to 3s1p pattern {311/1}

Atom   0C    basis set group =>   1
Atom   1C    basis set group =>   1
Atom   2C    basis set group =>   1
Atom   3N    basis set group =>   2
Atom   4C    basis set group =>   1
Atom   5H    basis set group =>   3
Atom   6H    basis set group =>   3
Atom   7H    basis set group =>   3
Atom   8H    basis set group =>   3
Atom   9H    basis set group =>   3
Atom  10H    basis set group =>   3
Atom  11H    basis set group =>   3
Atom  12H    basis set group =>   3
Atom  13H    basis set group =>   3
---------------------------------
AUXILIARY/J BASIS SET INFORMATION
---------------------------------
There are 3 groups of distinct atoms

 Group   1 Type C   : 12s5p4d2f1g contracted to 6s4p3d1f1g pattern {711111/2111/211/2/1}
 Group   2 Type N   : 12s5p4d2f1g contracted to 6s4p3d1f1g pattern {711111/2111/211/2/1}
 Group   3 Type H   : 5s2p1d contracted to 3s1p1d pattern {311/2/1}

Atom   0C    basis set group =>   1
Atom   1C    basis set group =>   1
Atom   2C    basis set group =>   1
Atom   3N    basis set group =>   2
Atom   4C    basis set group =>   1
Atom   5H    basis set group =>   3
Atom   6H    basis set group =>   3
Atom   7H    basis set group =>   3
Atom   8H    basis set group =>   3
Atom   9H    basis set group =>   3
Atom  10H    basis set group =>   3
Atom  11H    basis set group =>   3
Atom  12H    basis set group =>   3
Atom  13H    basis set group =>   3


           ************************************************************
           *        Program running with 4 parallel MPI-processes     *
           *              working on a common directory               *
           ************************************************************
------------------------------------------------------------------------------
                           ORCA GTO INTEGRAL CALCULATION
                           -- RI-GTO INTEGRALS CHOSEN --
------------------------------------------------------------------------------
------------------------------------------------------------------------------
                   ___                                                        
                  /   \      - P O W E R E D   B Y -                         
                 /     \                                                     
                 |  |  |   _    _      __       _____    __    __             
                 |  |  |  | |  | |    /  \     |  _  \  |  |  /  |          
                  \  \/   | |  | |   /    \    | | | |  |  | /  /          
                 / \  \   | |__| |  /  /\  \   | |_| |  |  |/  /          
                |  |  |   |  __  | /  /__\  \  |    /   |      \           
                |  |  |   | |  | | |   __   |  |    \   |  |\   \          
                \     /   | |  | | |  |  |  |  | |\  \  |  | \   \       
                 \___/    |_|  |_| |__|  |__|  |_| \__\ |__|  \__/        
                                                                              
                      - O R C A' S   B I G   F R I E N D -                    
                                      &                                       
                       - I N T E G R A L  F E E D E R -                       
                                                                              
 v1 FN, 2020, v2 2021                                                         
------------------------------------------------------------------------------


Reading SHARK input file TZVP_BLYP_C2_wt_dlpno_pos.SHARKINP.tmp ... ok
----------------------
SHARK INTEGRAL PACKAGE
----------------------

Number of atoms                             ...     14
Number of basis functions                   ...    209
Number of shells                            ...     91
Maximum angular momentum                    ...      3
Integral batch strategy                     ... SHARK/LIBINT Hybrid
RI-J (if used) integral strategy            ... SPLIT-RIJ (Revised 2003 algorithm where possible)
Printlevel                                  ...      1
Contraction scheme used                     ... SEGMENTED contraction
Coulomb Range Separation                    ... NOT USED
Exchange Range Separation                   ... NOT USED
Finite Nucleus Model                        ... NOT USED
Auxiliary Coulomb fitting basis             ... AVAILABLE
   # of basis functions in Aux-J            ...    344
   # of shells in Aux-J                     ...    120
   Maximum angular momentum in Aux-J        ...      4
Auxiliary J/K fitting basis                 ... NOT available
Auxiliary Correlation fitting basis         ... NOT available
Auxiliary 'external' fitting basis          ... NOT available
Integral threshold                          ...     2.500000e-11
Primitive cut-off                           ...     2.500000e-12
Primitive pair pre-selection threshold      ...     2.500000e-12

Calculating pre-screening integrals         ... done (  0.1 sec) Dimension = 91
Organizing shell pair data                  ... done (  0.0 sec)
Shell pair information
Total number of shell pairs                 ...      4186
Shell pairs after pre-screening             ...      4039
Total number of primitive shell pairs       ...     12072
Primitive shell pairs kept                  ...      9305
          la=0 lb=0:   1295 shell pairs
          la=1 lb=0:   1203 shell pairs
          la=1 lb=1:    297 shell pairs
          la=2 lb=0:    508 shell pairs
          la=2 lb=1:    239 shell pairs
          la=2 lb=2:     55 shell pairs
          la=3 lb=0:    257 shell pairs
          la=3 lb=1:    120 shell pairs
          la=3 lb=2:     50 shell pairs
          la=3 lb=3:     15 shell pairs

Calculating one electron integrals          ... done (  0.0 sec)
Calculating RI/J V-Matrix + Cholesky decomp.... done (  0.0 sec)
Calculating Nuclear repulsion               ... done (  0.0 sec) ENN=    181.204745507213 Eh

SHARK setup successfully completed in   0.2 seconds

Maximum memory used throughout the entire GTOINT-calculation: 13.9 MB


           ************************************************************
           *        Program running with 4 parallel MPI-processes     *
           *              working on a common directory               *
           ************************************************************
-------------------------------------------------------------------------------
                                 ORCA SCF
-------------------------------------------------------------------------------

------------
SCF SETTINGS
------------
Hamiltonian:
 Density Functional     Method          .... DFT(GTOs)
 Exchange Functional    Exchange        .... B88
   X-Alpha parameter    XAlpha          ....  0.666667
   Becke's b parameter  XBeta           ....  0.004200
 Correlation Functional Correlation     .... LYP
 Gradients option       PostSCFGGA      .... off
   Density functional embedding theory  .... OFF
   NL short-range parameter             ....  4.000000
 RI-approximation to the Coulomb term is turned on
   Number of AuxJ basis functions       .... 344


General Settings:
 Integral files         IntName         .... TZVP_BLYP_C2_wt_dlpno_pos
 Hartree-Fock type      HFTyp           .... RHF
 Total Charge           Charge          ....    0
 Multiplicity           Mult            ....    1
 Number of Electrons    NEL             ....   40
 Basis Dimension        Dim             ....  209
 Nuclear Repulsion      ENuc            ....    181.2047455072 Eh

Convergence Acceleration:
 DIIS                   CNVDIIS         .... on
   Start iteration      DIISMaxIt       ....    12
   Startup error        DIISStart       ....  0.200000
   # of expansion vecs  DIISMaxEq       ....     5
   Bias factor          DIISBfac        ....   1.050
   Max. coefficient     DIISMaxC        ....  10.000
 Trust-Rad. Augm. Hess. CNVTRAH         .... auto
   Auto Start mean grad. ratio tolernc. ....  1.125000
   Auto Start start iteration           ....    20
   Auto Start num. interpolation iter.  ....    10
   Max. Number of Micro iterations      ....    16
   Max. Number of Macro iterations      .... Maxiter - #DIIS iter
   Number of Davidson start vectors     ....     2
   Converg. threshold I  (grad. norm)   ....   1.000e-05
   Converg. threshold II (energy diff.) ....   1.000e-08
   Grad. Scal. Fac. for Micro threshold ....   0.100
   Minimum threshold for Micro iter.    ....   0.010
   NR start threshold (gradient norm)   ....   0.001
   Initial trust radius                 ....   0.400
   Minimum AH scaling param. (alpha)    ....   1.000
   Maximum AH scaling param. (alpha)    .... 1000.000
   Orbital update algorithm             .... Taylor
   White noise on init. David. guess    .... on
   Maximum white noise                  ....   0.010
   Quad. conv. algorithm                .... NR
 SOSCF                  CNVSOSCF        .... on
   Start iteration      SOSCFMaxIt      ....   150
   Startup grad/error   SOSCFStart      ....  0.003300
 Level Shifting         CNVShift        .... on
   Level shift para.    LevelShift      ....    0.2500
   Turn off err/grad.   ShiftErr        ....    0.0010
 Zerner damping         CNVZerner       .... off
 Static damping         CNVDamp         .... on
   Fraction old density DampFac         ....    0.7000
   Max. Damping (<1)    DampMax         ....    0.9800
   Min. Damping (>=0)   DampMin         ....    0.0000
   Turn off err/grad.   DampErr         ....    0.1000
 Fernandez-Rico         CNVRico         .... off

SCF Procedure:
 Maximum # iterations   MaxIter         ....   150
 SCF integral mode      SCFMode         .... Direct
   Integral package                     .... SHARK and LIBINT hybrid scheme
 Reset frequency        DirectResetFreq ....    20
 Integral Threshold     Thresh          ....  2.500e-11 Eh
 Primitive CutOff       TCut            ....  2.500e-12 Eh

Convergence Tolerance:
 Convergence Check Mode ConvCheckMode   .... Total+1el-Energy
 Convergence forced     ConvForced      .... 0
 Energy Change          TolE            ....  1.000e-08 Eh
 1-El. energy change                    ....  1.000e-05 Eh
 Orbital Gradient       TolG            ....  1.000e-05
 Orbital Rotation angle TolX            ....  1.000e-05
 DIIS Error             TolErr          ....  5.000e-07


Diagonalization of the overlap matrix:
Smallest eigenvalue                        ... 1.004e-04
Time for diagonalization                   ...    0.012 sec
Threshold for overlap eigenvalues          ... 1.000e-08
Number of eigenvalues below threshold      ... 0
Time for construction of square roots      ...    0.008 sec
Total time needed                          ...    0.021 sec

Time for model grid setup =    0.084 sec

------------------------------
INITIAL GUESS: MODEL POTENTIAL
------------------------------
Loading Hartree-Fock densities                     ... done
Calculating cut-offs                               ... done
Initializing the effective Hamiltonian             ... done
Setting up the integral package (SHARK)            ... done
Starting the Coulomb interaction                   ... done (   0.1 sec)
Reading the grid                                   ... done
Mapping shells                                     ... done
Starting the XC term evaluation                    ... done (   0.1 sec)
  promolecular density results
     # of electrons  =     39.999546116
     EX              =    -29.878265468
     EC              =     -1.293546191
     EX+EC           =    -31.171811659
Transforming the Hamiltonian                       ... done (   0.0 sec)
Diagonalizing the Hamiltonian                      ... done (   0.0 sec)
Back transforming the eigenvectors                 ... done (   0.0 sec)
Now organizing SCF variables                       ... done
                      ------------------
                      INITIAL GUESS DONE (   0.3 sec)
                      ------------------
-------------------
DFT GRID GENERATION
-------------------

General Integration Accuracy     IntAcc      ... 4.388
Radial Grid Type                 RadialGrid  ... OptM3 with GC (2021)
Angular Grid (max. ang.)         AngularGrid ... 4 (Lebedev-302)
Angular grid pruning method      GridPruning ... 4 (adaptive)
Weight generation scheme         WeightScheme... Becke
Basis function cutoff            BFCut       ... 1.0000e-11
Integration weight cutoff        WCut        ... 1.0000e-14
Angular grids for H and He will be reduced by one unit
Partially contracted basis set               ... off
Rotationally invariant grid construction     ... off

Total number of grid points                  ...    59194
Total number of batches                      ...      932
Average number of points per batch           ...       63
Average number of grid points per atom       ...     4228
Time for grid setup =    0.399 sec

--------------
SCF ITERATIONS
--------------
ITER       Energy         Delta-E        Max-DP      RMS-DP      [F,P]     Damp
               ***  Starting incremental Fock matrix formation  ***
  0   -212.2505324470   0.000000000000 0.06443646  0.00164222  0.2499199 0.7000
  1   -212.3910623777  -0.140529930677 0.04485974  0.00125296  0.1056074 0.7000
                               ***Turning on DIIS***
  2   -212.4380331613  -0.046970783649 0.04753403  0.00194206  0.0282622 0.0000
  3   -212.5039249829  -0.065891821620 0.03217609  0.00087308  0.0748270 0.0000
  4   -212.5278437436  -0.023918760629 0.01072656  0.00037587  0.0199330 0.0000
  5   -212.5296454453  -0.001801701699 0.00493351  0.00018418  0.0081005 0.0000
                      *** Initiating the SOSCF procedure ***
                           *** Shutting down DIIS ***
                      *** Re-Reading the Fockian *** 
                      *** Removing any level shift *** 
ITER      Energy       Delta-E        Grad      Rot      Max-DP    RMS-DP
  6   -212.52981043  -0.0001649813  0.000478  0.000478  0.002201  0.000080
               *** Restarting incremental Fock matrix formation ***
  7   -212.52982438  -0.0000139509  0.000208  0.001176  0.002681  0.000069
  8   -212.52982514  -0.0000007612  0.000257  0.000485  0.000939  0.000024
  9   -212.52982524  -0.0000001006  0.000139  0.000265  0.001062  0.000027
 10   -212.52982575  -0.0000005069  0.000027  0.000040  0.000130  0.000004
 11   -212.52982577  -0.0000000193  0.000020  0.000033  0.000159  0.000004
 12   -212.52982579  -0.0000000285  0.000007  0.000016  0.000032  0.000001
 13   -212.52982579   0.0000000002  0.000005  0.000008  0.000024  0.000001
                  ***Gradient check signals convergence***
              ***Rediagonalizing the Fockian in SOSCF/NRSCF***

               *****************************************************
               *                     SUCCESS                       *
               *           SCF CONVERGED AFTER  14 CYCLES          *
               *****************************************************


----------------
TOTAL SCF ENERGY
----------------

Total Energy       :         -212.52982580 Eh           -5783.23057 eV

Components:
Nuclear Repulsion  :          181.20474551 Eh            4930.83180 eV
Electronic Energy  :         -393.73457130 Eh          -10714.06238 eV
One Electron Energy:         -644.15097704 Eh          -17528.23920 eV
Two Electron Energy:          250.41640573 Eh            6814.17683 eV

Virial components:
Potential Energy   :         -424.91527525 Eh          -11562.53247 eV
Kinetic Energy     :          212.38544946 Eh            5779.30189 eV
Virial Ratio       :            2.00067978


DFT components:
N(Alpha)           :       19.999994508585 electrons
N(Beta)            :       19.999994508585 electrons
N(Total)           :       39.999989017171 electrons
E(X)               :      -30.756886470008 Eh       
E(C)               :       -1.307952234224 Eh       
E(XC)              :      -32.064838704232 Eh       
DFET-embed. en.    :        0.000000000000 Eh       

---------------
SCF CONVERGENCE
---------------

  Last Energy change         ...   -2.3379e-09  Tolerance :   1.0000e-08
  Last MAX-Density change    ...    7.2033e-06  Tolerance :   1.0000e-07
  Last RMS-Density change    ...    2.0314e-07  Tolerance :   5.0000e-09
  Last Orbital Gradient      ...    1.3318e-06  Tolerance :   1.0000e-05
  Last Orbital Rotation      ...    3.6861e-06  Tolerance :   1.0000e-05

             **** THE GBW FILE WAS UPDATED (TZVP_BLYP_C2_wt_dlpno_pos.gbw) ****
             **** DENSITY TZVP_BLYP_C2_wt_dlpno_pos.scfp WAS UPDATED ****
             **** ENERGY FILE WAS UPDATED (TZVP_BLYP_C2_wt_dlpno_pos.en.tmp) ****
             **** THE GBW FILE WAS UPDATED (TZVP_BLYP_C2_wt_dlpno_pos.gbw) ****
             **** DENSITY TZVP_BLYP_C2_wt_dlpno_pos.scfp WAS UPDATED ****
----------------
ORBITAL ENERGIES
----------------

  NO   OCC          E(Eh)            E(eV) 
   0   2.0000     -14.003577      -381.0567 
   1   2.0000      -9.915565      -269.8162 
   2   2.0000      -9.901636      -269.4372 
   3   2.0000      -9.886552      -269.0268 
   4   2.0000      -9.831695      -267.5340 
   5   2.0000      -0.835098       -22.7242 
   6   2.0000      -0.699565       -19.0361 
   7   2.0000      -0.639804       -17.4100 
   8   2.0000      -0.567237       -15.4353 
   9   2.0000      -0.503643       -13.7048 
  10   2.0000      -0.464667       -12.6442 
  11   2.0000      -0.425976       -11.5914 
  12   2.0000      -0.387272       -10.5382 
  13   2.0000      -0.363522        -9.8919 
  14   2.0000      -0.342575        -9.3219 
  15   2.0000      -0.333127        -9.0648 
  16   2.0000      -0.304721        -8.2919 
  17   2.0000      -0.292325        -7.9546 
  18   2.0000      -0.279620        -7.6088 
  19   2.0000      -0.153310        -4.1718 
  20   0.0000       0.003460         0.0941 
  21   0.0000       0.023212         0.6316 
  22   0.0000       0.046455         1.2641 
  23   0.0000       0.053551         1.4572 
  24   0.0000       0.069911         1.9024 
  25   0.0000       0.080812         2.1990 
  26   0.0000       0.095240         2.5916 
  27   0.0000       0.112116         3.0508 
  28   0.0000       0.123301         3.3552 
  29   0.0000       0.129557         3.5254 
  30   0.0000       0.148104         4.0301 
  31   0.0000       0.156710         4.2643 
  32   0.0000       0.169211         4.6045 
  33   0.0000       0.202862         5.5201 
  34   0.0000       0.212526         5.7831 
  35   0.0000       0.236135         6.4255 
  36   0.0000       0.242793         6.6067 
  37   0.0000       0.261663         7.1202 
  38   0.0000       0.287442         7.8217 
  39   0.0000       0.301500         8.2042 
  40   0.0000       0.305234         8.3058 
  41   0.0000       0.323039         8.7903 
  42   0.0000       0.335311         9.1243 
  43   0.0000       0.360785         9.8175 
  44   0.0000       0.365568         9.9476 
  45   0.0000       0.380619        10.3572 
  46   0.0000       0.396874        10.7995 
  47   0.0000       0.407619        11.0919 
  48   0.0000       0.419495        11.4150 
  49   0.0000       0.425100        11.5676 
  50   0.0000       0.436588        11.8802 
  51   0.0000       0.445237        12.1155 
  52   0.0000       0.456097        12.4110 
  53   0.0000       0.469635        12.7794 
  54   0.0000       0.490070        13.3355 
  55   0.0000       0.501466        13.6456 
  56   0.0000       0.522383        14.2148 
  57   0.0000       0.542687        14.7673 
  58   0.0000       0.577036        15.7019 
  59   0.0000       0.586380        15.9562 
  60   0.0000       0.633760        17.2455 
  61   0.0000       0.652204        17.7474 
  62   0.0000       0.667119        18.1532 
  63   0.0000       0.708688        19.2844 
  64   0.0000       0.754980        20.5440 
  65   0.0000       0.780368        21.2349 
  66   0.0000       0.796583        21.6761 
  67   0.0000       0.847454        23.0604 
  68   0.0000       0.862082        23.4584 
  69   0.0000       0.881093        23.9757 
  70   0.0000       0.912177        24.8216 
  71   0.0000       0.938910        25.5490 
  72   0.0000       0.962392        26.1880 
  73   0.0000       0.983863        26.7723 
  74   0.0000       1.018571        27.7167 
  75   0.0000       1.045671        28.4542 
  76   0.0000       1.070094        29.1187 
  77   0.0000       1.081565        29.4309 
  78   0.0000       1.117622        30.4121 
  79   0.0000       1.135341        30.8942 
  80   0.0000       1.170239        31.8438 
  81   0.0000       1.199428        32.6381 
  82   0.0000       1.294162        35.2159 
  83   0.0000       1.300198        35.3802 
  84   0.0000       1.315517        35.7970 
  85   0.0000       1.401590        38.1392 
  86   0.0000       1.432531        38.9812 
  87   0.0000       1.436160        39.0799 
  88   0.0000       1.438692        39.1488 
  89   0.0000       1.464955        39.8634 
  90   0.0000       1.482614        40.3440 
  91   0.0000       1.501485        40.8575 
  92   0.0000       1.510103        41.0920 
  93   0.0000       1.529382        41.6166 
  94   0.0000       1.538914        41.8760 
  95   0.0000       1.552626        42.2491 
  96   0.0000       1.562918        42.5292 
  97   0.0000       1.614112        43.9222 
  98   0.0000       1.647901        44.8417 
  99   0.0000       1.658263        45.1236 
 100   0.0000       1.698059        46.2065 
 101   0.0000       1.721056        46.8323 
 102   0.0000       1.764132        48.0045 
 103   0.0000       1.767530        48.0969 
 104   0.0000       1.798975        48.9526 
 105   0.0000       1.827395        49.7260 
 106   0.0000       1.834454        49.9180 
 107   0.0000       1.870149        50.8894 
 108   0.0000       1.883580        51.2548 
 109   0.0000       1.920929        52.2711 
 110   0.0000       2.007861        54.6367 
 111   0.0000       2.023855        55.0719 
 112   0.0000       2.034452        55.3602 
 113   0.0000       2.073328        56.4181 
 114   0.0000       2.114041        57.5260 
 115   0.0000       2.150666        58.5226 
 116   0.0000       2.211634        60.1816 
 117   0.0000       2.231054        60.7101 
 118   0.0000       2.265237        61.6402 
 119   0.0000       2.272656        61.8421 
 120   0.0000       2.304125        62.6984 
 121   0.0000       2.335393        63.5493 
 122   0.0000       2.363527        64.3148 
 123   0.0000       2.389164        65.0124 
 124   0.0000       2.421151        65.8829 
 125   0.0000       2.435024        66.2604 
 126   0.0000       2.485898        67.6447 
 127   0.0000       2.496022        67.9202 
 128   0.0000       2.527051        68.7646 
 129   0.0000       2.532399        68.9101 
 130   0.0000       2.549354        69.3715 
 131   0.0000       2.560481        69.6742 
 132   0.0000       2.595618        70.6304 
 133   0.0000       2.625615        71.4466 
 134   0.0000       2.640576        71.8537 
 135   0.0000       2.662658        72.4546 
 136   0.0000       2.708069        73.6903 
 137   0.0000       2.713048        73.8258 
 138   0.0000       2.770123        75.3789 
 139   0.0000       2.799828        76.1872 
 140   0.0000       2.829776        77.0021 
 141   0.0000       2.849693        77.5441 
 142   0.0000       2.884153        78.4818 
 143   0.0000       2.936630        79.9098 
 144   0.0000       2.967073        80.7382 
 145   0.0000       2.988967        81.3339 
 146   0.0000       3.013643        82.0054 
 147   0.0000       3.038536        82.6828 
 148   0.0000       3.051710        83.0412 
 149   0.0000       3.086707        83.9936 
 150   0.0000       3.108057        84.5745 
 151   0.0000       3.140665        85.4618 
 152   0.0000       3.161804        86.0371 
 153   0.0000       3.172204        86.3201 
 154   0.0000       3.224769        87.7504 
 155   0.0000       3.244885        88.2978 
 156   0.0000       3.266625        88.8894 
 157   0.0000       3.277076        89.1738 
 158   0.0000       3.293226        89.6132 
 159   0.0000       3.332260        90.6754 
 160   0.0000       3.353520        91.2539 
 161   0.0000       3.385819        92.1328 
 162   0.0000       3.398352        92.4738 
 163   0.0000       3.427749        93.2738 
 164   0.0000       3.462821        94.2281 
 165   0.0000       3.484934        94.8299 
 166   0.0000       3.511701        95.5582 
 167   0.0000       3.579277        97.3971 
 168   0.0000       3.604418        98.0812 
 169   0.0000       3.633220        98.8649 
 170   0.0000       3.705401       100.8291 
 171   0.0000       3.756684       102.2246 
 172   0.0000       3.775446       102.7351 
 173   0.0000       3.818694       103.9120 
 174   0.0000       3.871090       105.3377 
 175   0.0000       3.880775       105.6013 
 176   0.0000       3.975018       108.1657 
 177   0.0000       3.990421       108.5849 
 178   0.0000       4.063220       110.5658 
 179   0.0000       4.115293       111.9828 
 180   0.0000       4.155980       113.0900 
 181   0.0000       4.248839       115.6168 
 182   0.0000       4.272123       116.2504 
 183   0.0000       4.334993       117.9612 
 184   0.0000       4.357513       118.5740 
 185   0.0000       4.404848       119.8620 
 186   0.0000       4.410966       120.0285 
 187   0.0000       4.446569       120.9973 
 188   0.0000       4.494417       122.2993 
 189   0.0000       4.553590       123.9095 
 190   0.0000       4.605859       125.3318 
 191   0.0000       4.695963       127.7836 
 192   0.0000       4.716382       128.3393 
 193   0.0000       4.771361       129.8353 
 194   0.0000       4.833340       131.5219 
 195   0.0000       4.869273       132.4997 
 196   0.0000       4.959937       134.9667 
 197   0.0000       5.097261       138.7035 
 198   0.0000       5.135906       139.7551 
 199   0.0000       5.199533       141.4865 
 200   0.0000       5.285373       143.8223 
 201   0.0000       5.419970       147.4849 
 202   0.0000       5.649904       153.7417 
 203   0.0000       5.919801       161.0860 
 204   0.0000      22.086930       601.0159 
 205   0.0000      22.201096       604.1225 
 206   0.0000      22.310064       607.0877 
 207   0.0000      22.991233       625.6233 
 208   0.0000      31.692988       862.4101 

                    ********************************
                    * MULLIKEN POPULATION ANALYSIS *
                    ********************************

-----------------------
MULLIKEN ATOMIC CHARGES
-----------------------
   0 C :   -0.186614
   1 C :   -0.279886
   2 C :    0.285411
   3 N :   -0.410828
   4 C :   -0.396874
   5 H :    0.074188
   6 H :    0.066274
   7 H :    0.201809
   8 H :    0.202384
   9 H :    0.059470
  10 H :    0.096057
  11 H :    0.104533
  12 H :    0.093797
  13 H :    0.090277
Sum of atomic charges:   -0.0000000

--------------------------------
MULLIKEN REDUCED ORBITAL CHARGES
--------------------------------
  0 C s       :     3.261111  s :     3.261111
      pz      :     0.884162  p :     2.840471
      px      :     0.942923
      py      :     1.013386
      dz2     :     0.020723  d :     0.079307
      dxz     :     0.022982
      dyz     :     0.011986
      dx2y2   :     0.010556
      dxy     :     0.013059
      f0      :     0.001185  f :     0.005726
      f+1     :     0.001443
      f-1     :     0.000975
      f+2     :     0.000340
      f-2     :     0.000328
      f+3     :     0.000591
      f-3     :     0.000864
  1 C s       :     3.267321  s :     3.267321
      pz      :     1.003279  p :     2.969791
      px      :     0.942029
      py      :     1.024483
      dz2     :     0.013260  d :     0.039330
      dxz     :     0.005440
      dyz     :     0.000432
      dx2y2   :     0.009358
      dxy     :     0.010840
      f0      :     0.000847  f :     0.003444
      f+1     :     0.000670
      f-1     :     0.000117
      f+2     :     0.000215
      f-2     :     0.000202
      f+3     :     0.000544
      f-3     :     0.000849
  2 C s       :     3.098376  s :     3.098376
      pz      :     0.826542  p :     2.464792
      px      :     0.855257
      py      :     0.782993
      dz2     :     0.027501  d :     0.137802
      dxz     :     0.022530
      dyz     :     0.025105
      dx2y2   :     0.038200
      dxy     :     0.024466
      f0      :     0.001462  f :     0.013618
      f+1     :     0.001756
      f-1     :     0.003247
      f+2     :     0.002083
      f-2     :     0.001368
      f+3     :     0.001335
      f-3     :     0.002368
  3 N s       :     3.435803  s :     3.435803
      pz      :     1.093022  p :     3.940595
      px      :     1.594897
      py      :     1.252676
      dz2     :     0.006534  d :     0.031086
      dxz     :     0.002593
      dyz     :     0.007464
      dx2y2   :     0.007655
      dxy     :     0.006840
      f0      :     0.000594  f :     0.003344
      f+1     :     0.000219
      f-1     :     0.000545
      f+2     :     0.000239
      f-2     :     0.000519
      f+3     :     0.000582
      f-3     :     0.000646
  4 C s       :     3.260765  s :     3.260765
      pz      :     0.962842  p :     3.098779
      px      :     1.121713
      py      :     1.014223
      dz2     :     0.009288  d :     0.032332
      dxz     :     0.003688
      dyz     :     0.003248
      dx2y2   :     0.008116
      dxy     :     0.007991
      f0      :     0.001032  f :     0.004999
      f+1     :     0.000459
      f-1     :     0.000852
      f+2     :     0.000542
      f-2     :     0.000383
      f+3     :     0.000625
      f-3     :     0.001106
  5 H s       :     0.900568  s :     0.900568
      pz      :     0.005915  p :     0.025243
      px      :     0.008791
      py      :     0.010537
  6 H s       :     0.909116  s :     0.909116
      pz      :     0.012112  p :     0.024610
      px      :     0.007224
      py      :     0.005275
  7 H s       :     0.760550  s :     0.760550
      pz      :     0.009725  p :     0.037641
      px      :     0.014130
      py      :     0.013785
  8 H s       :     0.759727  s :     0.759727
      pz      :     0.019179  p :     0.037889
      px      :     0.011072
      py      :     0.007637
  9 H s       :     0.918810  s :     0.918810
      pz      :     0.005966  p :     0.021721
      px      :     0.009497
      py      :     0.006258
 10 H s       :     0.882287  s :     0.882287
      pz      :     0.004875  p :     0.021655
      px      :     0.004954
      py      :     0.011827
 11 H s       :     0.873530  s :     0.873530
      pz      :     0.005749  p :     0.021937
      px      :     0.009496
      py      :     0.006692
 12 H s       :     0.884361  s :     0.884361
      pz      :     0.012062  p :     0.021842
      px      :     0.004912
      py      :     0.004869
 13 H s       :     0.887818  s :     0.887818
      pz      :     0.005026  p :     0.021905
      px      :     0.005283
      py      :     0.011595


                     *******************************
                     * LOEWDIN POPULATION ANALYSIS *
                     *******************************

----------------------
LOEWDIN ATOMIC CHARGES
----------------------
   0 C :   -0.231691
   1 C :   -0.284097
   2 C :   -0.365906
   3 N :    0.003892
   4 C :   -0.266341
   5 H :    0.108115
   6 H :    0.096230
   7 H :    0.164535
   8 H :    0.164114
   9 H :    0.129061
  10 H :    0.143846
  11 H :    0.115563
  12 H :    0.110432
  13 H :    0.112247

-------------------------------
LOEWDIN REDUCED ORBITAL CHARGES
-------------------------------
  0 C s       :     2.772893  s :     2.772893
      pz      :     0.994550  p :     3.037062
      px      :     1.016931
      py      :     1.025581
      dz2     :     0.097607  d :     0.382006
      dxz     :     0.097140
      dyz     :     0.059612
      dx2y2   :     0.064155
      dxy     :     0.063492
      f0      :     0.006037  f :     0.039729
      f+1     :     0.008762
      f-1     :     0.007358
      f+2     :     0.004298
      f-2     :     0.005272
      f+3     :     0.003120
      f-3     :     0.004883
  1 C s       :     2.826971  s :     2.826971
      pz      :     1.053776  p :     3.178654
      px      :     1.049424
      py      :     1.075454
      dz2     :     0.079139  d :     0.252756
      dxz     :     0.040995
      dyz     :     0.012211
      dx2y2   :     0.060749
      dxy     :     0.059663
      f0      :     0.003542  f :     0.025717
      f+1     :     0.003572
      f-1     :     0.002019
      f+2     :     0.003923
      f-2     :     0.004882
      f+3     :     0.002922
      f-3     :     0.004857
  2 C s       :     2.710666  s :     2.710666
      pz      :     1.012306  p :     2.861773
      px      :     0.881741
      py      :     0.967725
      dz2     :     0.158553  d :     0.701639
      dxz     :     0.100430
      dyz     :     0.157935
      dx2y2   :     0.162488
      dxy     :     0.122233
      f0      :     0.009109  f :     0.091829
      f+1     :     0.011084
      f-1     :     0.023020
      f+2     :     0.015818
      f-2     :     0.013013
      f+3     :     0.010096
      f-3     :     0.009690
  3 N s       :     2.964294  s :     2.964294
      pz      :     1.131800  p :     3.862031
      px      :     1.472378
      py      :     1.257853
      dz2     :     0.041757  d :     0.158093
      dxz     :     0.014154
      dyz     :     0.047969
      dx2y2   :     0.025694
      dxy     :     0.028519
      f0      :     0.001535  f :     0.011690
      f+1     :     0.000791
      f-1     :     0.002301
      f+2     :     0.001194
      f-2     :     0.001766
      f+3     :     0.002032
      f-3     :     0.002071
  4 C s       :     2.795430  s :     2.795430
      pz      :     1.030309  p :     3.200038
      px      :     1.097037
      py      :     1.072692
      dz2     :     0.087478  d :     0.237911
      dxz     :     0.027906
      dyz     :     0.052674
      dx2y2   :     0.030661
      dxy     :     0.039191
      f0      :     0.005136  f :     0.032962
      f+1     :     0.002511
      f-1     :     0.006929
      f+2     :     0.004698
      f-2     :     0.005991
      f+3     :     0.004571
      f-3     :     0.003126
  5 H s       :     0.817573  s :     0.817573
      pz      :     0.020618  p :     0.074311
      px      :     0.025105
      py      :     0.028589
  6 H s       :     0.828769  s :     0.828769
      pz      :     0.034982  p :     0.075001
      px      :     0.021952
      py      :     0.018067
  7 H s       :     0.730357  s :     0.730357
      pz      :     0.030527  p :     0.105108
      px      :     0.038591
      py      :     0.035990
  8 H s       :     0.729300  s :     0.729300
      pz      :     0.054492  p :     0.106586
      px      :     0.031114
      py      :     0.020980
  9 H s       :     0.813008  s :     0.813008
      pz      :     0.015207  p :     0.057931
      px      :     0.023915
      py      :     0.018809
 10 H s       :     0.798341  s :     0.798341
      pz      :     0.012788  p :     0.057813
      px      :     0.013552
      py      :     0.031472
 11 H s       :     0.820241  s :     0.820241
      pz      :     0.017320  p :     0.064197
      px      :     0.026205
      py      :     0.020672
 12 H s       :     0.825744  s :     0.825744
      pz      :     0.034166  p :     0.063823
      px      :     0.014521
      py      :     0.015136
 13 H s       :     0.823932  s :     0.823932
      pz      :     0.015160  p :     0.063822
      px      :     0.015044
      py      :     0.033617


                      *****************************
                      * MAYER POPULATION ANALYSIS *
                      *****************************

  NA   - Mulliken gross atomic population
  ZA   - Total nuclear charge
  QA   - Mulliken gross atomic charge
  VA   - Mayer's total valence
  BVA  - Mayer's bonded valence
  FA   - Mayer's free valence

  ATOM       NA         ZA         QA         VA         BVA        FA
  0 C      6.1866     6.0000    -0.1866     3.8800     3.8800    -0.0000
  1 C      6.2799     6.0000    -0.2799     3.8315     3.8315     0.0000
  2 C      5.7146     6.0000     0.2854     3.7923     3.7923    -0.0000
  3 N      7.4108     7.0000    -0.4108     3.1282     3.1282     0.0000
  4 C      6.3969     6.0000    -0.3969     3.8661     3.8661    -0.0000
  5 H      0.9258     1.0000     0.0742     0.9957     0.9957    -0.0000
  6 H      0.9337     1.0000     0.0663     0.9944     0.9944    -0.0000
  7 H      0.7982     1.0000     0.2018     0.9656     0.9656     0.0000
  8 H      0.7976     1.0000     0.2024     0.9672     0.9672     0.0000
  9 H      0.9405     1.0000     0.0595     0.9764     0.9764    -0.0000
 10 H      0.9039     1.0000     0.0961     0.9748     0.9748    -0.0000
 11 H      0.8955     1.0000     0.1045     0.9843     0.9843    -0.0000
 12 H      0.9062     1.0000     0.0938     0.9698     0.9698     0.0000
 13 H      0.9097     1.0000     0.0903     0.9784     0.9784    -0.0000

  Mayer bond orders larger than 0.100000
B(  0-C ,  1-C ) :   0.9491 B(  0-C ,  2-C ) :   0.9411 B(  0-C ,  9-H ) :   0.9667 
B(  0-C , 10-H ) :   0.9788 B(  1-C , 11-H ) :   0.9765 B(  1-C , 12-H ) :   0.9706 
B(  1-C , 13-H ) :   0.9757 B(  2-C ,  3-N ) :   1.1546 B(  2-C ,  4-C ) :   1.7322 
B(  3-N ,  7-H ) :   0.9288 B(  3-N ,  8-H ) :   0.9238 B(  4-C ,  5-H ) :   0.9951 
B(  4-C ,  6-H ) :   0.9871 

-------
TIMINGS
-------

Total SCF time: 0 days 0 hours 0 min 6 sec 

Total time                  ....       6.496 sec
Sum of individual times     ....       6.303 sec  ( 97.0%)

Fock matrix formation       ....       5.453 sec  ( 83.9%)
  Split-RI-J                ....       1.471 sec  ( 27.0% of F)
  XC integration            ....       3.935 sec  ( 72.2% of F)
    Basis function eval.    ....       1.328 sec  ( 33.7% of XC)
    Density eval.           ....       0.959 sec  ( 24.4% of XC)
    XC-Functional eval.     ....       0.160 sec  (  4.1% of XC)
    XC-Potential eval.      ....       1.230 sec  ( 31.3% of XC)
Diagonalization             ....       0.078 sec  (  1.2%)
Density matrix formation    ....       0.006 sec  (  0.1%)
Population analysis         ....       0.011 sec  (  0.2%)
Initial guess               ....       0.167 sec  (  2.6%)
Orbital Transformation      ....       0.000 sec  (  0.0%)
Orbital Orthonormalization  ....       0.000 sec  (  0.0%)
DIIS solution               ....       0.044 sec  (  0.7%)
SOSCF solution              ....       0.062 sec  (  1.0%)
Grid generation             ....       0.483 sec  (  7.4%)

Maximum memory used throughout the entire SCF-calculation: 22.5 MB


-------------------------------------------------------------------------------
                          DFT DISPERSION CORRECTION                            
                                                                               
                              DFTD3 V3.1  Rev 1                                
                          USING Becke-Johnson damping                          
-------------------------------------------------------------------------------
The BLYP functional is recognized
Active option DFTDOPT                   ...         4   

molecular C6(AA) [au] = 1468.605744 


            DFT-D V3
 parameters
 s6 scaling factor         :     1.0000 
 a1 scaling factor         :     0.4298 
 s8 scaling factor         :     2.6996 
 a2 scaling factor         :     4.2359 
 ad hoc parameters k1-k3   :    16.0000     1.3333    -4.0000 

 Edisp/kcal,au: -13.444449186471  -0.021425091266 
 E6   /kcal   :  -5.561507640 
 E8   /kcal   :  -7.882941547 
 % E8         :  58.633428839 

-------------------------   ----------------
Dispersion correction           -0.021425091
-------------------------   ----------------


-------------------------   --------------------
FINAL SINGLE POINT ENERGY      -212.551250887452
-------------------------   --------------------


                            ***************************************
                            *     ORCA property calculations      *
                            ***************************************

                                    ---------------------
                                    Active property flags
                                    ---------------------
   (+) Dipole Moment


------------------------------------------------------------------------------
                       ORCA ELECTRIC PROPERTIES CALCULATION
------------------------------------------------------------------------------

Dipole Moment Calculation                       ... on
Quadrupole Moment Calculation                   ... off
Polarizability Calculation                      ... off
GBWName                                         ... TZVP_BLYP_C2_wt_dlpno_pos.gbw
Electron density file                           ... TZVP_BLYP_C2_wt_dlpno_pos.scfp
The origin for moment calculation is the CENTER OF MASS  = (-0.323233,  4.705972 -11.307411)

-------------
DIPOLE MOMENT
-------------
                                X             Y             Z
Electronic contribution:     -1.72407       0.61676      -2.43625
Nuclear contribution   :      1.40335       0.04939       2.56207
                        -----------------------------------------
Total Dipole Moment    :     -0.32072       0.66615       0.12582
                        -----------------------------------------
Magnitude (a.u.)       :      0.74996
Magnitude (Debye)      :      1.90626



--------------------
Rotational spectrum 
--------------------
 
Rotational constants in cm-1:     0.271383     0.128194     0.101873 
Rotational constants in MHz :  8135.853259  3843.152748  3054.074278 

 Dipole components along the rotational axes: 
x,y,z [a.u.] :    -0.026123    -0.748145     0.045206 
x,y,z [Debye]:    -0.066400    -1.901634     0.114905 

 

Timings for individual modules:

Sum of individual times         ...       10.866 sec (=   0.181 min)
GTO integral calculation        ...        2.341 sec (=   0.039 min)  21.5 %
SCF iterations                  ...        8.525 sec (=   0.142 min)  78.5 %
                             ****ORCA TERMINATED NORMALLY****
TOTAL RUN TIME: 0 days 0 hours 0 minutes 11 seconds 438 msec
