
                                        *****************
                                        * O   R   C   A *
                                        *****************

                                            #,                                       
                                            ###                                      
                                            ####                                     
                                            #####                                    
                                            ######                                   
                                           ########,                                 
                                     ,,################,,,,,                         
                               ,,#################################,,                 
                          ,,##########################################,,             
                       ,#########################################, ''#####,          
                    ,#############################################,,   '####,        
                  ,##################################################,,,,####,       
                ,###########''''           ''''###############################       
              ,#####''   ,,,,##########,,,,          '''####'''          '####       
            ,##' ,,,,###########################,,,                        '##       
           ' ,,###''''                  '''############,,,                           
         ,,##''                                '''############,,,,        ,,,,,,###''
      ,#''                                            '''#######################'''  
     '                                                          ''''####''''         
             ,#######,   #######,   ,#######,      ##                                
            ,#'     '#,  ##    ##  ,#'     '#,    #''#        ######   ,####,        
            ##       ##  ##   ,#'  ##            #'  '#       #        #'  '#        
            ##       ##  #######   ##           ,######,      #####,   #    #        
            '#,     ,#'  ##    ##  '#,     ,#' ,#      #,         ##   #,  ,#        
             '#######'   ##     ##  '#######'  #'      '#     #####' # '####'        



                  #######################################################
                  #                        -***-                        #
                  #          Department of theory and spectroscopy      #
                  #    Directorship and core code : Frank Neese         #
                  #        Max Planck Institute fuer Kohlenforschung    #
                  #                Kaiser Wilhelm Platz 1               #
                  #                 D-45470 Muelheim/Ruhr               #
                  #                      Germany                        #
                  #                                                     #
                  #                  All rights reserved                #
                  #                        -***-                        #
                  #######################################################


                         Program Version 5.0.0 -  RELEASE  -
                                (SVN: $Rev: 19529$)
                ($Date: 2021-06-28 11:36:33 +0200 (Mo, 28 Jun 2021) $)


 With contributions from (in alphabetic order):
   Daniel Aravena         : Magnetic Suceptibility
   Michael Atanasov       : Ab Initio Ligand Field Theory (pilot matlab implementation)
   Alexander A. Auer      : GIAO ZORA, VPT2 properties, NMR spectrum
   Ute Becker             : Parallelization
   Giovanni Bistoni       : ED, misc. LED, open-shell LED, HFLD
   Martin Brehm           : Molecular dynamics
   Dmytro Bykov           : SCF Hessian
   Vijay G. Chilkuri      : MRCI spin determinant printing, contributions to CSF-ICE
   Dipayan Datta          : RHF DLPNO-CCSD density
   Achintya Kumar Dutta   : EOM-CC, STEOM-CC
   Dmitry Ganyushin       : Spin-Orbit,Spin-Spin,Magnetic field MRCI
   Miquel Garcia          : C-PCM Hessian, Gaussian charge scheme
   Yang Guo               : DLPNO-NEVPT2, F12-NEVPT2, CIM, IAO-localization
   Andreas Hansen         : Spin unrestricted coupled pair/coupled cluster methods
   Benjamin Helmich-Paris : MC-RPA, TRAH-SCF, COSX integrals
   Lee Huntington         : MR-EOM, pCC
   Robert Izsak           : Overlap fitted RIJCOSX, COSX-SCS-MP3, EOM
   Marcus Kettner         : VPT2
   Christian Kollmar      : KDIIS, OOCD, Brueckner-CCSD(T), CCSD density, CASPT2, CASPT2-K
   Simone Kossmann        : Meta GGA functionals, TD-DFT gradient, OOMP2, MP2 Hessian
   Martin Krupicka        : Initial AUTO-CI
   Lucas Lang             : DCDCAS
   Marvin Lechner         : AUTO-CI (C++ implementation), FIC-MRCC
   Dagmar Lenk            : GEPOL surface, SMD
   Dimitrios Liakos       : Extrapolation schemes; Compound Job, initial MDCI parallelization
   Dimitrios Manganas     : Further ROCIS development; embedding schemes
   Dimitrios Pantazis     : SARC Basis sets
   Anastasios Papadopoulos: AUTO-CI, single reference methods and gradients
   Taras Petrenko         : DFT Hessian,TD-DFT gradient, ASA, ECA, R-Raman, ABS, FL, XAS/XES, NRVS
   Peter Pinski           : DLPNO-MP2, DLPNO-MP2 Gradient
   Christoph Reimann      : Effective Core Potentials
   Marius Retegan         : Local ZFS, SOC
   Christoph Riplinger    : Optimizer, TS searches, QM/MM, DLPNO-CCSD(T), (RO)-DLPNO pert. Triples
   Tobias Risthaus        : Range-separated hybrids, TD-DFT gradient, RPA, STAB
   Michael Roemelt        : Original ROCIS implementation
   Masaaki Saitow         : Open-shell DLPNO-CCSD energy and density
   Barbara Sandhoefer     : DKH picture change effects
   Avijit Sen             : IP-ROCIS
   Kantharuban Sivalingam : CASSCF convergence, NEVPT2, FIC-MRCI
   Bernardo de Souza      : ESD, SOC TD-DFT
   Georgi Stoychev        : AutoAux, RI-MP2 NMR
   Willem Van den Heuvel  : Paramagnetic NMR
   Boris Wezisla          : Elementary symmetry handling
   Frank Wennmohs         : Technical directorship


 We gratefully acknowledge several colleagues who have allowed us to
 interface, adapt or use parts of their codes:
   Stefan Grimme, W. Hujo, H. Kruse, P. Pracht,  : VdW corrections, initial TS optimization,
                  C. Bannwarth, S. Ehlert          DFT functionals, gCP, sTDA/sTD-DF
   Ed Valeev, F. Pavosevic, A. Kumar             : LibInt (2-el integral package), F12 methods
   Garnet Chan, S. Sharma, J. Yang, R. Olivares  : DMRG
   Ulf Ekstrom                                   : XCFun DFT Library
   Mihaly Kallay                                 : mrcc  (arbitrary order and MRCC methods)
   Jiri Pittner, Ondrej Demel                    : Mk-CCSD
   Frank Weinhold                                : gennbo (NPA and NBO analysis)
   Christopher J. Cramer and Donald G. Truhlar   : smd solvation model
   Lars Goerigk                                  : TD-DFT with DH, B97 family of functionals
   V. Asgeirsson, H. Jonsson                     : NEB implementation
   FAccTs GmbH                                   : IRC, NEB, NEB-TS, DLPNO-Multilevel, CI-OPT
                                                   MM, QMMM, 2- and 3-layer-ONIOM, Crystal-QMMM,
                                                   LR-CPCM, SF, NACMEs, symmetry and pop. for TD-DFT,
                                                   nearIR, NL-DFT gradient (VV10), updates on ESD,
                                                   ML-optimized integration grids
   S Lehtola, MJT Oliveira, MAL Marques          : LibXC Library
   Liviu Ungur et al                             : ANISO software


 Your calculation uses the libint2 library for the computation of 2-el integrals
 For citations please refer to: http://libint.valeyev.net

 Your ORCA version has been built with support for libXC version: 5.1.0
 For citations please refer to: https://tddft.org/programs/libxc/

 This ORCA versions uses:
   CBLAS   interface :  Fast vector & matrix operations
   LAPACKE interface :  Fast linear algebra routines
   SCALAPACK package :  Parallel linear algebra routines
   Shared memory     :  Shared parallel matrices
   BLAS/LAPACK       :  OpenBLAS 0.3.15  USE64BITINT DYNAMIC_ARCH NO_AFFINITY Haswell SINGLE_THREADED
        Core in use  :  Haswell
   Copyright (c) 2011-2014, The OpenBLAS Project




***************************************
The coordinates will be read from file: B.xyz
***************************************


XCFun DFT library Copyright 2009-2010 Ulf Ekstrom and contributors.
See http://admol.org/xcfun for more information.
This is free software; see the source code for copying conditions.
There is ABSOLUTELY NO WARRANTY; not even for MERCHANTABILITY or FITNESS FOR A PARTICULAR PURPOSE.
For details see the documentation.
Scientific users of this library should cite U. Ekstrom, L. Visscher, R. Bast, A. J. Thorvaldsen and K. Ruud;
J.Chem.Theor.Comp. 2010, DOI: 10.1021/ct100117s
XCFun Version 0.99 

================================================================================

----- Orbital basis set information -----
Your calculation utilizes the basis: def2-TZVPD
   F. Weigend and R. Ahlrichs, Phys. Chem. Chem. Phys. 7, 3297 (2005).
   D. Rappoport and F. Furche, J. Chem. Phys. 133 134105 (2010).

----- AuxJ basis set information -----
Your calculation utilizes the auxiliary basis: def2/J
   F. Weigend, Phys. Chem. Chem. Phys. 8, 1057 (2006).

================================================================================
                                        WARNINGS
                       Please study these warnings very carefully!
================================================================================


INFO   : the flag for use of the SHARK integral package has been found!

================================================================================
                                       INPUT FILE
================================================================================
NAME = 28Oct_TZVPD_CAMB3LYP_B_wt_wb97.com
|  1> !CAM-B3LYP RIJCOSX def2-TZVPD def2/J TightSCF xyzfile                                                                                         
|  2> 
|  3> *xyzfile 0 1 B.xyz
|  4> 
|  5> %MaxCore 64000
|  6> 
|  7> %pal nprocs 4                                                                                                                                                  
|  8> end  
|  9> 
| 10> %scf
| 11>   MaxIter 150
| 12> end
| 13> 
| 14> 
| 15>                          ****END OF INPUT****
================================================================================

                       ****************************
                       * Single Point Calculation *
                       ****************************

---------------------------------
CARTESIAN COORDINATES (ANGSTROEM)
---------------------------------
  C      3.905947    2.819855   -3.752920
  N      5.295615    3.131515   -4.105334
  C      3.803511    1.374716   -3.260807
  C      3.939934    0.320362   -4.367729
  H      4.105043   -0.655085   -3.907733
  H      3.022801    0.280517   -4.957117
  C      5.105846    0.668022   -5.305463
  C      5.708619    3.468885   -5.324190
  N      6.904696    3.038954   -5.717084
  N      4.981884    4.293570   -6.097457
  H      5.000546    4.101311   -7.087761
  H      4.084693    4.596899   -5.739652
  H      5.963358    2.526112   -3.642391
  H      7.047164    2.066861   -5.473604
  H      7.198145    3.307994   -6.645225
  H      3.282025    2.949187   -4.640259
  H      3.565254    3.514574   -2.982523
  H      4.574833    1.215157   -2.500443
  H      2.843514    1.260845   -2.751465
  O      4.809132    1.150187   -6.414361
  O      6.267366    0.564999   -4.819481

----------------------------
CARTESIAN COORDINATES (A.U.)
----------------------------
  NO LB      ZA    FRAG     MASS         X           Y           Z
   0 C     6.0000    0    12.011    7.381171    5.328753   -7.091990
   1 N     7.0000    0    14.007   10.007263    5.917705   -7.757957
   2 C     6.0000    0    12.011    7.187595    2.597836   -6.162033
   3 C     6.0000    0    12.011    7.445396    0.605397   -8.253812
   4 H     1.0000    0     1.008    7.757407   -1.237930   -7.384545
   5 H     1.0000    0     1.008    5.712267    0.530101   -9.367594
   6 C     6.0000    0    12.011    9.648650    1.262379  -10.025871
   7 C     6.0000    0    12.011   10.787727    6.555244  -10.061262
   8 N     7.0000    0    14.007   13.047984    5.742790  -10.803723
   9 N     7.0000    0    14.007    9.414397    8.113671  -11.522523
  10 H     1.0000    0     1.008    9.449663    7.750356  -13.393928
  11 H     1.0000    0     1.008    7.718951    8.686880  -10.846370
  12 H     1.0000    0     1.008   11.269114    4.773660   -6.883122
  13 H     1.0000    0     1.008   13.317210    3.905801  -10.343612
  14 H     1.0000    0     1.008   13.602523    6.251203  -12.557656
  15 H     1.0000    0     1.008    6.202128    5.573156   -8.768819
  16 H     1.0000    0     1.008    6.737353    6.641582   -5.636151
  17 H     1.0000    0     1.008    8.645182    2.296314   -4.725153
  18 H     1.0000    0     1.008    5.373463    2.382653   -5.199515
  19 O     8.0000    0    15.999    9.087942    2.173538  -12.121386
  20 O     8.0000    0    15.999   11.843606    1.067694   -9.107499

--------------------------------
INTERNAL COORDINATES (ANGSTROEM)
--------------------------------
 C      0   0   0     0.000000000000     0.00000000     0.00000000
 N      1   0   0     1.467141978358     0.00000000     0.00000000
 C      1   2   0     1.530063517905   109.95648736     0.00000000
 C      3   1   2     1.534779619809   114.26304417   287.08499053
 H      4   3   1     1.091033620284   108.87872696   165.98404284
 H      4   3   1     1.090916052212   109.87805700   285.05600920
 C      4   3   1     1.536086504513   110.62627363    44.77550193
 C      2   1   3     1.330414023142   124.60886225   117.82427755
 N      8   2   1     1.330340554584   117.88637737   216.04032271
 N      8   2   1     1.343945232509   120.98842718    40.55760065
 H     10   8   2     1.008967339645   115.96355102   215.01872382
 H     10   8   2     1.012415453042   117.36824842   356.14625482
 H      2   1   3     1.013266581664   112.80126275   337.30529129
 H      9   8   2     1.012197712497   111.46140142    44.03797432
 H      9   8   2     1.009921403817   116.52360736   180.07724841
 H      1   2   3     1.092418234860   108.70639248   240.06343406
 H      1   2   3     1.091887397005   109.26080405   121.65715898
 H      3   1   2     1.094783130927   108.29253614    49.74675079
 H      3   1   2     1.092698650205   107.88852219   164.36908434
 O      7   4   3     1.245061367518   116.77397318   256.40244270
 O      7   4   3     1.263298100477   116.39547193    69.30146499

---------------------------
INTERNAL COORDINATES (A.U.)
---------------------------
 C      0   0   0     0.000000000000     0.00000000     0.00000000
 N      1   0   0     2.772496538677     0.00000000     0.00000000
 C      1   2   0     2.891401016345   109.95648736     0.00000000
 C      3   1   2     2.900313157364   114.26304417   287.08499053
 H      4   3   1     2.061754745237   108.87872696   165.98404284
 H      4   3   1     2.061532573779   109.87805700   285.05600920
 C      4   3   1     2.902782811542   110.62627363    44.77550193
 C      2   1   3     2.514118148466   124.60886225   117.82427755
 N      8   2   1     2.513979313013   117.88637737   216.04032271
 N      8   2   1     2.539688428430   120.98842718    40.55760065
 H     10   8   2     1.906671950000   115.96355102   215.01872382
 H     10   8   2     1.913187940000   117.36824842   356.14625482
 H      2   1   3     1.914796340000   112.80126275   337.30529129
 H      9   8   2     1.912776470000   111.46140142    44.03797432
 H      9   8   2     1.908474870000   116.52360736   180.07724841
 H      1   2   3     2.064371287587   108.70639248   240.06343406
 H      1   2   3     2.063368149420   109.26080405   121.65715898
 H      3   1   2     2.068840293488   108.29253614    49.74675079
 H      3   1   2     2.064901195792   107.88852219   164.36908434
 O      7   4   3     2.352825004535   116.77397318   256.40244270
 O      7   4   3     2.387287435404   116.39547193    69.30146499

---------------------
BASIS SET INFORMATION
---------------------
There are 4 groups of distinct atoms

 Group   1 Type C   : 12s6p3d1f contracted to 6s3p3d1f pattern {621111/411/111/1}
 Group   2 Type N   : 12s6p3d1f contracted to 6s3p3d1f pattern {621111/411/111/1}
 Group   3 Type H   : 5s2p contracted to 3s2p pattern {311/11}
 Group   4 Type O   : 12s7p3d1f contracted to 6s4p3d1f pattern {621111/4111/111/1}

Atom   0C    basis set group =>   1
Atom   1N    basis set group =>   2
Atom   2C    basis set group =>   1
Atom   3C    basis set group =>   1
Atom   4H    basis set group =>   3
Atom   5H    basis set group =>   3
Atom   6C    basis set group =>   1
Atom   7C    basis set group =>   1
Atom   8N    basis set group =>   2
Atom   9N    basis set group =>   2
Atom  10H    basis set group =>   3
Atom  11H    basis set group =>   3
Atom  12H    basis set group =>   3
Atom  13H    basis set group =>   3
Atom  14H    basis set group =>   3
Atom  15H    basis set group =>   3
Atom  16H    basis set group =>   3
Atom  17H    basis set group =>   3
Atom  18H    basis set group =>   3
Atom  19O    basis set group =>   4
Atom  20O    basis set group =>   4
---------------------------------
AUXILIARY/J BASIS SET INFORMATION
---------------------------------
There are 4 groups of distinct atoms

 Group   1 Type C   : 12s5p4d2f1g contracted to 6s4p3d1f1g pattern {711111/2111/211/2/1}
 Group   2 Type N   : 12s5p4d2f1g contracted to 6s4p3d1f1g pattern {711111/2111/211/2/1}
 Group   3 Type H   : 5s2p1d contracted to 3s1p1d pattern {311/2/1}
 Group   4 Type O   : 12s5p4d2f1g contracted to 6s4p3d1f1g pattern {711111/2111/211/2/1}

Atom   0C    basis set group =>   1
Atom   1N    basis set group =>   2
Atom   2C    basis set group =>   1
Atom   3C    basis set group =>   1
Atom   4H    basis set group =>   3
Atom   5H    basis set group =>   3
Atom   6C    basis set group =>   1
Atom   7C    basis set group =>   1
Atom   8N    basis set group =>   2
Atom   9N    basis set group =>   2
Atom  10H    basis set group =>   3
Atom  11H    basis set group =>   3
Atom  12H    basis set group =>   3
Atom  13H    basis set group =>   3
Atom  14H    basis set group =>   3
Atom  15H    basis set group =>   3
Atom  16H    basis set group =>   3
Atom  17H    basis set group =>   3
Atom  18H    basis set group =>   3
Atom  19O    basis set group =>   4
Atom  20O    basis set group =>   4


           ************************************************************
           *        Program running with 4 parallel MPI-processes     *
           *              working on a common directory               *
           ************************************************************
------------------------------------------------------------------------------
                           ORCA GTO INTEGRAL CALCULATION
                           -- RI-GTO INTEGRALS CHOSEN --
------------------------------------------------------------------------------
------------------------------------------------------------------------------
                   ___                                                        
                  /   \      - P O W E R E D   B Y -                         
                 /     \                                                     
                 |  |  |   _    _      __       _____    __    __             
                 |  |  |  | |  | |    /  \     |  _  \  |  |  /  |          
                  \  \/   | |  | |   /    \    | | | |  |  | /  /          
                 / \  \   | |__| |  /  /\  \   | |_| |  |  |/  /          
                |  |  |   |  __  | /  /__\  \  |    /   |      \           
                |  |  |   | |  | | |   __   |  |    \   |  |\   \          
                \     /   | |  | | |  |  |  |  | |\  \  |  | \   \       
                 \___/    |_|  |_| |__|  |__|  |_| \__\ |__|  \__/        
                                                                              
                      - O R C A' S   B I G   F R I E N D -                    
                                      &                                       
                       - I N T E G R A L  F E E D E R -                       
                                                                              
 v1 FN, 2020, v2 2021                                                         
------------------------------------------------------------------------------


Reading SHARK input file 28Oct_TZVPD_CAMB3LYP_B_wt_wb97.SHARKINP.tmp ... ok
----------------------
SHARK INTEGRAL PACKAGE
----------------------

Number of atoms                             ...     21
Number of basis functions                   ...    475
Number of shells                            ...    187
Maximum angular momentum                    ...      3
Integral batch strategy                     ... SHARK/LIBINT Hybrid
RI-J (if used) integral strategy            ... SPLIT-RIJ (Revised 2003 algorithm where possible)
Printlevel                                  ...      1
Contraction scheme used                     ... SEGMENTED contraction
Coulomb Range Separation                    ... NOT USED
Exchange Range Separation                   ... Long Range
   Mu parameter                             ...  0.330000
   Scaling (regular/separated)              ...  0.190000  0.460000
Finite Nucleus Model                        ... NOT USED
Auxiliary Coulomb fitting basis             ... AVAILABLE
   # of basis functions in Aux-J            ...    611
   # of shells in Aux-J                     ...    205
   Maximum angular momentum in Aux-J        ...      4
Auxiliary J/K fitting basis                 ... NOT available
Auxiliary Correlation fitting basis         ... NOT available
Auxiliary 'external' fitting basis          ... NOT available
Integral threshold                          ...     2.500000e-11
Primitive cut-off                           ...     2.500000e-12
Primitive pair pre-selection threshold      ...     2.500000e-12

Calculating pre-screening integrals         ... done (  0.1 sec) Dimension = 187
Organizing shell pair data                  ... done (  0.2 sec)
Shell pair information
Total number of shell pairs                 ...     17578
Shell pairs after pre-screening             ...     16548
Total number of primitive shell pairs       ...     45103
Primitive shell pairs kept                  ...     33289
          la=0 lb=0:   3944 shell pairs
          la=1 lb=0:   4754 shell pairs
          la=1 lb=1:   1447 shell pairs
          la=2 lb=0:   2641 shell pairs
          la=2 lb=1:   1586 shell pairs
          la=2 lb=2:    459 shell pairs
          la=3 lb=0:    846 shell pairs
          la=3 lb=1:    524 shell pairs
          la=3 lb=2:    293 shell pairs
          la=3 lb=3:     54 shell pairs

Calculating one electron integrals          ... done (  0.0 sec)
Calculating RI/J V-Matrix + Cholesky decomp.... done (  0.0 sec)
Calculating Nuclear repulsion               ... done (  0.0 sec) ENN=    597.685259948605 Eh

SHARK setup successfully completed in   0.5 seconds

Maximum memory used throughout the entire GTOINT-calculation: 25.9 MB


           ************************************************************
           *        Program running with 4 parallel MPI-processes     *
           *              working on a common directory               *
           ************************************************************
-------------------------------------------------------------------------------
                                 ORCA SCF
-------------------------------------------------------------------------------

------------
SCF SETTINGS
------------
Hamiltonian:
 Density Functional     Method          .... DFT(GTOs)
 Exchange Functional    Exchange        .... WB88
 Correlation Functional Correlation     .... LYP
 LDA part of GGA corr.  LDAOpt          .... VWN-5
 Gradients option       PostSCFGGA      .... off
 Hybrid DFT is turned on
   Fraction HF Exchange ScalHFX         ....  0.190000
   Scaling of DF-GGA-X  ScalDFX         ....  0.350000
   Scaling of DF-GGA-C  ScalDFC         ....  0.810000
   Scaling of DF-LDA-C  ScalLDAC        ....  1.000000
   Perturbative correction              ....  0.000000
   Density functional embedding theory  .... OFF
 Long-range corrected/Screened/Range-Separated Hybrid DFT is turned on
   Amount of maximum screened exact exchange              ....  0.460000
   Range separation parameter mu (erf(mu*r12)/r12)        ....  0.330000
 RI-approximation to the Coulomb term is turned on
   Number of AuxJ basis functions       .... 611
   RIJ-COSX (HFX calculated with COS-X)).... on


General Settings:
 Integral files         IntName         .... 28Oct_TZVPD_CAMB3LYP_B_wt_wb97
 Hartree-Fock type      HFTyp           .... RHF
 Total Charge           Charge          ....    0
 Multiplicity           Mult            ....    1
 Number of Electrons    NEL             ....   78
 Basis Dimension        Dim             ....  475
 Nuclear Repulsion      ENuc            ....    597.6852599486 Eh

Convergence Acceleration:
 DIIS                   CNVDIIS         .... on
   Start iteration      DIISMaxIt       ....    12
   Startup error        DIISStart       ....  0.200000
   # of expansion vecs  DIISMaxEq       ....     5
   Bias factor          DIISBfac        ....   1.050
   Max. coefficient     DIISMaxC        ....  10.000
 Trust-Rad. Augm. Hess. CNVTRAH         .... auto
   Auto Start mean grad. ratio tolernc. ....  1.125000
   Auto Start start iteration           ....    20
   Auto Start num. interpolation iter.  ....    10
   Max. Number of Micro iterations      ....    16
   Max. Number of Macro iterations      .... Maxiter - #DIIS iter
   Number of Davidson start vectors     ....     2
   Converg. threshold I  (grad. norm)   ....   1.000e-05
   Converg. threshold II (energy diff.) ....   1.000e-08
   Grad. Scal. Fac. for Micro threshold ....   0.100
   Minimum threshold for Micro iter.    ....   0.010
   NR start threshold (gradient norm)   ....   0.001
   Initial trust radius                 ....   0.400
   Minimum AH scaling param. (alpha)    ....   1.000
   Maximum AH scaling param. (alpha)    .... 1000.000
   Orbital update algorithm             .... Taylor
   White noise on init. David. guess    .... on
   Maximum white noise                  ....   0.010
   Quad. conv. algorithm                .... NR
 SOSCF                  CNVSOSCF        .... on
   Start iteration      SOSCFMaxIt      ....   150
   Startup grad/error   SOSCFStart      ....  0.003300
 Level Shifting         CNVShift        .... on
   Level shift para.    LevelShift      ....    0.2500
   Turn off err/grad.   ShiftErr        ....    0.0010
 Zerner damping         CNVZerner       .... off
 Static damping         CNVDamp         .... on
   Fraction old density DampFac         ....    0.7000
   Max. Damping (<1)    DampMax         ....    0.9800
   Min. Damping (>=0)   DampMin         ....    0.0000
   Turn off err/grad.   DampErr         ....    0.1000
 Fernandez-Rico         CNVRico         .... off

SCF Procedure:
 Maximum # iterations   MaxIter         ....   150
 SCF integral mode      SCFMode         .... Direct
   Integral package                     .... SHARK and LIBINT hybrid scheme
 Reset frequency        DirectResetFreq ....    20
 Integral Threshold     Thresh          ....  2.500e-11 Eh
 Primitive CutOff       TCut            ....  2.500e-12 Eh

Convergence Tolerance:
 Convergence Check Mode ConvCheckMode   .... Total+1el-Energy
 Convergence forced     ConvForced      .... 0
 Energy Change          TolE            ....  1.000e-08 Eh
 1-El. energy change                    ....  1.000e-05 Eh
 Orbital Gradient       TolG            ....  1.000e-05
 Orbital Rotation angle TolX            ....  1.000e-05
 DIIS Error             TolErr          ....  5.000e-07


Diagonalization of the overlap matrix:
Smallest eigenvalue                        ... 2.818e-06
Time for diagonalization                   ...    0.042 sec
Threshold for overlap eigenvalues          ... 1.000e-08
Number of eigenvalues below threshold      ... 0
Time for construction of square roots      ...    0.035 sec
Total time needed                          ...    0.079 sec

Time for model grid setup =    0.254 sec

------------------------------
INITIAL GUESS: MODEL POTENTIAL
------------------------------
Loading Hartree-Fock densities                     ... done
Calculating cut-offs                               ... done
Initializing the effective Hamiltonian             ... done
Setting up the integral package (SHARK)            ... done
Starting the Coulomb interaction                   ... done (   0.4 sec)
Reading the grid                                   ... done
Mapping shells                                     ... done
Starting the XC term evaluation                    ... done (   0.5 sec)
  promolecular density results
     # of electrons  =     77.999751978
     EX              =    -64.814793648
     EC              =     -2.627093700
     EX+EC           =    -67.441887348
Transforming the Hamiltonian                       ... done (   0.0 sec)
Diagonalizing the Hamiltonian                      ... done (   0.0 sec)
Back transforming the eigenvectors                 ... done (   0.0 sec)
Now organizing SCF variables                       ... done
                      ------------------
                      INITIAL GUESS DONE (   1.2 sec)
                      ------------------
-------------------
DFT GRID GENERATION
-------------------

General Integration Accuracy     IntAcc      ... 4.388
Radial Grid Type                 RadialGrid  ... OptM3 with GC (2021)
Angular Grid (max. ang.)         AngularGrid ... 4 (Lebedev-302)
Angular grid pruning method      GridPruning ... 4 (adaptive)
Weight generation scheme         WeightScheme... Becke
Basis function cutoff            BFCut       ... 1.0000e-11
Integration weight cutoff        WCut        ... 1.0000e-14
Angular grids for H and He will be reduced by one unit
Partially contracted basis set               ... off
Rotationally invariant grid construction     ... off

Total number of grid points                  ...    99555
Total number of batches                      ...     1567
Average number of points per batch           ...       63
Average number of grid points per atom       ...     4741
Time for grid setup =    0.877 sec

--------------------
COSX GRID GENERATION
--------------------

GRIDX 1
-------
General Integration Accuracy     IntAcc      ... 3.816
Radial Grid Type                 RadialGrid  ... OptM3 with GC (2021)
Angular Grid (max. ang.)         AngularGrid ... 1 (Lebedev-50)
Angular grid pruning method      GridPruning ... 4 (adaptive)
Weight generation scheme         WeightScheme... Becke
Basis function cutoff            BFCut       ... 1.0000e-11
Integration weight cutoff        WCut        ... 1.0000e-14
Angular grids for H and He will be reduced by one unit
Partially contracted basis set               ... on
Rotationally invariant grid construction     ... off

Total number of grid points                  ...    12450
Total number of batches                      ...      205
Average number of points per batch           ...       60
Average number of grid points per atom       ...      593
UseSFitting                                  ... on

GRIDX 2
-------
General Integration Accuracy     IntAcc      ... 4.020
Radial Grid Type                 RadialGrid  ... OptM3 with GC (2021)
Angular Grid (max. ang.)         AngularGrid ... 2 (Lebedev-110)
Angular grid pruning method      GridPruning ... 4 (adaptive)
Weight generation scheme         WeightScheme... Becke
Basis function cutoff            BFCut       ... 1.0000e-11
Integration weight cutoff        WCut        ... 1.0000e-14
Angular grids for H and He will be reduced by one unit
Partially contracted basis set               ... on
Rotationally invariant grid construction     ... off

Total number of grid points                  ...    29581
Total number of batches                      ...      471
Average number of points per batch           ...       62
Average number of grid points per atom       ...     1409
UseSFitting                                  ... on

GRIDX 3
-------
General Integration Accuracy     IntAcc      ... 4.338
Radial Grid Type                 RadialGrid  ... OptM3 with GC (2021)
Angular Grid (max. ang.)         AngularGrid ... 3 (Lebedev-194)
Angular grid pruning method      GridPruning ... 4 (adaptive)
Weight generation scheme         WeightScheme... Becke
Basis function cutoff            BFCut       ... 1.0000e-11
Integration weight cutoff        WCut        ... 1.0000e-14
Angular grids for H and He will be reduced by one unit
Partially contracted basis set               ... on
Rotationally invariant grid construction     ... off

Total number of grid points                  ...    65759
Total number of batches                      ...     1039
Average number of points per batch           ...       63
Average number of grid points per atom       ...     3131
UseSFitting                                  ... on

Time for X-Grid setup             =    1.438 sec

--------------
SCF ITERATIONS
--------------
ITER       Energy         Delta-E        Max-DP      RMS-DP      [F,P]     Damp
               ***  Starting incremental Fock matrix formation  ***
  0   -511.4840336445   0.000000000000 0.14628623  0.00182245  0.2919124 0.7000
  1   -511.6524728396  -0.168439195136 0.12261752  0.00145419  0.1363115 0.7000
                               ***Turning on DIIS***
  2   -511.7248937432  -0.072420903607 0.21921382  0.00299586  0.0476767 0.0000
  3   -511.8386411079  -0.113747364691 0.09215960  0.00075073  0.0783761 0.0000
  4   -511.8612650515  -0.022623943552 0.01961096  0.00023445  0.0089942 0.0000
  5   -511.8618655937  -0.000600542274 0.00433239  0.00007238  0.0055240 0.0000
                      *** Initiating the SOSCF procedure ***
                           *** Shutting down DIIS ***
                      *** Re-Reading the Fockian *** 
                      *** Removing any level shift *** 
ITER      Energy       Delta-E        Grad      Rot      Max-DP    RMS-DP
  6   -511.86195393  -0.0000883329  0.000385  0.000385  0.003441  0.000055
               *** Restarting incremental Fock matrix formation ***
  7   -511.86195776  -0.0000038328  0.000089  0.000215  0.005491  0.000056
  8   -511.86195797  -0.0000002085  0.000188  0.000172  0.000513  0.000008
  9   -511.86195908  -0.0000011093  0.000033  0.000065  0.000750  0.000005
 10   -511.86195906   0.0000000216  0.000053  0.000047  0.000390  0.000003
                  ***Gradient check signals convergence***
              ***Rediagonalizing the Fockian in SOSCF/NRSCF***

               *****************************************************
               *                     SUCCESS                       *
               *           SCF CONVERGED AFTER  11 CYCLES          *
               *****************************************************

Old exchange energy                            =    -18.714749714 Eh
New exchange energy                            =    -18.714739625 Eh
Exchange energy change after final integration =      0.000010089 Eh
Total energy after final integration           =   -511.861949037 Eh
Final COS-X integration done in                =    40.551 sec

----------------
TOTAL SCF ENERGY
----------------

Total Energy       :         -511.86194904 Eh          -13928.47174 eV

Components:
Nuclear Repulsion  :          597.68525995 Eh           16263.84276 eV
Electronic Energy  :        -1109.54720899 Eh          -30192.31450 eV
One Electron Energy:        -1882.89708358 Eh          -51236.23444 eV
Two Electron Energy:          773.34987459 Eh           21043.91994 eV
Max COSX asymmetry :            0.00000175 Eh               0.00005 eV

Virial components:
Potential Energy   :        -1021.62005360 Eh          -27799.69497 eV
Kinetic Energy     :          509.75810457 Eh           13871.22322 eV
Virial Ratio       :            2.00412714


DFT components:
N(Alpha)           :       39.000077908054 electrons
N(Beta)            :       39.000077908054 electrons
N(Total)           :       78.000155816109 electrons
E(XC)              :      -50.417438868461 Eh       
DFET-embed. en.    :        0.000000000000 Eh       

---------------
SCF CONVERGENCE
---------------

  Last Energy change         ...   -6.9774e-08  Tolerance :   1.0000e-08
  Last MAX-Density change    ...    1.1102e-15  Tolerance :   1.0000e-07
  Last RMS-Density change    ...    1.3349e-17  Tolerance :   5.0000e-09
  Last Orbital Gradient      ...    1.9362e-06  Tolerance :   1.0000e-05
  Last Orbital Rotation      ...    3.9086e-06  Tolerance :   1.0000e-05

             **** THE GBW FILE WAS UPDATED (28Oct_TZVPD_CAMB3LYP_B_wt_wb97.gbw) ****
             **** DENSITY 28Oct_TZVPD_CAMB3LYP_B_wt_wb97.scfp WAS UPDATED ****
             **** ENERGY FILE WAS UPDATED (28Oct_TZVPD_CAMB3LYP_B_wt_wb97.en.tmp) ****
             **** THE GBW FILE WAS UPDATED (28Oct_TZVPD_CAMB3LYP_B_wt_wb97.gbw) ****
             **** DENSITY 28Oct_TZVPD_CAMB3LYP_B_wt_wb97.scfp WAS UPDATED ****
----------------
ORBITAL ENERGIES
----------------

  NO   OCC          E(Eh)            E(eV) 
   0   2.0000     -19.115987      -520.1725 
   1   2.0000     -19.113605      -520.1076 
   2   2.0000     -14.454896      -393.3377 
   3   2.0000     -14.446371      -393.1057 
   4   2.0000     -14.423958      -392.4959 
   5   2.0000     -10.415287      -283.4144 
   6   2.0000     -10.306549      -280.4554 
   7   2.0000     -10.306074      -280.4425 
   8   2.0000     -10.255938      -279.0782 
   9   2.0000     -10.223204      -278.1875 
  10   2.0000      -1.136988       -30.9390 
  11   2.0000      -1.087785       -29.6001 
  12   2.0000      -1.027117       -27.9493 
  13   2.0000      -1.008369       -27.4391 
  14   2.0000      -0.993925       -27.0461 
  15   2.0000      -0.879954       -23.9448 
  16   2.0000      -0.795495       -21.6465 
  17   2.0000      -0.734412       -19.9844 
  18   2.0000      -0.702441       -19.1144 
  19   2.0000      -0.681934       -18.5564 
  20   2.0000      -0.648683       -17.6516 
  21   2.0000      -0.608299       -16.5527 
  22   2.0000      -0.587305       -15.9814 
  23   2.0000      -0.571491       -15.5511 
  24   2.0000      -0.549904       -14.9636 
  25   2.0000      -0.547275       -14.8921 
  26   2.0000      -0.502203       -13.6656 
  27   2.0000      -0.495707       -13.4889 
  28   2.0000      -0.481213       -13.0945 
  29   2.0000      -0.458244       -12.4695 
  30   2.0000      -0.451800       -12.2941 
  31   2.0000      -0.446354       -12.1459 
  32   2.0000      -0.408586       -11.1182 
  33   2.0000      -0.403651       -10.9839 
  34   2.0000      -0.383808       -10.4439 
  35   2.0000      -0.356930        -9.7126 
  36   2.0000      -0.298763        -8.1298 
  37   2.0000      -0.285307        -7.7636 
  38   2.0000      -0.277140        -7.5414 
  39   0.0000       0.010459         0.2846 
  40   0.0000       0.019699         0.5360 
  41   0.0000       0.034018         0.9257 
  42   0.0000       0.042985         1.1697 
  43   0.0000       0.060161         1.6371 
  44   0.0000       0.069859         1.9010 
  45   0.0000       0.074237         2.0201 
  46   0.0000       0.079826         2.1722 
  47   0.0000       0.087812         2.3895 
  48   0.0000       0.093681         2.5492 
  49   0.0000       0.104211         2.8357 
  50   0.0000       0.113435         3.0867 
  51   0.0000       0.116972         3.1830 
  52   0.0000       0.124266         3.3814 
  53   0.0000       0.128463         3.4956 
  54   0.0000       0.136434         3.7126 
  55   0.0000       0.139616         3.7991 
  56   0.0000       0.146607         3.9894 
  57   0.0000       0.149898         4.0789 
  58   0.0000       0.169454         4.6111 
  59   0.0000       0.172104         4.6832 
  60   0.0000       0.178761         4.8643 
  61   0.0000       0.185676         5.0525 
  62   0.0000       0.188950         5.1416 
  63   0.0000       0.195857         5.3295 
  64   0.0000       0.200154         5.4465 
  65   0.0000       0.209410         5.6983 
  66   0.0000       0.213584         5.8119 
  67   0.0000       0.217776         5.9260 
  68   0.0000       0.227206         6.1826 
  69   0.0000       0.234012         6.3678 
  70   0.0000       0.236859         6.4453 
  71   0.0000       0.243001         6.6124 
  72   0.0000       0.252503         6.8710 
  73   0.0000       0.254520         6.9258 
  74   0.0000       0.258805         7.0424 
  75   0.0000       0.265079         7.2132 
  76   0.0000       0.269642         7.3373 
  77   0.0000       0.275514         7.4971 
  78   0.0000       0.281458         7.6589 
  79   0.0000       0.287394         7.8204 
  80   0.0000       0.288825         7.8593 
  81   0.0000       0.293531         7.9874 
  82   0.0000       0.299550         8.1512 
  83   0.0000       0.304144         8.2762 
  84   0.0000       0.306873         8.3504 
  85   0.0000       0.309220         8.4143 
  86   0.0000       0.319769         8.7014 
  87   0.0000       0.325922         8.8688 
  88   0.0000       0.329751         8.9730 
  89   0.0000       0.332358         9.0439 
  90   0.0000       0.340250         9.2587 
  91   0.0000       0.345817         9.4102 
  92   0.0000       0.351914         9.5761 
  93   0.0000       0.356673         9.7056 
  94   0.0000       0.358372         9.7518 
  95   0.0000       0.366023         9.9600 
  96   0.0000       0.369034        10.0419 
  97   0.0000       0.373351        10.1594 
  98   0.0000       0.380967        10.3666 
  99   0.0000       0.384956        10.4752 
 100   0.0000       0.395439        10.7604 
 101   0.0000       0.396510        10.7896 
 102   0.0000       0.401904        10.9364 
 103   0.0000       0.406721        11.0674 
 104   0.0000       0.411535        11.1984 
 105   0.0000       0.417654        11.3649 
 106   0.0000       0.422735        11.5032 
 107   0.0000       0.429234        11.6800 
 108   0.0000       0.435045        11.8382 
 109   0.0000       0.435803        11.8588 
 110   0.0000       0.443765        12.0755 
 111   0.0000       0.449805        12.2398 
 112   0.0000       0.451360        12.2821 
 113   0.0000       0.456445        12.4205 
 114   0.0000       0.463478        12.6119 
 115   0.0000       0.468308        12.7433 
 116   0.0000       0.471657        12.8344 
 117   0.0000       0.475624        12.9424 
 118   0.0000       0.484463        13.1829 
 119   0.0000       0.489315        13.3149 
 120   0.0000       0.492930        13.4133 
 121   0.0000       0.495110        13.4726 
 122   0.0000       0.502188        13.6652 
 123   0.0000       0.507922        13.8212 
 124   0.0000       0.511650        13.9227 
 125   0.0000       0.516498        14.0546 
 126   0.0000       0.521167        14.1817 
 127   0.0000       0.523200        14.2370 
 128   0.0000       0.527080        14.3426 
 129   0.0000       0.540205        14.6997 
 130   0.0000       0.542268        14.7559 
 131   0.0000       0.550398        14.9771 
 132   0.0000       0.556110        15.1325 
 133   0.0000       0.562185        15.2978 
 134   0.0000       0.567358        15.4386 
 135   0.0000       0.576027        15.6745 
 136   0.0000       0.579769        15.7763 
 137   0.0000       0.588830        16.0229 
 138   0.0000       0.597330        16.2542 
 139   0.0000       0.599079        16.3018 
 140   0.0000       0.604663        16.4537 
 141   0.0000       0.612456        16.6658 
 142   0.0000       0.625435        17.0190 
 143   0.0000       0.635530        17.2936 
 144   0.0000       0.643025        17.4976 
 145   0.0000       0.645677        17.5698 
 146   0.0000       0.649434        17.6720 
 147   0.0000       0.657079        17.8800 
 148   0.0000       0.660506        17.9733 
 149   0.0000       0.669803        18.2263 
 150   0.0000       0.676902        18.4194 
 151   0.0000       0.687436        18.7061 
 152   0.0000       0.697863        18.9898 
 153   0.0000       0.705620        19.2009 
 154   0.0000       0.712208        19.3802 
 155   0.0000       0.718261        19.5449 
 156   0.0000       0.722527        19.6610 
 157   0.0000       0.729696        19.8560 
 158   0.0000       0.732850        19.9419 
 159   0.0000       0.745109        20.2754 
 160   0.0000       0.749066        20.3831 
 161   0.0000       0.754812        20.5395 
 162   0.0000       0.760171        20.6853 
 163   0.0000       0.766145        20.8479 
 164   0.0000       0.773365        21.0443 
 165   0.0000       0.779126        21.2011 
 166   0.0000       0.783721        21.3261 
 167   0.0000       0.792127        21.5549 
 168   0.0000       0.797446        21.6996 
 169   0.0000       0.804749        21.8983 
 170   0.0000       0.812588        22.1117 
 171   0.0000       0.817892        22.2560 
 172   0.0000       0.826043        22.4778 
 173   0.0000       0.827365        22.5138 
 174   0.0000       0.843347        22.9486 
 175   0.0000       0.848065        23.0770 
 176   0.0000       0.854896        23.2629 
 177   0.0000       0.859319        23.3832 
 178   0.0000       0.871117        23.7043 
 179   0.0000       0.873370        23.7656 
 180   0.0000       0.890072        24.2201 
 181   0.0000       0.891386        24.2558 
 182   0.0000       0.894925        24.3521 
 183   0.0000       0.912755        24.8373 
 184   0.0000       0.915962        24.9246 
 185   0.0000       0.925987        25.1974 
 186   0.0000       0.939834        25.5742 
 187   0.0000       0.942969        25.6595 
 188   0.0000       0.959375        26.1059 
 189   0.0000       0.969889        26.3920 
 190   0.0000       0.977298        26.5936 
 191   0.0000       0.986447        26.8426 
 192   0.0000       0.994980        27.0748 
 193   0.0000       1.003267        27.3003 
 194   0.0000       1.015812        27.6417 
 195   0.0000       1.022647        27.8276 
 196   0.0000       1.033763        28.1301 
 197   0.0000       1.048425        28.5291 
 198   0.0000       1.060871        28.8678 
 199   0.0000       1.068105        29.0646 
 200   0.0000       1.076588        29.2955 
 201   0.0000       1.090018        29.6609 
 202   0.0000       1.105453        30.0809 
 203   0.0000       1.123176        30.5632 
 204   0.0000       1.126870        30.6637 
 205   0.0000       1.142626        31.0924 
 206   0.0000       1.160829        31.5878 
 207   0.0000       1.170508        31.8511 
 208   0.0000       1.177143        32.0317 
 209   0.0000       1.197268        32.5793 
 210   0.0000       1.219683        33.1893 
 211   0.0000       1.232706        33.5436 
 212   0.0000       1.253266        34.1031 
 213   0.0000       1.265236        34.4288 
 214   0.0000       1.273005        34.6402 
 215   0.0000       1.289761        35.0962 
 216   0.0000       1.296397        35.2768 
 217   0.0000       1.312359        35.7111 
 218   0.0000       1.334703        36.3191 
 219   0.0000       1.344961        36.5982 
 220   0.0000       1.357116        36.9290 
 221   0.0000       1.374971        37.4149 
 222   0.0000       1.379307        37.5329 
 223   0.0000       1.395282        37.9676 
 224   0.0000       1.417165        38.5630 
 225   0.0000       1.425818        38.7985 
 226   0.0000       1.443539        39.2807 
 227   0.0000       1.460114        39.7317 
 228   0.0000       1.469230        39.9798 
 229   0.0000       1.475355        40.1464 
 230   0.0000       1.498606        40.7791 
 231   0.0000       1.506949        41.0062 
 232   0.0000       1.519063        41.3358 
 233   0.0000       1.530232        41.6397 
 234   0.0000       1.546217        42.0747 
 235   0.0000       1.555353        42.3233 
 236   0.0000       1.581138        43.0250 
 237   0.0000       1.613897        43.9164 
 238   0.0000       1.626706        44.2649 
 239   0.0000       1.655509        45.0487 
 240   0.0000       1.676557        45.6214 
 241   0.0000       1.692160        46.0460 
 242   0.0000       1.717397        46.7327 
 243   0.0000       1.741652        47.3928 
 244   0.0000       1.763061        47.9753 
 245   0.0000       1.809933        49.2508 
 246   0.0000       1.848005        50.2868 
 247   0.0000       1.859846        50.6090 
 248   0.0000       1.874469        51.0069 
 249   0.0000       1.881385        51.1951 
 250   0.0000       1.894605        51.5548 
 251   0.0000       1.903117        51.7864 
 252   0.0000       1.910167        51.9783 
 253   0.0000       1.915925        52.1350 
 254   0.0000       1.922918        52.3253 
 255   0.0000       1.936616        52.6980 
 256   0.0000       1.945687        52.9448 
 257   0.0000       1.968857        53.5753 
 258   0.0000       1.982911        53.9578 
 259   0.0000       1.991629        54.1950 
 260   0.0000       1.998436        54.3802 
 261   0.0000       2.003170        54.5090 
 262   0.0000       2.014820        54.8261 
 263   0.0000       2.026630        55.1474 
 264   0.0000       2.038373        55.4670 
 265   0.0000       2.048401        55.7398 
 266   0.0000       2.068522        56.2873 
 267   0.0000       2.090058        56.8734 
 268   0.0000       2.100182        57.1489 
 269   0.0000       2.110846        57.4390 
 270   0.0000       2.135724        58.1160 
 271   0.0000       2.153536        58.6007 
 272   0.0000       2.169162        59.0259 
 273   0.0000       2.206973        60.0548 
 274   0.0000       2.217870        60.3513 
 275   0.0000       2.233737        60.7831 
 276   0.0000       2.245337        61.0987 
 277   0.0000       2.256782        61.4102 
 278   0.0000       2.262453        61.5645 
 279   0.0000       2.274279        61.8863 
 280   0.0000       2.299771        62.5799 
 281   0.0000       2.330943        63.4282 
 282   0.0000       2.342208        63.7347 
 283   0.0000       2.361080        64.2482 
 284   0.0000       2.367962        64.4355 
 285   0.0000       2.385917        64.9241 
 286   0.0000       2.392357        65.0993 
 287   0.0000       2.421321        65.8875 
 288   0.0000       2.425417        65.9989 
 289   0.0000       2.447159        66.5906 
 290   0.0000       2.465590        67.0921 
 291   0.0000       2.491151        67.7877 
 292   0.0000       2.506631        68.2089 
 293   0.0000       2.525755        68.7293 
 294   0.0000       2.534098        68.9563 
 295   0.0000       2.567536        69.8662 
 296   0.0000       2.572160        69.9920 
 297   0.0000       2.587067        70.3977 
 298   0.0000       2.607795        70.9617 
 299   0.0000       2.621484        71.3342 
 300   0.0000       2.656393        72.2841 
 301   0.0000       2.664989        72.5180 
 302   0.0000       2.682415        72.9922 
 303   0.0000       2.698421        73.4278 
 304   0.0000       2.705349        73.6163 
 305   0.0000       2.723299        74.1047 
 306   0.0000       2.736944        74.4760 
 307   0.0000       2.756756        75.0152 
 308   0.0000       2.762055        75.1593 
 309   0.0000       2.790787        75.9412 
 310   0.0000       2.810013        76.4643 
 311   0.0000       2.835709        77.1636 
 312   0.0000       2.842301        77.3429 
 313   0.0000       2.867623        78.0320 
 314   0.0000       2.874330        78.2145 
 315   0.0000       2.877315        78.2957 
 316   0.0000       2.901841        78.9631 
 317   0.0000       2.915263        79.3284 
 318   0.0000       2.938640        79.9645 
 319   0.0000       2.959723        80.5382 
 320   0.0000       2.972011        80.8725 
 321   0.0000       2.987531        81.2948 
 322   0.0000       3.000689        81.6529 
 323   0.0000       3.037006        82.6411 
 324   0.0000       3.046130        82.8894 
 325   0.0000       3.064908        83.4004 
 326   0.0000       3.082241        83.8720 
 327   0.0000       3.107694        84.5647 
 328   0.0000       3.119376        84.8825 
 329   0.0000       3.136716        85.3544 
 330   0.0000       3.152749        85.7907 
 331   0.0000       3.180554        86.5473 
 332   0.0000       3.188026        86.7506 
 333   0.0000       3.209214        87.3272 
 334   0.0000       3.226886        87.8080 
 335   0.0000       3.236721        88.0757 
 336   0.0000       3.260698        88.7281 
 337   0.0000       3.267666        88.9177 
 338   0.0000       3.284347        89.3716 
 339   0.0000       3.290811        89.5475 
 340   0.0000       3.300938        89.8231 
 341   0.0000       3.325515        90.4919 
 342   0.0000       3.333380        90.7059 
 343   0.0000       3.353881        91.2637 
 344   0.0000       3.359393        91.4137 
 345   0.0000       3.377917        91.9178 
 346   0.0000       3.383787        92.0775 
 347   0.0000       3.392469        92.3138 
 348   0.0000       3.429269        93.3152 
 349   0.0000       3.440603        93.6236 
 350   0.0000       3.453513        93.9749 
 351   0.0000       3.469356        94.4060 
 352   0.0000       3.479923        94.6935 
 353   0.0000       3.504168        95.3533 
 354   0.0000       3.509109        95.4877 
 355   0.0000       3.525604        95.9366 
 356   0.0000       3.550924        96.6256 
 357   0.0000       3.560972        96.8990 
 358   0.0000       3.568191        97.0954 
 359   0.0000       3.613873        98.3385 
 360   0.0000       3.642960        99.1300 
 361   0.0000       3.649027        99.2951 
 362   0.0000       3.657148        99.5160 
 363   0.0000       3.675720       100.0214 
 364   0.0000       3.692808       100.4864 
 365   0.0000       3.713139       101.0396 
 366   0.0000       3.723188       101.3131 
 367   0.0000       3.745227       101.9128 
 368   0.0000       3.765405       102.4619 
 369   0.0000       3.789406       103.1150 
 370   0.0000       3.813873       103.7808 
 371   0.0000       3.833366       104.3112 
 372   0.0000       3.847346       104.6916 
 373   0.0000       3.850084       104.7661 
 374   0.0000       3.878946       105.5515 
 375   0.0000       3.896471       106.0284 
 376   0.0000       3.908505       106.3558 
 377   0.0000       3.942251       107.2741 
 378   0.0000       3.974369       108.1481 
 379   0.0000       3.989447       108.5584 
 380   0.0000       4.014940       109.2521 
 381   0.0000       4.032779       109.7375 
 382   0.0000       4.074926       110.8844 
 383   0.0000       4.092824       111.3714 
 384   0.0000       4.098408       111.5233 
 385   0.0000       4.115729       111.9947 
 386   0.0000       4.141320       112.6911 
 387   0.0000       4.159594       113.1883 
 388   0.0000       4.188755       113.9818 
 389   0.0000       4.229873       115.1007 
 390   0.0000       4.247040       115.5678 
 391   0.0000       4.277716       116.4026 
 392   0.0000       4.371520       118.9551 
 393   0.0000       4.407603       119.9370 
 394   0.0000       4.458550       121.3233 
 395   0.0000       4.470874       121.6587 
 396   0.0000       4.516678       122.9051 
 397   0.0000       4.532572       123.3375 
 398   0.0000       4.538227       123.4914 
 399   0.0000       4.575512       124.5060 
 400   0.0000       4.630059       125.9903 
 401   0.0000       4.660751       126.8255 
 402   0.0000       4.707678       128.1024 
 403   0.0000       4.763073       129.6098 
 404   0.0000       4.833987       131.5395 
 405   0.0000       4.853097       132.0595 
 406   0.0000       4.875064       132.6572 
 407   0.0000       4.882571       132.8615 
 408   0.0000       4.907066       133.5281 
 409   0.0000       4.912483       133.6754 
 410   0.0000       4.928780       134.1189 
 411   0.0000       4.940991       134.4512 
 412   0.0000       4.973323       135.3310 
 413   0.0000       4.999370       136.0398 
 414   0.0000       5.019143       136.5778 
 415   0.0000       5.040452       137.1577 
 416   0.0000       5.082023       138.2889 
 417   0.0000       5.134153       139.7074 
 418   0.0000       5.161570       140.4535 
 419   0.0000       5.185813       141.1131 
 420   0.0000       5.223645       142.1426 
 421   0.0000       5.244447       142.7087 
 422   0.0000       5.263755       143.2341 
 423   0.0000       5.292554       144.0177 
 424   0.0000       5.332853       145.1143 
 425   0.0000       5.343001       145.3904 
 426   0.0000       5.362815       145.9296 
 427   0.0000       5.373643       146.2243 
 428   0.0000       5.396035       146.8336 
 429   0.0000       5.426374       147.6591 
 430   0.0000       5.437158       147.9526 
 431   0.0000       5.468363       148.8017 
 432   0.0000       5.491935       149.4432 
 433   0.0000       5.509689       149.9263 
 434   0.0000       5.530449       150.4912 
 435   0.0000       5.543817       150.8549 
 436   0.0000       5.608676       152.6198 
 437   0.0000       5.634899       153.3334 
 438   0.0000       5.695778       154.9900 
 439   0.0000       5.708009       155.3228 
 440   0.0000       5.714899       155.5103 
 441   0.0000       5.724129       155.7615 
 442   0.0000       5.773613       157.1080 
 443   0.0000       5.820179       158.3751 
 444   0.0000       5.920652       161.1091 
 445   0.0000       6.004817       163.3994 
 446   0.0000       6.106871       166.1764 
 447   0.0000       6.119906       166.5311 
 448   0.0000       6.133330       166.8964 
 449   0.0000       6.284058       170.9979 
 450   0.0000       6.315404       171.8509 
 451   0.0000       6.335183       172.3891 
 452   0.0000       6.396132       174.0476 
 453   0.0000       6.661072       181.2570 
 454   0.0000       6.713343       182.6794 
 455   0.0000       6.749100       183.6523 
 456   0.0000       6.820039       185.5827 
 457   0.0000       6.857994       186.6155 
 458   0.0000       6.950663       189.1372 
 459   0.0000       7.064994       192.2482 
 460   0.0000       7.110663       193.4910 
 461   0.0000       7.261472       197.5947 
 462   0.0000       7.372918       200.6273 
 463   0.0000       7.405074       201.5023 
 464   0.0000       7.454277       202.8412 
 465   0.0000      22.766847       619.5174 
 466   0.0000      22.789902       620.1448 
 467   0.0000      22.823502       621.0591 
 468   0.0000      23.520748       640.0321 
 469   0.0000      23.783293       647.1763 
 470   0.0000      32.402271       881.7106 
 471   0.0000      32.518971       884.8862 
 472   0.0000      32.900738       895.2746 
 473   0.0000      44.560463      1212.5518 
 474   0.0000      44.567229      1212.7360 

                    ********************************
                    * MULLIKEN POPULATION ANALYSIS *
                    ********************************

-----------------------
MULLIKEN ATOMIC CHARGES
-----------------------
   0 C :   -0.504278
   1 N :   -0.189778
   2 C :   -0.695135
   3 C :   -0.420926
   4 H :    0.267772
   5 H :    0.279845
   6 C :    0.732850
   7 C :    0.485640
   8 N :   -0.371255
   9 N :   -0.438237
  10 H :    0.213731
  11 H :    0.242296
  12 H :    0.294415
  13 H :    0.307856
  14 H :    0.211987
  15 H :    0.321154
  16 H :    0.223321
  17 H :    0.291292
  18 H :    0.256545
  19 O :   -0.702873
  20 O :   -0.806223
Sum of atomic charges:   -0.0000000

--------------------------------
MULLIKEN REDUCED ORBITAL CHARGES
--------------------------------
  0 C s       :     3.417175  s :     3.417175
      pz      :     1.196084  p :     3.038002
      px      :     0.856985
      py      :     0.984933
      dz2     :    -0.018875  d :     0.040853
      dxz     :     0.014071
      dyz     :     0.032353
      dx2y2   :     0.006835
      dxy     :     0.006469
      f0      :     0.000484  f :     0.008248
      f+1     :     0.001118
      f-1     :     0.000840
      f+2     :     0.001798
      f-2     :     0.000464
      f+3     :     0.001802
      f-3     :     0.001742
  1 N s       :     3.452956  s :     3.452956
      pz      :     1.120645  p :     3.648843
      px      :     1.059614
      py      :     1.468583
      dz2     :     0.017238  d :     0.084197
      dxz     :     0.031202
      dyz     :     0.015375
      dx2y2   :     0.004509
      dxy     :     0.015873
      f0      :     0.000814  f :     0.003782
      f+1     :     0.000491
      f-1     :     0.000493
      f+2     :     0.000533
      f-2     :     0.000573
      f+3     :     0.000441
      f-3     :     0.000437
  2 C s       :     3.385652  s :     3.385652
      pz      :     1.185027  p :     3.294243
      px      :     1.242939
      py      :     0.866277
      dz2     :    -0.003545  d :     0.009557
      dxz     :     0.018596
      dyz     :     0.002111
      dx2y2   :     0.032044
      dxy     :    -0.039650
      f0      :     0.000521  f :     0.005682
      f+1     :     0.000219
      f-1     :     0.001205
      f+2     :     0.001839
      f-2     :     0.000724
      f+3     :     0.000760
      f-3     :     0.000413
  3 C s       :     3.242705  s :     3.242705
      pz      :     0.999505  p :     3.123697
      px      :     1.065006
      py      :     1.059185
      dz2     :    -0.005368  d :     0.049084
      dxz     :     0.018938
      dyz     :     0.017299
      dx2y2   :     0.045439
      dxy     :    -0.027224
      f0      :     0.000598  f :     0.005441
      f+1     :     0.000653
      f-1     :     0.000640
      f+2     :     0.001906
      f-2     :     0.000925
      f+3     :     0.000349
      f-3     :     0.000369
  4 H s       :     0.689671  s :     0.689671
      pz      :     0.009847  p :     0.042557
      px      :     0.001839
      py      :     0.030872
  5 H s       :     0.673724  s :     0.673724
      pz      :     0.010046  p :     0.046431
      px      :     0.028908
      py      :     0.007476
  6 C s       :     3.085331  s :     3.085331
      pz      :     0.593378  p :     1.816459
      px      :     0.582896
      py      :     0.640186
      dz2     :     0.057113  d :     0.338817
      dxz     :     0.129095
      dyz     :     0.058396
      dx2y2   :     0.042209
      dxy     :     0.052005
      f0      :     0.004289  f :     0.026542
      f+1     :     0.007372
      f-1     :     0.002310
      f+2     :     0.003992
      f-2     :     0.003349
      f+3     :     0.002165
      f-3     :     0.003065
  7 C s       :     3.278099  s :     3.278099
      pz      :     0.661278  p :     1.995248
      px      :     0.588992
      py      :     0.744978
      dz2     :     0.040427  d :     0.217421
      dxz     :     0.069492
      dyz     :     0.054762
      dx2y2   :     0.034517
      dxy     :     0.018223
      f0      :     0.003383  f :     0.023592
      f+1     :     0.004281
      f-1     :     0.003386
      f+2     :     0.003748
      f-2     :     0.003003
      f+3     :     0.003180
      f-3     :     0.002611
  8 N s       :     3.539398  s :     3.539398
      pz      :     1.288217  p :     3.811478
      px      :     1.207513
      py      :     1.315747
      dz2     :     0.002740  d :     0.017491
      dxz     :    -0.001980
      dyz     :     0.002481
      dx2y2   :     0.007582
      dxy     :     0.006668
      f0      :     0.000343  f :     0.002888
      f+1     :     0.000535
      f-1     :     0.000316
      f+2     :     0.000424
      f-2     :     0.000383
      f+3     :     0.000391
      f-3     :     0.000497
  9 N s       :     3.512378  s :     3.512378
      pz      :     1.130343  p :     3.891210
      px      :     1.271059
      py      :     1.489807
      dz2     :     0.001602  d :     0.031619
      dxz     :     0.004417
      dyz     :     0.008338
      dx2y2   :     0.009974
      dxy     :     0.007289
      f0      :     0.000658  f :     0.003029
      f+1     :     0.000209
      f-1     :     0.000397
      f+2     :     0.000286
      f-2     :     0.000399
      f+3     :     0.000529
      f-3     :     0.000551
 10 H s       :     0.740055  s :     0.740055
      pz      :     0.027617  p :     0.046215
      px      :     0.012209
      py      :     0.006389
 11 H s       :     0.725038  s :     0.725038
      pz      :    -0.001737  p :     0.032667
      px      :     0.024335
      py      :     0.010069
 12 H s       :     0.687781  s :     0.687781
      pz      :     0.009327  p :     0.017804
      px      :     0.006683
      py      :     0.001794
 13 H s       :     0.670144  s :     0.670144
      pz      :     0.011400  p :     0.022000
      px      :    -0.010317
      py      :     0.020917
 14 H s       :     0.758584  s :     0.758584
      pz      :     0.016402  p :     0.029429
      px      :     0.003450
      py      :     0.009577
 15 H s       :     0.627568  s :     0.627568
      pz      :     0.029420  p :     0.051278
      px      :     0.020670
      py      :     0.001188
 16 H s       :     0.688117  s :     0.688117
      pz      :     0.032670  p :     0.088562
      px      :     0.032835
      py      :     0.023057
 17 H s       :     0.660280  s :     0.660280
      pz      :     0.025356  p :     0.048429
      px      :     0.007864
      py      :     0.015209
 18 H s       :     0.677366  s :     0.677366
      pz      :     0.024377  p :     0.066089
      px      :     0.029383
      py      :     0.012329
 19 O s       :     4.026785  s :     4.026785
      pz      :     1.329006  p :     4.655208
      px      :     1.827412
      py      :     1.498790
      dz2     :     0.008736  d :     0.019292
      dxz     :     0.000183
      dyz     :     0.008478
      dx2y2   :     0.001987
      dxy     :    -0.000092
      f0      :     0.000465  f :     0.001589
      f+1     :     0.000333
      f-1     :     0.000313
      f+2     :     0.000214
      f-2     :     0.000190
      f+3     :     0.000036
      f-3     :     0.000038
 20 O s       :     4.037006  s :     4.037006
      pz      :     1.752373  p :     4.749054
      px      :     1.354216
      py      :     1.642465
      dz2     :     0.001662  d :     0.018674
      dxz     :     0.004052
      dyz     :     0.000911
      dx2y2   :     0.003271
      dxy     :     0.008778
      f0      :     0.000155  f :     0.001489
      f+1     :     0.000350
      f-1     :     0.000019
      f+2     :     0.000290
      f-2     :     0.000172
      f+3     :     0.000211
      f-3     :     0.000292


                     *******************************
                     * LOEWDIN POPULATION ANALYSIS *
                     *******************************

----------------------
LOEWDIN ATOMIC CHARGES
----------------------
   0 C :   -0.164121
   1 N :    0.090046
   2 C :   -0.181084
   3 C :   -0.120189
   4 H :    0.113776
   5 H :    0.110485
   6 C :   -0.712948
   7 C :   -0.473279
   8 N :    0.200917
   9 N :    0.197232
  10 H :    0.125992
  11 H :    0.114165
  12 H :    0.143812
  13 H :    0.075103
  14 H :    0.126594
  15 H :    0.121663
  16 H :    0.117221
  17 H :    0.116588
  18 H :    0.111834
  19 O :   -0.036317
  20 O :   -0.077490

-------------------------------
LOEWDIN REDUCED ORBITAL CHARGES
-------------------------------
  0 C s       :     2.664259  s :     2.664259
      pz      :     0.928252  p :     2.663503
      px      :     0.800840
      py      :     0.934411
      dz2     :     0.089261  d :     0.781708
      dxz     :     0.161153
      dyz     :     0.168394
      dx2y2   :     0.172669
      dxy     :     0.190230
      f0      :     0.004454  f :     0.054652
      f+1     :     0.008032
      f-1     :     0.005968
      f+2     :     0.007768
      f-2     :     0.004679
      f+3     :     0.012349
      f-3     :     0.011401
  1 N s       :     2.841356  s :     2.841356
      pz      :     1.129980  p :     3.405895
      px      :     1.071340
      py      :     1.204575
      dz2     :     0.125758  d :     0.646325
      dxz     :     0.191576
      dyz     :     0.093264
      dx2y2   :     0.113129
      dxy     :     0.122598
      f0      :     0.003583  f :     0.016378
      f+1     :     0.003106
      f-1     :     0.002077
      f+2     :     0.001976
      f-2     :     0.002211
      f+3     :     0.001715
      f-3     :     0.001711
  2 C s       :     2.671786  s :     2.671786
      pz      :     0.922498  p :     2.746173
      px      :     0.924593
      py      :     0.899082
      dz2     :     0.118204  d :     0.724015
      dxz     :     0.160016
      dyz     :     0.168356
      dx2y2   :     0.181771
      dxy     :     0.095668
      f0      :     0.005780  f :     0.039109
      f+1     :     0.002458
      f-1     :     0.008061
      f+2     :     0.007274
      f-2     :     0.004741
      f+3     :     0.006540
      f-3     :     0.004254
  3 C s       :     2.672695  s :     2.672695
      pz      :     0.912784  p :     2.737830
      px      :     0.913438
      py      :     0.911608
      dz2     :     0.129817  d :     0.672422
      dxz     :     0.169782
      dyz     :     0.142125
      dx2y2   :     0.159031
      dxy     :     0.071667
      f0      :     0.007039  f :     0.037242
      f+1     :     0.004458
      f-1     :     0.005077
      f+2     :     0.007117
      f-2     :     0.005763
      f+3     :     0.003891
      f-3     :     0.003896
  4 H s       :     0.682552  s :     0.682552
      pz      :     0.059352  p :     0.203672
      px      :     0.056794
      py      :     0.087526
  5 H s       :     0.680136  s :     0.680136
      pz      :     0.071427  p :     0.209379
      px      :     0.085432
      py      :     0.052520
  6 C s       :     2.638650  s :     2.638650
      pz      :     0.863600  p :     2.407212
      px      :     0.885614
      py      :     0.657998
      dz2     :     0.337056  d :     1.501569
      dxz     :     0.452447
      dyz     :     0.235139
      dx2y2   :     0.229685
      dxy     :     0.247243
      f0      :     0.026446  f :     0.165517
      f+1     :     0.044650
      f-1     :     0.016574
      f+2     :     0.023528
      f-2     :     0.020136
      f+3     :     0.015432
      f-3     :     0.018751
  7 C s       :     2.592662  s :     2.592662
      pz      :     0.839931  p :     2.398092
      px      :     0.842197
      py      :     0.715963
      dz2     :     0.297994  d :     1.349511
      dxz     :     0.296562
      dyz     :     0.255443
      dx2y2   :     0.286956
      dxy     :     0.212554
      f0      :     0.020158  f :     0.133014
      f+1     :     0.025627
      f-1     :     0.019840
      f+2     :     0.020899
      f-2     :     0.014247
      f+3     :     0.016222
      f-3     :     0.016023
  8 N s       :     2.911172  s :     2.911172
      pz      :     1.151575  p :     3.512848
      px      :     1.202954
      py      :     1.158319
      dz2     :     0.071068  d :     0.362935
      dxz     :     0.080904
      dyz     :     0.035806
      dx2y2   :     0.091576
      dxy     :     0.083581
      f0      :     0.001385  f :     0.012127
      f+1     :     0.001828
      f-1     :     0.001200
      f+2     :     0.002142
      f-2     :     0.000964
      f+3     :     0.001893
      f-3     :     0.002715
  9 N s       :     2.913605  s :     2.913605
      pz      :     1.092239  p :     3.545521
      px      :     1.156348
      py      :     1.296935
      dz2     :     0.100581  d :     0.332217
      dxz     :     0.054620
      dyz     :     0.054805
      dx2y2   :     0.059553
      dxy     :     0.062658
      f0      :     0.001781  f :     0.011425
      f+1     :     0.000914
      f-1     :     0.001902
      f+2     :     0.001829
      f-2     :     0.002144
      f+3     :     0.001277
      f-3     :     0.001577
 10 H s       :     0.615971  s :     0.615971
      pz      :     0.115067  p :     0.258037
      px      :     0.063080
      py      :     0.079890
 11 H s       :     0.615232  s :     0.615232
      pz      :     0.070455  p :     0.270604
      px      :     0.115505
      py      :     0.084644
 12 H s       :     0.569615  s :     0.569615
      pz      :     0.079503  p :     0.286573
      px      :     0.091382
      py      :     0.115688
 13 H s       :     0.561766  s :     0.561766
      pz      :     0.084810  p :     0.363131
      px      :     0.077310
      py      :     0.201010
 14 H s       :     0.622943  s :     0.622943
      pz      :     0.118455  p :     0.250462
      px      :     0.069925
      py      :     0.062082
 15 H s       :     0.659888  s :     0.659888
      pz      :     0.097883  p :     0.218450
      px      :     0.058100
      py      :     0.062466
 16 H s       :     0.691804  s :     0.691804
      pz      :     0.074588  p :     0.190975
      px      :     0.047557
      py      :     0.068830
 17 H s       :     0.674224  s :     0.674224
      pz      :     0.071953  p :     0.209188
      px      :     0.085725
      py      :     0.051510
 18 H s       :     0.685310  s :     0.685310
      pz      :     0.061686  p :     0.202856
      px      :     0.090104
      py      :     0.051066
 19 O s       :     3.331446  s :     3.331446
      pz      :     1.460830  p :     4.436906
      px      :     1.608270
      py      :     1.367807
      dz2     :     0.073195  d :     0.262343
      dxz     :     0.076261
      dyz     :     0.062068
      dx2y2   :     0.023302
      dxy     :     0.027517
      f0      :     0.001290  f :     0.005621
      f+1     :     0.001335
      f-1     :     0.001430
      f+2     :     0.000643
      f-2     :     0.000758
      f+3     :     0.000078
      f-3     :     0.000087
 20 O s       :     3.320240  s :     3.320240
      pz      :     1.560569  p :     4.464579
      px      :     1.469710
      py      :     1.434300
      dz2     :     0.044895  d :     0.287368
      dxz     :     0.072183
      dyz     :     0.031027
      dx2y2   :     0.080979
      dxy     :     0.058284
      f0      :     0.000555  f :     0.005303
      f+1     :     0.001256
      f-1     :     0.000026
      f+2     :     0.001197
      f-2     :     0.000505
      f+3     :     0.001078
      f-3     :     0.000686


                      *****************************
                      * MAYER POPULATION ANALYSIS *
                      *****************************

  NA   - Mulliken gross atomic population
  ZA   - Total nuclear charge
  QA   - Mulliken gross atomic charge
  VA   - Mayer's total valence
  BVA  - Mayer's bonded valence
  FA   - Mayer's free valence

  ATOM       NA         ZA         QA         VA         BVA        FA
  0 C      6.5043     6.0000    -0.5043     3.4203     3.4203    -0.0000
  1 N      7.1898     7.0000    -0.1898     2.9822     2.9822    -0.0000
  2 C      6.6951     6.0000    -0.6951     3.6232     3.6232     0.0000
  3 C      6.4209     6.0000    -0.4209     3.6347     3.6347    -0.0000
  4 H      0.7322     1.0000     0.2678     0.9836     0.9836     0.0000
  5 H      0.7202     1.0000     0.2798     1.0031     1.0031    -0.0000
  6 C      5.2671     6.0000     0.7329     3.3951     3.3951    -0.0000
  7 C      5.5144     6.0000     0.4856     3.5584     3.5584     0.0000
  8 N      7.3713     7.0000    -0.3713     2.9039     2.9039    -0.0000
  9 N      7.4382     7.0000    -0.4382     3.0096     3.0096     0.0000
 10 H      0.7863     1.0000     0.2137     0.9852     0.9852     0.0000
 11 H      0.7577     1.0000     0.2423     0.9117     0.9117    -0.0000
 12 H      0.7056     1.0000     0.2944     0.8649     0.8649     0.0000
 13 H      0.6921     1.0000     0.3079     0.9529     0.9529    -0.0000
 14 H      0.7880     1.0000     0.2120     0.9192     0.9192     0.0000
 15 H      0.6788     1.0000     0.3212     0.9827     0.9827    -0.0000
 16 H      0.7767     1.0000     0.2233     1.0924     1.0924    -0.0000
 17 H      0.7087     1.0000     0.2913     0.9739     0.9739     0.0000
 18 H      0.7435     1.0000     0.2565     1.0306     1.0306     0.0000
 19 O      8.7029     8.0000    -0.7029     1.6381     1.6381    -0.0000
 20 O      8.8062     8.0000    -0.8062     1.4713     1.4713    -0.0000

  Mayer bond orders larger than 0.100000
B(  0-C ,  1-N ) :   0.8003 B(  0-C ,  2-C ) :   0.8010 B(  0-C , 15-H ) :   0.8515 
B(  0-C , 16-H ) :   1.0645 B(  1-N ,  7-C ) :   1.2994 B(  1-N , 12-H ) :   0.8216 
B(  2-C ,  3-C ) :   0.8264 B(  2-C , 17-H ) :   0.9390 B(  2-C , 18-H ) :   1.0055 
B(  3-C ,  4-H ) :   0.9549 B(  3-C ,  5-H ) :   0.9893 B(  3-C ,  6-C ) :   0.8708 
B(  6-C , 19-O ) :   1.3796 B(  6-C , 20-O ) :   1.1908 B(  7-C ,  8-N ) :   1.1459 
B(  7-C ,  9-N ) :   0.9424 B(  7-C , 19-O ) :   0.1188 B(  8-N , 13-H ) :   0.7865 
B(  8-N , 14-H ) :   0.9088 B(  9-N , 10-H ) :   0.9520 B(  9-N , 11-H ) :   0.9095 
B( 13-H , 20-O ) :   0.1493 

-------
TIMINGS
-------

Total SCF time: 0 days 0 hours 3 min 36 sec 

Total time                  ....     216.379 sec
Sum of individual times     ....     215.751 sec  ( 99.7%)

Fock matrix formation       ....     211.059 sec  ( 97.5%)
  Split-RI-J                ....       8.292 sec  (  3.9% of F)
  Chain of spheres X        ....     184.753 sec  ( 87.5% of F)
  XC integration            ....      17.823 sec  (  8.4% of F)
    Basis function eval.    ....       3.703 sec  ( 20.8% of XC)
    Density eval.           ....       5.501 sec  ( 30.9% of XC)
    XC-Functional eval.     ....       0.887 sec  (  5.0% of XC)
    XC-Potential eval.      ....       7.325 sec  ( 41.1% of XC)
Diagonalization             ....       0.523 sec  (  0.2%)
Density matrix formation    ....       0.031 sec  (  0.0%)
Population analysis         ....       0.063 sec  (  0.0%)
Initial guess               ....       0.951 sec  (  0.4%)
Orbital Transformation      ....       0.000 sec  (  0.0%)
Orbital Orthonormalization  ....       0.000 sec  (  0.0%)
DIIS solution               ....       0.279 sec  (  0.1%)
SOSCF solution              ....       0.276 sec  (  0.1%)
Grid generation             ....       2.569 sec  (  1.2%)

Maximum memory used throughout the entire SCF-calculation: 107.5 MB

-------------------------   --------------------
FINAL SINGLE POINT ENERGY      -511.861949036824
-------------------------   --------------------


                            ***************************************
                            *     ORCA property calculations      *
                            ***************************************

                                    ---------------------
                                    Active property flags
                                    ---------------------
   (+) Dipole Moment


------------------------------------------------------------------------------
                       ORCA ELECTRIC PROPERTIES CALCULATION
------------------------------------------------------------------------------

Dipole Moment Calculation                       ... on
Quadrupole Moment Calculation                   ... off
Polarizability Calculation                      ... off
GBWName                                         ... 28Oct_TZVPD_CAMB3LYP_B_wt_wb97.gbw
Electron density file                           ... 28Oct_TZVPD_CAMB3LYP_B_wt_wb97.scfp
The origin for moment calculation is the CENTER OF MASS  = ( 9.617607,  3.948296 -9.344697)

-------------
DIPOLE MOMENT
-------------
                                X             Y             Z
Electronic contribution:      4.14320       0.40673      -3.40847
Nuclear contribution   :     -4.94498       2.03334       3.78956
                        -----------------------------------------
Total Dipole Moment    :     -0.80178       2.44007       0.38109
                        -----------------------------------------
Magnitude (a.u.)       :      2.59654
Magnitude (Debye)      :      6.59989



--------------------
Rotational spectrum 
--------------------
 
Rotational constants in cm-1:     0.062533     0.042832     0.033687 
Rotational constants in MHz :  1874.701390  1284.063603  1009.911042 

 Dipole components along the rotational axes: 
x,y,z [a.u.] :    -1.527248    -2.081577     0.276738 
x,y,z [Debye]:    -3.881956    -5.290947     0.703412 

 

Timings for individual modules:

Sum of individual times         ...      217.583 sec (=   3.626 min)
GTO integral calculation        ...        0.813 sec (=   0.014 min)   0.4 %
SCF iterations                  ...      216.770 sec (=   3.613 min)  99.6 %
                             ****ORCA TERMINATED NORMALLY****
TOTAL RUN TIME: 0 days 0 hours 3 minutes 38 seconds 178 msec
