
                                        *****************
                                        * O   R   C   A *
                                        *****************

                                            #,                                       
                                            ###                                      
                                            ####                                     
                                            #####                                    
                                            ######                                   
                                           ########,                                 
                                     ,,################,,,,,                         
                               ,,#################################,,                 
                          ,,##########################################,,             
                       ,#########################################, ''#####,          
                    ,#############################################,,   '####,        
                  ,##################################################,,,,####,       
                ,###########''''           ''''###############################       
              ,#####''   ,,,,##########,,,,          '''####'''          '####       
            ,##' ,,,,###########################,,,                        '##       
           ' ,,###''''                  '''############,,,                           
         ,,##''                                '''############,,,,        ,,,,,,###''
      ,#''                                            '''#######################'''  
     '                                                          ''''####''''         
             ,#######,   #######,   ,#######,      ##                                
            ,#'     '#,  ##    ##  ,#'     '#,    #''#        ######   ,####,        
            ##       ##  ##   ,#'  ##            #'  '#       #        #'  '#        
            ##       ##  #######   ##           ,######,      #####,   #    #        
            '#,     ,#'  ##    ##  '#,     ,#' ,#      #,         ##   #,  ,#        
             '#######'   ##     ##  '#######'  #'      '#     #####' # '####'        



                  #######################################################
                  #                        -***-                        #
                  #          Department of theory and spectroscopy      #
                  #    Directorship and core code : Frank Neese         #
                  #        Max Planck Institute fuer Kohlenforschung    #
                  #                Kaiser Wilhelm Platz 1               #
                  #                 D-45470 Muelheim/Ruhr               #
                  #                      Germany                        #
                  #                                                     #
                  #                  All rights reserved                #
                  #                        -***-                        #
                  #######################################################


                         Program Version 5.0.0 -  RELEASE  -
                                (SVN: $Rev: 19529$)
                ($Date: 2021-06-28 11:36:33 +0200 (Mo, 28 Jun 2021) $)


 With contributions from (in alphabetic order):
   Daniel Aravena         : Magnetic Suceptibility
   Michael Atanasov       : Ab Initio Ligand Field Theory (pilot matlab implementation)
   Alexander A. Auer      : GIAO ZORA, VPT2 properties, NMR spectrum
   Ute Becker             : Parallelization
   Giovanni Bistoni       : ED, misc. LED, open-shell LED, HFLD
   Martin Brehm           : Molecular dynamics
   Dmytro Bykov           : SCF Hessian
   Vijay G. Chilkuri      : MRCI spin determinant printing, contributions to CSF-ICE
   Dipayan Datta          : RHF DLPNO-CCSD density
   Achintya Kumar Dutta   : EOM-CC, STEOM-CC
   Dmitry Ganyushin       : Spin-Orbit,Spin-Spin,Magnetic field MRCI
   Miquel Garcia          : C-PCM Hessian, Gaussian charge scheme
   Yang Guo               : DLPNO-NEVPT2, F12-NEVPT2, CIM, IAO-localization
   Andreas Hansen         : Spin unrestricted coupled pair/coupled cluster methods
   Benjamin Helmich-Paris : MC-RPA, TRAH-SCF, COSX integrals
   Lee Huntington         : MR-EOM, pCC
   Robert Izsak           : Overlap fitted RIJCOSX, COSX-SCS-MP3, EOM
   Marcus Kettner         : VPT2
   Christian Kollmar      : KDIIS, OOCD, Brueckner-CCSD(T), CCSD density, CASPT2, CASPT2-K
   Simone Kossmann        : Meta GGA functionals, TD-DFT gradient, OOMP2, MP2 Hessian
   Martin Krupicka        : Initial AUTO-CI
   Lucas Lang             : DCDCAS
   Marvin Lechner         : AUTO-CI (C++ implementation), FIC-MRCC
   Dagmar Lenk            : GEPOL surface, SMD
   Dimitrios Liakos       : Extrapolation schemes; Compound Job, initial MDCI parallelization
   Dimitrios Manganas     : Further ROCIS development; embedding schemes
   Dimitrios Pantazis     : SARC Basis sets
   Anastasios Papadopoulos: AUTO-CI, single reference methods and gradients
   Taras Petrenko         : DFT Hessian,TD-DFT gradient, ASA, ECA, R-Raman, ABS, FL, XAS/XES, NRVS
   Peter Pinski           : DLPNO-MP2, DLPNO-MP2 Gradient
   Christoph Reimann      : Effective Core Potentials
   Marius Retegan         : Local ZFS, SOC
   Christoph Riplinger    : Optimizer, TS searches, QM/MM, DLPNO-CCSD(T), (RO)-DLPNO pert. Triples
   Tobias Risthaus        : Range-separated hybrids, TD-DFT gradient, RPA, STAB
   Michael Roemelt        : Original ROCIS implementation
   Masaaki Saitow         : Open-shell DLPNO-CCSD energy and density
   Barbara Sandhoefer     : DKH picture change effects
   Avijit Sen             : IP-ROCIS
   Kantharuban Sivalingam : CASSCF convergence, NEVPT2, FIC-MRCI
   Bernardo de Souza      : ESD, SOC TD-DFT
   Georgi Stoychev        : AutoAux, RI-MP2 NMR
   Willem Van den Heuvel  : Paramagnetic NMR
   Boris Wezisla          : Elementary symmetry handling
   Frank Wennmohs         : Technical directorship


 We gratefully acknowledge several colleagues who have allowed us to
 interface, adapt or use parts of their codes:
   Stefan Grimme, W. Hujo, H. Kruse, P. Pracht,  : VdW corrections, initial TS optimization,
                  C. Bannwarth, S. Ehlert          DFT functionals, gCP, sTDA/sTD-DF
   Ed Valeev, F. Pavosevic, A. Kumar             : LibInt (2-el integral package), F12 methods
   Garnet Chan, S. Sharma, J. Yang, R. Olivares  : DMRG
   Ulf Ekstrom                                   : XCFun DFT Library
   Mihaly Kallay                                 : mrcc  (arbitrary order and MRCC methods)
   Jiri Pittner, Ondrej Demel                    : Mk-CCSD
   Frank Weinhold                                : gennbo (NPA and NBO analysis)
   Christopher J. Cramer and Donald G. Truhlar   : smd solvation model
   Lars Goerigk                                  : TD-DFT with DH, B97 family of functionals
   V. Asgeirsson, H. Jonsson                     : NEB implementation
   FAccTs GmbH                                   : IRC, NEB, NEB-TS, DLPNO-Multilevel, CI-OPT
                                                   MM, QMMM, 2- and 3-layer-ONIOM, Crystal-QMMM,
                                                   LR-CPCM, SF, NACMEs, symmetry and pop. for TD-DFT,
                                                   nearIR, NL-DFT gradient (VV10), updates on ESD,
                                                   ML-optimized integration grids
   S Lehtola, MJT Oliveira, MAL Marques          : LibXC Library
   Liviu Ungur et al                             : ANISO software


 Your calculation uses the libint2 library for the computation of 2-el integrals
 For citations please refer to: http://libint.valeyev.net

 Your ORCA version has been built with support for libXC version: 5.1.0
 For citations please refer to: https://tddft.org/programs/libxc/

 This ORCA versions uses:
   CBLAS   interface :  Fast vector & matrix operations
   LAPACKE interface :  Fast linear algebra routines
   SCALAPACK package :  Parallel linear algebra routines
   Shared memory     :  Shared parallel matrices
   BLAS/LAPACK       :  OpenBLAS 0.3.15  USE64BITINT DYNAMIC_ARCH NO_AFFINITY Haswell SINGLE_THREADED
        Core in use  :  Haswell
   Copyright (c) 2011-2014, The OpenBLAS Project


Your calculation utilizes the atom-pairwise dispersion correction
with the Becke-Johnson damping scheme (D3BJ)
Cite in your paper:
S.Grimme, S.Ehrlich, L.Goerigk, J Comput Chem, (2011), 32, 1456–1465 
S.Grimme, J.Antony, S.Ehrlich and H.Krieg, J.Chem.Phys., 132, (2010), 154104 
   

================================================================================

----- Orbital basis set information -----
Your calculation utilizes the basis: def2-TZVPD
   F. Weigend and R. Ahlrichs, Phys. Chem. Chem. Phys. 7, 3297 (2005).
   D. Rappoport and F. Furche, J. Chem. Phys. 133 134105 (2010).

----- AuxJ basis set information -----
Your calculation utilizes the auxiliary basis: def2/J
   F. Weigend, Phys. Chem. Chem. Phys. 8, 1057 (2006).

================================================================================
                                        WARNINGS
                       Please study these warnings very carefully!
================================================================================



WARNING: Found flag for RIJCOSX approximation but no HF exchange needed!
  ===> : RIJCOSX  will be disabled and Split-RI-J is turned on

INFO   : the flag for use of the SHARK integral package has been found!

================================================================================
                                       INPUT FILE
================================================================================
NAME = TZVPD_BLYP_C1_wt_dlpno_pos.com
|  1> !BLYP D3BJ RIJCOSX def2-TZVPD def2/J TightSCF
|  2> *xyz 0 1
|  3> C          3.38093        2.08304       -3.35013
|  4> C          4.53592        1.18245       -3.42852
|  5> C          2.49556        1.81615       -2.13636
|  6> C          4.67196        0.12227       -4.22060
|  7> N          5.86602       -0.50785       -4.22428
|  8> N          3.69888       -0.31284       -4.98699
|  9> H          2.73141       -0.05009       -4.84900
| 10> H          3.89005       -1.05517       -5.64373
| 11> H          5.25193        1.30346       -2.72101
| 12> H          6.69516       -0.06232       -3.85160
| 13> H          5.97538       -1.39688       -4.69141
| 14> H          2.80646        1.98651       -4.26848
| 15> H          3.77871        3.09828       -3.30738
| 16> H          2.11090        0.81901       -2.18783
| 17> H          1.68276        2.51198       -2.12786
| 18> H          3.07216        1.93031       -1.24227
| 19> *
| 20> 
| 21> %MaxCore 64000
| 22> 
| 23> %pal nprocs 4
| 24> end  
| 25> 
| 26> %scf
| 27>   MaxIter 150
| 28> end
| 29> 
| 30> 
| 31>                          ****END OF INPUT****
================================================================================

                       ****************************
                       * Single Point Calculation *
                       ****************************

---------------------------------
CARTESIAN COORDINATES (ANGSTROEM)
---------------------------------
  C      3.380930    2.083040   -3.350130
  C      4.535920    1.182450   -3.428520
  C      2.495560    1.816150   -2.136360
  C      4.671960    0.122270   -4.220600
  N      5.866020   -0.507850   -4.224280
  N      3.698880   -0.312840   -4.986990
  H      2.731410   -0.050090   -4.849000
  H      3.890050   -1.055170   -5.643730
  H      5.251930    1.303460   -2.721010
  H      6.695160   -0.062320   -3.851600
  H      5.975380   -1.396880   -4.691410
  H      2.806460    1.986510   -4.268480
  H      3.778710    3.098280   -3.307380
  H      2.110900    0.819010   -2.187830
  H      1.682760    2.511980   -2.127860
  H      3.072160    1.930310   -1.242270

----------------------------
CARTESIAN COORDINATES (A.U.)
----------------------------
  NO LB      ZA    FRAG     MASS         X           Y           Z
   0 C     6.0000    0    12.011    6.389032    3.936375   -6.330828
   1 C     6.0000    0    12.011    8.571647    2.234507   -6.478964
   2 C     6.0000    0    12.011    4.715925    3.432026   -4.037135
   3 C     6.0000    0    12.011    8.828725    0.231057   -7.975778
   4 N     7.0000    0    14.007   11.085171   -0.959697   -7.982732
   5 N     7.0000    0    14.007    6.989870   -0.591182   -9.424045
   6 H     1.0000    0     1.008    5.161617   -0.094656   -9.163282
   7 H     1.0000    0     1.008    7.351129   -1.993982  -10.665104
   8 H     1.0000    0     1.008    9.924709    2.463182   -5.141964
   9 H     1.0000    0     1.008   12.652019   -0.117768   -7.278469
  10 H     1.0000    0     1.008   11.291832   -2.639721   -8.865480
  11 H     1.0000    0     1.008    5.303441    3.753960   -8.066258
  12 H     1.0000    0     1.008    7.140727    5.854901   -6.250042
  13 H     1.0000    0     1.008    3.989023    1.547705   -4.134400
  14 H     1.0000    0     1.008    3.179956    4.746954   -4.021073
  15 H     1.0000    0     1.008    5.805541    3.647757   -2.347550

--------------------------------
INTERNAL COORDINATES (ANGSTROEM)
--------------------------------
 C      0   0   0     0.000000000000     0.00000000     0.00000000
 C      1   0   0     1.466700119418     0.00000000     0.00000000
 C      1   2   0     1.525892500113   113.08111731     0.00000000
 C      2   1   3     1.330368084554   126.98938656   102.39062418
 N      4   2   1     1.350127416357   117.64459308   174.24709975
 N      4   2   1     1.312843871372   122.40398904   354.61462441
 H      6   4   2     1.011966898421   122.88508084   342.67073608
 H      6   4   2     1.009409344815   118.89240317   173.11235798
 H      2   1   3     1.013846211365   116.45877876   291.29629415
 H      5   4   2     1.012353941515   121.19466995   343.47510404
 H      5   4   2     1.010219969809   120.51230720   170.23250373
 H      1   2   3     1.087520365005   108.44174395   237.12574124
 H      1   2   3     1.091223509873   106.63701105   121.10186677
 H      3   1   2     1.070000306589   109.47067085   299.14133701
 H      3   1   2     1.069997887334   109.47128745   179.14208237
 H      3   1   2     1.069998595186   109.47169847    59.14222448

---------------------------
INTERNAL COORDINATES (A.U.)
---------------------------
 C      0   0   0     0.000000000000     0.00000000     0.00000000
 C      1   0   0     2.771661546289     0.00000000     0.00000000
 C      1   2   0     2.883518935017   113.08111731     0.00000000
 C      2   1   3     2.514031337117   126.98938656   102.39062418
 N      4   2   1     2.551371062814   117.64459308   174.24709975
 N      4   2   1     2.480915373491   122.40398904   354.61462441
 H      6   4   2     1.912340294610   122.88508084   342.67073608
 H      6   4   2     1.907507218721   118.89240317   173.11235798
 H      2   1   3     1.915891681394   116.45877876   291.29629415
 H      5   4   2     1.913071700058   121.19466995   343.47510404
 H      5   4   2     1.909039077956   120.51230720   170.23250373
 H      1   2   3     2.055115654921   108.44174395   237.12574124
 H      1   2   3     2.062113584557   106.63701105   121.10186677
 H      3   1   2     2.022007542664   109.47067085   299.14133701
 H      3   1   2     2.022002970936   109.47128745   179.14208237
 H      3   1   2     2.022004308582   109.47169847    59.14222448

---------------------
BASIS SET INFORMATION
---------------------
There are 3 groups of distinct atoms

 Group   1 Type C   : 12s6p3d1f contracted to 6s3p3d1f pattern {621111/411/111/1}
 Group   2 Type N   : 12s6p3d1f contracted to 6s3p3d1f pattern {621111/411/111/1}
 Group   3 Type H   : 5s2p contracted to 3s2p pattern {311/11}

Atom   0C    basis set group =>   1
Atom   1C    basis set group =>   1
Atom   2C    basis set group =>   1
Atom   3C    basis set group =>   1
Atom   4N    basis set group =>   2
Atom   5N    basis set group =>   2
Atom   6H    basis set group =>   3
Atom   7H    basis set group =>   3
Atom   8H    basis set group =>   3
Atom   9H    basis set group =>   3
Atom  10H    basis set group =>   3
Atom  11H    basis set group =>   3
Atom  12H    basis set group =>   3
Atom  13H    basis set group =>   3
Atom  14H    basis set group =>   3
Atom  15H    basis set group =>   3
---------------------------------
AUXILIARY/J BASIS SET INFORMATION
---------------------------------
There are 3 groups of distinct atoms

 Group   1 Type C   : 12s5p4d2f1g contracted to 6s4p3d1f1g pattern {711111/2111/211/2/1}
 Group   2 Type N   : 12s5p4d2f1g contracted to 6s4p3d1f1g pattern {711111/2111/211/2/1}
 Group   3 Type H   : 5s2p1d contracted to 3s1p1d pattern {311/2/1}

Atom   0C    basis set group =>   1
Atom   1C    basis set group =>   1
Atom   2C    basis set group =>   1
Atom   3C    basis set group =>   1
Atom   4N    basis set group =>   2
Atom   5N    basis set group =>   2
Atom   6H    basis set group =>   3
Atom   7H    basis set group =>   3
Atom   8H    basis set group =>   3
Atom   9H    basis set group =>   3
Atom  10H    basis set group =>   3
Atom  11H    basis set group =>   3
Atom  12H    basis set group =>   3
Atom  13H    basis set group =>   3
Atom  14H    basis set group =>   3
Atom  15H    basis set group =>   3


           ************************************************************
           *        Program running with 4 parallel MPI-processes     *
           *              working on a common directory               *
           ************************************************************
------------------------------------------------------------------------------
                           ORCA GTO INTEGRAL CALCULATION
                           -- RI-GTO INTEGRALS CHOSEN --
------------------------------------------------------------------------------
------------------------------------------------------------------------------
                   ___                                                        
                  /   \      - P O W E R E D   B Y -                         
                 /     \                                                     
                 |  |  |   _    _      __       _____    __    __             
                 |  |  |  | |  | |    /  \     |  _  \  |  |  /  |          
                  \  \/   | |  | |   /    \    | | | |  |  | /  /          
                 / \  \   | |__| |  /  /\  \   | |_| |  |  |/  /          
                |  |  |   |  __  | /  /__\  \  |    /   |      \           
                |  |  |   | |  | | |   __   |  |    \   |  |\   \          
                \     /   | |  | | |  |  |  |  | |\  \  |  | \   \       
                 \___/    |_|  |_| |__|  |__|  |_| \__\ |__|  \__/        
                                                                              
                      - O R C A' S   B I G   F R I E N D -                    
                                      &                                       
                       - I N T E G R A L  F E E D E R -                       
                                                                              
 v1 FN, 2020, v2 2021                                                         
------------------------------------------------------------------------------


Reading SHARK input file TZVPD_BLYP_C1_wt_dlpno_pos.SHARKINP.tmp ... ok
----------------------
SHARK INTEGRAL PACKAGE
----------------------

Number of atoms                             ...     16
Number of basis functions                   ...    312
Number of shells                            ...    128
Maximum angular momentum                    ...      3
Integral batch strategy                     ... SHARK/LIBINT Hybrid
RI-J (if used) integral strategy            ... SPLIT-RIJ (Revised 2003 algorithm where possible)
Printlevel                                  ...      1
Contraction scheme used                     ... SEGMENTED contraction
Coulomb Range Separation                    ... NOT USED
Exchange Range Separation                   ... NOT USED
Finite Nucleus Model                        ... NOT USED
Auxiliary Coulomb fitting basis             ... AVAILABLE
   # of basis functions in Aux-J            ...    404
   # of shells in Aux-J                     ...    140
   Maximum angular momentum in Aux-J        ...      4
Auxiliary J/K fitting basis                 ... NOT available
Auxiliary Correlation fitting basis         ... NOT available
Auxiliary 'external' fitting basis          ... NOT available
Integral threshold                          ...     2.500000e-11
Primitive cut-off                           ...     2.500000e-12
Primitive pair pre-selection threshold      ...     2.500000e-12

Calculating pre-screening integrals         ... done (  0.1 sec) Dimension = 128
Organizing shell pair data                  ... done (  0.1 sec)
Shell pair information
Total number of shell pairs                 ...      8256
Shell pairs after pre-screening             ...      7869
Total number of primitive shell pairs       ...     20665
Primitive shell pairs kept                  ...     16127
          la=0 lb=0:   2048 shell pairs
          la=1 lb=0:   2393 shell pairs
          la=1 lb=1:    719 shell pairs
          la=2 lb=0:   1148 shell pairs
          la=2 lb=1:    671 shell pairs
          la=2 lb=2:    170 shell pairs
          la=3 lb=0:    373 shell pairs
          la=3 lb=1:    220 shell pairs
          la=3 lb=2:    106 shell pairs
          la=3 lb=3:     21 shell pairs

Calculating one electron integrals          ... done (  0.0 sec)
Calculating RI/J V-Matrix + Cholesky decomp.... done (  0.0 sec)
Calculating Nuclear repulsion               ... done (  0.0 sec) ENN=    245.873028374294 Eh

SHARK setup successfully completed in   0.3 seconds

Maximum memory used throughout the entire GTOINT-calculation: 14.0 MB


           ************************************************************
           *        Program running with 4 parallel MPI-processes     *
           *              working on a common directory               *
           ************************************************************
-------------------------------------------------------------------------------
                                 ORCA SCF
-------------------------------------------------------------------------------

------------
SCF SETTINGS
------------
Hamiltonian:
 Density Functional     Method          .... DFT(GTOs)
 Exchange Functional    Exchange        .... B88
   X-Alpha parameter    XAlpha          ....  0.666667
   Becke's b parameter  XBeta           ....  0.004200
 Correlation Functional Correlation     .... LYP
 Gradients option       PostSCFGGA      .... off
   Density functional embedding theory  .... OFF
   NL short-range parameter             ....  4.000000
 RI-approximation to the Coulomb term is turned on
   Number of AuxJ basis functions       .... 404


General Settings:
 Integral files         IntName         .... TZVPD_BLYP_C1_wt_dlpno_pos
 Hartree-Fock type      HFTyp           .... RHF
 Total Charge           Charge          ....    0
 Multiplicity           Mult            ....    1
 Number of Electrons    NEL             ....   48
 Basis Dimension        Dim             ....  312
 Nuclear Repulsion      ENuc            ....    245.8730283743 Eh

Convergence Acceleration:
 DIIS                   CNVDIIS         .... on
   Start iteration      DIISMaxIt       ....    12
   Startup error        DIISStart       ....  0.200000
   # of expansion vecs  DIISMaxEq       ....     5
   Bias factor          DIISBfac        ....   1.050
   Max. coefficient     DIISMaxC        ....  10.000
 Trust-Rad. Augm. Hess. CNVTRAH         .... auto
   Auto Start mean grad. ratio tolernc. ....  1.125000
   Auto Start start iteration           ....    20
   Auto Start num. interpolation iter.  ....    10
   Max. Number of Micro iterations      ....    16
   Max. Number of Macro iterations      .... Maxiter - #DIIS iter
   Number of Davidson start vectors     ....     2
   Converg. threshold I  (grad. norm)   ....   1.000e-05
   Converg. threshold II (energy diff.) ....   1.000e-08
   Grad. Scal. Fac. for Micro threshold ....   0.100
   Minimum threshold for Micro iter.    ....   0.010
   NR start threshold (gradient norm)   ....   0.001
   Initial trust radius                 ....   0.400
   Minimum AH scaling param. (alpha)    ....   1.000
   Maximum AH scaling param. (alpha)    .... 1000.000
   Orbital update algorithm             .... Taylor
   White noise on init. David. guess    .... on
   Maximum white noise                  ....   0.010
   Quad. conv. algorithm                .... NR
 SOSCF                  CNVSOSCF        .... on
   Start iteration      SOSCFMaxIt      ....   150
   Startup grad/error   SOSCFStart      ....  0.003300
 Level Shifting         CNVShift        .... on
   Level shift para.    LevelShift      ....    0.2500
   Turn off err/grad.   ShiftErr        ....    0.0010
 Zerner damping         CNVZerner       .... off
 Static damping         CNVDamp         .... on
   Fraction old density DampFac         ....    0.7000
   Max. Damping (<1)    DampMax         ....    0.9800
   Min. Damping (>=0)   DampMin         ....    0.0000
   Turn off err/grad.   DampErr         ....    0.1000
 Fernandez-Rico         CNVRico         .... off

SCF Procedure:
 Maximum # iterations   MaxIter         ....   150
 SCF integral mode      SCFMode         .... Direct
   Integral package                     .... SHARK and LIBINT hybrid scheme
 Reset frequency        DirectResetFreq ....    20
 Integral Threshold     Thresh          ....  2.500e-11 Eh
 Primitive CutOff       TCut            ....  2.500e-12 Eh

Convergence Tolerance:
 Convergence Check Mode ConvCheckMode   .... Total+1el-Energy
 Convergence forced     ConvForced      .... 0
 Energy Change          TolE            ....  1.000e-08 Eh
 1-El. energy change                    ....  1.000e-05 Eh
 Orbital Gradient       TolG            ....  1.000e-05
 Orbital Rotation angle TolX            ....  1.000e-05
 DIIS Error             TolErr          ....  5.000e-07


Diagonalization of the overlap matrix:
Smallest eigenvalue                        ... 1.848e-06
Time for diagonalization                   ...    0.024 sec
Threshold for overlap eigenvalues          ... 1.000e-08
Number of eigenvalues below threshold      ... 0
Time for construction of square roots      ...    0.014 sec
Total time needed                          ...    0.040 sec

Time for model grid setup =    0.119 sec

------------------------------
INITIAL GUESS: MODEL POTENTIAL
------------------------------
Loading Hartree-Fock densities                     ... done
Calculating cut-offs                               ... done
Initializing the effective Hamiltonian             ... done
Setting up the integral package (SHARK)            ... done
Starting the Coulomb interaction                   ... done (   0.1 sec)
Reading the grid                                   ... done
Mapping shells                                     ... done
Starting the XC term evaluation                    ... done (   0.2 sec)
  promolecular density results
     # of electrons  =     47.995986770
     EX              =    -36.788885128
     EC              =     -1.576386355
     EX+EC           =    -38.365271484
Transforming the Hamiltonian                       ... done (   0.0 sec)
Diagonalizing the Hamiltonian                      ... done (   0.0 sec)
Back transforming the eigenvectors                 ... done (   0.0 sec)
Now organizing SCF variables                       ... done
                      ------------------
                      INITIAL GUESS DONE (   0.5 sec)
                      ------------------
-------------------
DFT GRID GENERATION
-------------------

General Integration Accuracy     IntAcc      ... 4.388
Radial Grid Type                 RadialGrid  ... OptM3 with GC (2021)
Angular Grid (max. ang.)         AngularGrid ... 4 (Lebedev-302)
Angular grid pruning method      GridPruning ... 4 (adaptive)
Weight generation scheme         WeightScheme... Becke
Basis function cutoff            BFCut       ... 1.0000e-11
Integration weight cutoff        WCut        ... 1.0000e-14
Angular grids for H and He will be reduced by one unit
Partially contracted basis set               ... off
Rotationally invariant grid construction     ... off

Total number of grid points                  ...    71965
Total number of batches                      ...     1131
Average number of points per batch           ...       63
Average number of grid points per atom       ...     4498
Time for grid setup =    0.446 sec

--------------
SCF ITERATIONS
--------------
ITER       Energy         Delta-E        Max-DP      RMS-DP      [F,P]     Damp
               ***  Starting incremental Fock matrix formation  ***
  0   -267.5280065651   0.000000000000 0.61206618  0.00669806  0.2622312 0.7000
  1   -267.7139450899  -0.185938524762 0.49683237  0.00482813  0.1089043 0.7000
                               ***Turning on DIIS***
  2   -267.7711496856  -0.057204595741 0.77518736  0.00717272  0.0235082 0.0000
  3   -267.8570589327  -0.085909247046 0.35673595  0.00319287  0.0715490 0.0000
  4   -267.8871080599  -0.030049127264 0.20961319  0.00158964  0.0186018 0.0000
  5   -267.8893155316  -0.002207471623 0.10173608  0.00084191  0.0053839 0.0000
                      *** Initiating the SOSCF procedure ***
                           *** Shutting down DIIS ***
                      *** Re-Reading the Fockian *** 
                      *** Removing any level shift *** 
ITER      Energy       Delta-E        Grad      Rot      Max-DP    RMS-DP
  6   -267.88952924  -0.0002137109  0.001139  0.001139  0.048641  0.000465
               *** Restarting incremental Fock matrix formation ***
  7   -267.88956154  -0.0000322958  0.000401  0.002208  0.050674  0.000569
  8   -267.88956693  -0.0000053918  0.000205  0.001124  0.012258  0.000158
  9   -267.88956775  -0.0000008161  0.000366  0.001356  0.013864  0.000166
 10   -267.88956924  -0.0000014962  0.000165  0.000223  0.005043  0.000056
 11   -267.88956919   0.0000000502  0.000069  0.000206  0.003921  0.000050
 12   -267.88956969  -0.0000005012  0.000012  0.000038  0.003713  0.000025
 13   -267.88956969   0.0000000017  0.000018  0.000025  0.001801  0.000012
 14   -267.88956971  -0.0000000166  0.000008  0.000014  0.002685  0.000022
 15   -267.88956971  -0.0000000004  0.000007  0.000007  0.008209  0.000061
                  ***Gradient check signals convergence***
              ***Rediagonalizing the Fockian in SOSCF/NRSCF***

               *****************************************************
               *                     SUCCESS                       *
               *           SCF CONVERGED AFTER  16 CYCLES          *
               *****************************************************


----------------
TOTAL SCF ENERGY
----------------

Total Energy       :         -267.88956971 Eh           -7289.64579 eV

Components:
Nuclear Repulsion  :          245.87302837 Eh            6690.54524 eV
Electronic Energy  :         -513.76259808 Eh          -13980.19103 eV
One Electron Energy:         -848.08995012 Eh          -23077.70079 eV
Two Electron Energy:          334.32735204 Eh            9097.50976 eV

Virial components:
Potential Energy   :         -535.48338510 Eh          -14571.24370 eV
Kinetic Energy     :          267.59381539 Eh            7281.59791 eV
Virial Ratio       :            2.00110524


DFT components:
N(Alpha)           :       23.999935429764 electrons
N(Beta)            :       23.999935429764 electrons
N(Total)           :       47.999870859527 electrons
E(X)               :      -37.784263953914 Eh       
E(C)               :       -1.592709013439 Eh       
E(XC)              :      -39.376972967353 Eh       
DFET-embed. en.    :        0.000000000000 Eh       

---------------
SCF CONVERGENCE
---------------

  Last Energy change         ...   -1.6694e-09  Tolerance :   1.0000e-08
  Last MAX-Density change    ...    7.8495e-03  Tolerance :   1.0000e-07
  Last RMS-Density change    ...    5.1674e-05  Tolerance :   5.0000e-09
  Last Orbital Gradient      ...    1.1276e-06  Tolerance :   1.0000e-05
  Last Orbital Rotation      ...    2.3324e-06  Tolerance :   1.0000e-05

             **** THE GBW FILE WAS UPDATED (TZVPD_BLYP_C1_wt_dlpno_pos.gbw) ****
             **** DENSITY TZVPD_BLYP_C1_wt_dlpno_pos.scfp WAS UPDATED ****
             **** ENERGY FILE WAS UPDATED (TZVPD_BLYP_C1_wt_dlpno_pos.en.tmp) ****
             **** THE GBW FILE WAS UPDATED (TZVPD_BLYP_C1_wt_dlpno_pos.gbw) ****
             **** DENSITY TZVPD_BLYP_C1_wt_dlpno_pos.scfp WAS UPDATED ****
----------------
ORBITAL ENERGIES
----------------

  NO   OCC          E(Eh)            E(eV) 
   0   2.0000     -14.010142      -381.2353 
   1   2.0000     -14.002794      -381.0354 
   2   2.0000      -9.943202      -270.5683 
   3   2.0000      -9.877234      -268.7732 
   4   2.0000      -9.868097      -268.5246 
   5   2.0000      -9.827927      -267.4315 
   6   2.0000      -0.871769       -23.7220 
   7   2.0000      -0.787153       -21.4195 
   8   2.0000      -0.690403       -18.7868 
   9   2.0000      -0.620443       -16.8831 
  10   2.0000      -0.551302       -15.0017 
  11   2.0000      -0.516573       -14.0567 
  12   2.0000      -0.487811       -13.2740 
  13   2.0000      -0.450517       -12.2592 
  14   2.0000      -0.429222       -11.6797 
  15   2.0000      -0.389611       -10.6019 
  16   2.0000      -0.364095        -9.9075 
  17   2.0000      -0.341670        -9.2973 
  18   2.0000      -0.328707        -8.9446 
  19   2.0000      -0.303432        -8.2568 
  20   2.0000      -0.281905        -7.6710 
  21   2.0000      -0.276471        -7.5232 
  22   2.0000      -0.219125        -5.9627 
  23   2.0000      -0.124897        -3.3986 
  24   0.0000      -0.021863        -0.5949 
  25   0.0000       0.003855         0.1049 
  26   0.0000       0.015762         0.4289 
  27   0.0000       0.026874         0.7313 
  28   0.0000       0.040400         1.0993 
  29   0.0000       0.041405         1.1267 
  30   0.0000       0.054841         1.4923 
  31   0.0000       0.062396         1.6979 
  32   0.0000       0.076256         2.0750 
  33   0.0000       0.086921         2.3652 
  34   0.0000       0.094757         2.5785 
  35   0.0000       0.104579         2.8458 
  36   0.0000       0.111668         3.0386 
  37   0.0000       0.117985         3.2105 
  38   0.0000       0.121154         3.2968 
  39   0.0000       0.130771         3.5585 
  40   0.0000       0.135533         3.6880 
  41   0.0000       0.144631         3.9356 
  42   0.0000       0.150938         4.1072 
  43   0.0000       0.162663         4.4263 
  44   0.0000       0.169493         4.6121 
  45   0.0000       0.175505         4.7757 
  46   0.0000       0.189063         5.1447 
  47   0.0000       0.196266         5.3407 
  48   0.0000       0.203234         5.5303 
  49   0.0000       0.207482         5.6459 
  50   0.0000       0.220822         6.0089 
  51   0.0000       0.225052         6.1240 
  52   0.0000       0.230046         6.2599 
  53   0.0000       0.236206         6.4275 
  54   0.0000       0.240709         6.5500 
  55   0.0000       0.242423         6.5967 
  56   0.0000       0.254407         6.9228 
  57   0.0000       0.261618         7.1190 
  58   0.0000       0.264225         7.1899 
  59   0.0000       0.272383         7.4119 
  60   0.0000       0.274449         7.4681 
  61   0.0000       0.282313         7.6821 
  62   0.0000       0.283629         7.7179 
  63   0.0000       0.292667         7.9639 
  64   0.0000       0.295027         8.0281 
  65   0.0000       0.304807         8.2942 
  66   0.0000       0.311688         8.4815 
  67   0.0000       0.317805         8.6479 
  68   0.0000       0.321815         8.7570 
  69   0.0000       0.326049         8.8722 
  70   0.0000       0.331120         9.0102 
  71   0.0000       0.338119         9.2007 
  72   0.0000       0.353859         9.6290 
  73   0.0000       0.355322         9.6688 
  74   0.0000       0.369826        10.0635 
  75   0.0000       0.371116        10.0986 
  76   0.0000       0.380288        10.3482 
  77   0.0000       0.391385        10.6501 
  78   0.0000       0.396461        10.7883 
  79   0.0000       0.400847        10.9076 
  80   0.0000       0.407110        11.0780 
  81   0.0000       0.408079        11.1044 
  82   0.0000       0.421454        11.4683 
  83   0.0000       0.423439        11.5224 
  84   0.0000       0.427161        11.6236 
  85   0.0000       0.433421        11.7940 
  86   0.0000       0.440255        11.9800 
  87   0.0000       0.453465        12.3394 
  88   0.0000       0.459651        12.5078 
  89   0.0000       0.464957        12.6521 
  90   0.0000       0.468555        12.7500 
  91   0.0000       0.477527        12.9942 
  92   0.0000       0.483531        13.1575 
  93   0.0000       0.487166        13.2565 
  94   0.0000       0.501818        13.6552 
  95   0.0000       0.507513        13.8101 
  96   0.0000       0.520757        14.1705 
  97   0.0000       0.522504        14.2181 
  98   0.0000       0.526418        14.3246 
  99   0.0000       0.541856        14.7447 
 100   0.0000       0.544508        14.8168 
 101   0.0000       0.548642        14.9293 
 102   0.0000       0.562239        15.2993 
 103   0.0000       0.572151        15.5690 
 104   0.0000       0.583143        15.8681 
 105   0.0000       0.595856        16.2141 
 106   0.0000       0.602537        16.3959 
 107   0.0000       0.610378        16.6092 
 108   0.0000       0.629584        17.1319 
 109   0.0000       0.646529        17.5930 
 110   0.0000       0.656696        17.8696 
 111   0.0000       0.664075        18.0704 
 112   0.0000       0.670728        18.2514 
 113   0.0000       0.673228        18.3195 
 114   0.0000       0.677491        18.4355 
 115   0.0000       0.696119        18.9423 
 116   0.0000       0.698510        19.0074 
 117   0.0000       0.703168        19.1342 
 118   0.0000       0.708931        19.2910 
 119   0.0000       0.716927        19.5086 
 120   0.0000       0.721568        19.6349 
 121   0.0000       0.733544        19.9607 
 122   0.0000       0.735917        20.0253 
 123   0.0000       0.757207        20.6047 
 124   0.0000       0.760721        20.7003 
 125   0.0000       0.774468        21.0744 
 126   0.0000       0.776148        21.1201 
 127   0.0000       0.792049        21.5528 
 128   0.0000       0.809451        22.0263 
 129   0.0000       0.828782        22.5523 
 130   0.0000       0.833781        22.6883 
 131   0.0000       0.846135        23.0245 
 132   0.0000       0.873001        23.7556 
 133   0.0000       0.886436        24.1212 
 134   0.0000       0.901063        24.5192 
 135   0.0000       0.923358        25.1259 
 136   0.0000       0.943041        25.6615 
 137   0.0000       0.952199        25.9107 
 138   0.0000       0.957122        26.0446 
 139   0.0000       0.979490        26.6533 
 140   0.0000       0.993967        27.0472 
 141   0.0000       1.003333        27.3021 
 142   0.0000       1.026378        27.9292 
 143   0.0000       1.053119        28.6568 
 144   0.0000       1.087534        29.5933 
 145   0.0000       1.104361        30.0512 
 146   0.0000       1.126615        30.6568 
 147   0.0000       1.155971        31.4556 
 148   0.0000       1.199854        32.6497 
 149   0.0000       1.208511        32.8853 
 150   0.0000       1.235157        33.6103 
 151   0.0000       1.256116        34.1807 
 152   0.0000       1.289859        35.0988 
 153   0.0000       1.322831        35.9961 
 154   0.0000       1.337943        36.4073 
 155   0.0000       1.345182        36.6043 
 156   0.0000       1.355063        36.8731 
 157   0.0000       1.392447        37.8904 
 158   0.0000       1.399507        38.0825 
 159   0.0000       1.407549        38.3013 
 160   0.0000       1.427523        38.8449 
 161   0.0000       1.501032        40.8452 
 162   0.0000       1.512258        41.1506 
 163   0.0000       1.562674        42.5225 
 164   0.0000       1.595738        43.4222 
 165   0.0000       1.616754        43.9941 
 166   0.0000       1.630511        44.3685 
 167   0.0000       1.683172        45.8014 
 168   0.0000       1.697757        46.1983 
 169   0.0000       1.727160        46.9984 
 170   0.0000       1.743478        47.4424 
 171   0.0000       1.755921        47.7810 
 172   0.0000       1.773375        48.2560 
 173   0.0000       1.785249        48.5791 
 174   0.0000       1.792676        48.7812 
 175   0.0000       1.811104        49.2827 
 176   0.0000       1.828286        49.7502 
 177   0.0000       1.833206        49.8841 
 178   0.0000       1.851822        50.3906 
 179   0.0000       1.864588        50.7380 
 180   0.0000       1.884702        51.2853 
 181   0.0000       1.896188        51.5979 
 182   0.0000       1.907695        51.9110 
 183   0.0000       1.925028        52.3827 
 184   0.0000       1.962051        53.3901 
 185   0.0000       2.002139        54.4810 
 186   0.0000       2.011091        54.7246 
 187   0.0000       2.039014        55.4844 
 188   0.0000       2.045046        55.6485 
 189   0.0000       2.073248        56.4159 
 190   0.0000       2.110601        57.4324 
 191   0.0000       2.122040        57.7436 
 192   0.0000       2.136309        58.1319 
 193   0.0000       2.189955        59.5917 
 194   0.0000       2.228880        60.6509 
 195   0.0000       2.268710        61.7347 
 196   0.0000       2.280510        62.0558 
 197   0.0000       2.300650        62.6039 
 198   0.0000       2.319481        63.1163 
 199   0.0000       2.342106        63.7319 
 200   0.0000       2.360991        64.2458 
 201   0.0000       2.374512        64.6138 
 202   0.0000       2.431473        66.1638 
 203   0.0000       2.436255        66.2939 
 204   0.0000       2.463422        67.0331 
 205   0.0000       2.467015        67.1309 
 206   0.0000       2.494689        67.8839 
 207   0.0000       2.508075        68.2482 
 208   0.0000       2.512925        68.3802 
 209   0.0000       2.526865        68.7595 
 210   0.0000       2.548311        69.3431 
 211   0.0000       2.596285        70.6485 
 212   0.0000       2.603006        70.8314 
 213   0.0000       2.629396        71.5495 
 214   0.0000       2.673172        72.7407 
 215   0.0000       2.692786        73.2744 
 216   0.0000       2.704588        73.5956 
 217   0.0000       2.724107        74.1267 
 218   0.0000       2.746121        74.7258 
 219   0.0000       2.769532        75.3628 
 220   0.0000       2.786410        75.8221 
 221   0.0000       2.822015        76.7909 
 222   0.0000       2.831402        77.0464 
 223   0.0000       2.879592        78.3577 
 224   0.0000       2.886619        78.5489 
 225   0.0000       2.890960        78.6670 
 226   0.0000       2.932550        79.7987 
 227   0.0000       2.955049        80.4110 
 228   0.0000       3.011242        81.9401 
 229   0.0000       3.035374        82.5967 
 230   0.0000       3.046416        82.8972 
 231   0.0000       3.066455        83.4425 
 232   0.0000       3.083606        83.9092 
 233   0.0000       3.133540        85.2680 
 234   0.0000       3.141169        85.4755 
 235   0.0000       3.172612        86.3312 
 236   0.0000       3.187186        86.7277 
 237   0.0000       3.189613        86.7938 
 238   0.0000       3.213261        87.4373 
 239   0.0000       3.232841        87.9701 
 240   0.0000       3.250963        88.4632 
 241   0.0000       3.285783        89.4107 
 242   0.0000       3.294950        89.6602 
 243   0.0000       3.341613        90.9299 
 244   0.0000       3.357098        91.3513 
 245   0.0000       3.365865        91.5898 
 246   0.0000       3.394808        92.3774 
 247   0.0000       3.398633        92.4815 
 248   0.0000       3.451872        93.9302 
 249   0.0000       3.462606        94.2223 
 250   0.0000       3.471853        94.4739 
 251   0.0000       3.493187        95.0544 
 252   0.0000       3.513351        95.6032 
 253   0.0000       3.537154        96.2509 
 254   0.0000       3.578500        97.3759 
 255   0.0000       3.597183        97.8843 
 256   0.0000       3.628172        98.7276 
 257   0.0000       3.699378       100.6652 
 258   0.0000       3.731502       101.5393 
 259   0.0000       3.781318       102.8949 
 260   0.0000       3.796404       103.3054 
 261   0.0000       3.854069       104.8746 
 262   0.0000       3.889526       105.8394 
 263   0.0000       3.929762       106.9343 
 264   0.0000       3.946451       107.3884 
 265   0.0000       3.963047       107.8400 
 266   0.0000       3.986199       108.4700 
 267   0.0000       4.097974       111.5115 
 268   0.0000       4.146741       112.8386 
 269   0.0000       4.151740       112.9746 
 270   0.0000       4.185505       113.8934 
 271   0.0000       4.227932       115.0479 
 272   0.0000       4.310085       117.2834 
 273   0.0000       4.363588       118.7393 
 274   0.0000       4.391197       119.4905 
 275   0.0000       4.417059       120.1943 
 276   0.0000       4.490226       122.1853 
 277   0.0000       4.504965       122.5863 
 278   0.0000       4.579695       124.6198 
 279   0.0000       4.592095       124.9572 
 280   0.0000       4.665760       126.9618 
 281   0.0000       4.689353       127.6038 
 282   0.0000       4.716287       128.3367 
 283   0.0000       4.734591       128.8348 
 284   0.0000       4.764148       129.6391 
 285   0.0000       4.777333       129.9978 
 286   0.0000       4.842905       131.7822 
 287   0.0000       4.870840       132.5423 
 288   0.0000       4.889774       133.0575 
 289   0.0000       4.946183       134.5925 
 290   0.0000       4.978846       135.4813 
 291   0.0000       5.048484       137.3762 
 292   0.0000       5.102477       138.8455 
 293   0.0000       5.144480       139.9884 
 294   0.0000       5.200836       141.5219 
 295   0.0000       5.226651       142.2244 
 296   0.0000       5.260553       143.1469 
 297   0.0000       5.268470       143.3624 
 298   0.0000       5.294237       144.0635 
 299   0.0000       5.364273       145.9693 
 300   0.0000       5.502331       149.7260 
 301   0.0000       5.521049       150.2354 
 302   0.0000       5.647352       153.6723 
 303   0.0000       5.940512       161.6495 
 304   0.0000       6.089723       165.7098 
 305   0.0000       6.117205       166.4576 
 306   0.0000      22.335382       607.7766 
 307   0.0000      22.436193       610.5199 
 308   0.0000      22.767585       619.5375 
 309   0.0000      23.268733       633.1744 
 310   0.0000      31.915769       868.4722 
 311   0.0000      32.203964       876.3144 

                    ********************************
                    * MULLIKEN POPULATION ANALYSIS *
                    ********************************

-----------------------
MULLIKEN ATOMIC CHARGES
-----------------------
   0 C :   -0.451665
   1 C :   -0.523390
   2 C :   -1.086372
   3 C :    0.489747
   4 N :   -0.338740
   5 N :   -0.285635
   6 H :    0.137720
   7 H :    0.123780
   8 H :    0.324309
   9 H :    0.136615
  10 H :    0.114959
  11 H :    0.240314
  12 H :    0.196801
  13 H :    0.311599
  14 H :    0.294928
  15 H :    0.315030
Sum of atomic charges:   -0.0000000

--------------------------------
MULLIKEN REDUCED ORBITAL CHARGES
--------------------------------
  0 C s       :     3.481194  s :     3.481194
      pz      :     1.056609  p :     3.083466
      px      :     0.969182
      py      :     1.057675
      dz2     :    -0.023462  d :    -0.118946
      dxz     :    -0.016532
      dyz     :    -0.036032
      dx2y2   :    -0.030688
      dxy     :    -0.012232
      f0      :     0.001009  f :     0.005951
      f+1     :     0.001365
      f-1     :     0.000274
      f+2     :     0.000310
      f-2     :     0.001113
      f+3     :     0.001291
      f-3     :     0.000588
  1 C s       :     3.394557  s :     3.394557
      pz      :     0.958128  p :     2.999096
      px      :     0.998016
      py      :     1.042952
      dz2     :     0.112096  d :     0.122561
      dxz     :    -0.017670
      dyz     :     0.027962
      dx2y2   :     0.012863
      dxy     :    -0.012690
      f0      :     0.000783  f :     0.007176
      f+1     :     0.000497
      f-1     :     0.001294
      f+2     :     0.000698
      f-2     :     0.001543
      f+3     :     0.001415
      f-3     :     0.000947
  2 C s       :     3.545905  s :     3.545905
      pz      :     1.046867  p :     3.497574
      px      :     1.174083
      py      :     1.276625
      dz2     :     0.013960  d :     0.039589
      dxz     :     0.011049
      dyz     :    -0.017672
      dx2y2   :     0.016560
      dxy     :     0.015691
      f0      :     0.000578  f :     0.003303
      f+1     :     0.001218
      f-1     :     0.000168
      f+2     :     0.000194
      f-2     :     0.000436
      f+3     :     0.000388
      f-3     :     0.000322
  3 C s       :     3.376008  s :     3.376008
      pz      :     0.654570  p :     1.958235
      px      :     0.600752
      py      :     0.702913
      dz2     :     0.146320  d :     0.157902
      dxz     :    -0.041888
      dyz     :     0.026164
      dx2y2   :     0.086996
      dxy     :    -0.059690
      f0      :     0.002010  f :     0.018108
      f+1     :     0.002666
      f-1     :     0.002013
      f+2     :     0.002052
      f-2     :     0.003447
      f+3     :     0.003523
      f-3     :     0.002396
  4 N s       :     3.469007  s :     3.469007
      pz      :     1.591326  p :     3.823404
      px      :     1.062906
      py      :     1.169173
      dz2     :     0.007872  d :     0.043055
      dxz     :     0.006733
      dyz     :     0.007367
      dx2y2   :     0.016046
      dxy     :     0.005038
      f0      :     0.000607  f :     0.003274
      f+1     :     0.000322
      f-1     :     0.000273
      f+2     :     0.000519
      f-2     :     0.000486
      f+3     :     0.000513
      f-3     :     0.000554
  5 N s       :     3.431965  s :     3.431965
      pz      :     1.332593  p :     3.791531
      px      :     1.066004
      py      :     1.392934
      dz2     :     0.026106  d :     0.058836
      dxz     :     0.005693
      dyz     :     0.013122
      dx2y2   :     0.005200
      dxy     :     0.008715
      f0      :     0.000337  f :     0.003302
      f+1     :     0.000529
      f-1     :     0.000443
      f+2     :     0.000667
      f-2     :     0.000472
      f+3     :     0.000471
      f-3     :     0.000383
  6 H s       :     0.814616  s :     0.814616
      pz      :     0.013642  p :     0.047664
      px      :     0.020993
      py      :     0.013030
  7 H s       :     0.810905  s :     0.810905
      pz      :     0.044190  p :     0.065316
      px      :    -0.001629
      py      :     0.022754
  8 H s       :     0.657555  s :     0.657555
      pz      :     0.014173  p :     0.018136
      px      :    -0.025440
      py      :     0.029403
  9 H s       :     0.795459  s :     0.795459
      pz      :     0.043485  p :     0.067926
      px      :     0.019826
      py      :     0.004615
 10 H s       :     0.816785  s :     0.816785
      pz      :     0.038646  p :     0.068256
      px      :    -0.004075
      py      :     0.033685
 11 H s       :     0.693892  s :     0.693892
      pz      :     0.037776  p :     0.065794
      px      :     0.021884
      py      :     0.006134
 12 H s       :     0.717409  s :     0.717409
      pz      :     0.011697  p :     0.085790
      px      :     0.026142
      py      :     0.047951
 13 H s       :     0.594868  s :     0.594868
      pz      :     0.012962  p :     0.093532
      px      :     0.037635
      py      :     0.042936
 14 H s       :     0.622441  s :     0.622441
      pz      :     0.016609  p :     0.082632
      px      :     0.040302
      py      :     0.025721
 15 H s       :     0.610468  s :     0.610468
      pz      :     0.034894  p :     0.074502
      px      :     0.015835
      py      :     0.023774


                     *******************************
                     * LOEWDIN POPULATION ANALYSIS *
                     *******************************

----------------------
LOEWDIN ATOMIC CHARGES
----------------------
   0 C :   -0.275762
   1 C :   -0.134561
   2 C :   -0.102823
   3 C :   -0.551958
   4 N :    0.115577
   5 N :    0.142278
   6 H :    0.104263
   7 H :    0.095811
   8 H :    0.064163
   9 H :    0.100727
  10 H :    0.083706
  11 H :    0.089259
  12 H :    0.096842
  13 H :    0.058696
  14 H :    0.052922
  15 H :    0.060858

-------------------------------
LOEWDIN REDUCED ORBITAL CHARGES
-------------------------------
  0 C s       :     2.675207  s :     2.675207
      pz      :     0.907756  p :     2.763008
      px      :     0.932602
      py      :     0.922650
      dz2     :     0.168158  d :     0.792513
      dxz     :     0.210653
      dyz     :     0.090482
      dx2y2   :     0.182515
      dxy     :     0.140706
      f0      :     0.006090  f :     0.045034
      f+1     :     0.007399
      f-1     :     0.005269
      f+2     :     0.004411
      f-2     :     0.007878
      f+3     :     0.009169
      f-3     :     0.004818
  1 C s       :     2.650211  s :     2.650211
      pz      :     0.907445  p :     2.726547
      px      :     0.896352
      py      :     0.922750
      dz2     :     0.101420  d :     0.711785
      dxz     :     0.162613
      dyz     :     0.111570
      dx2y2   :     0.181006
      dxy     :     0.155176
      f0      :     0.005146  f :     0.046018
      f+1     :     0.003513
      f-1     :     0.007079
      f+2     :     0.007167
      f-2     :     0.007862
      f+3     :     0.009041
      f-3     :     0.006210
  2 C s       :     2.740892  s :     2.740892
      pz      :     0.953901  p :     2.869584
      px      :     0.955084
      py      :     0.960600
      dz2     :     0.145422  d :     0.464020
      dxz     :     0.101613
      dyz     :     0.052860
      dx2y2   :     0.052519
      dxy     :     0.111606
      f0      :     0.003318  f :     0.028327
      f+1     :     0.006385
      f-1     :     0.004954
      f+2     :     0.004485
      f-2     :     0.003374
      f+3     :     0.003095
      f-3     :     0.002716
  3 C s       :     2.592473  s :     2.592473
      pz      :     0.833760  p :     2.546556
      px      :     0.835107
      py      :     0.877690
      dz2     :     0.255129  d :     1.295481
      dxz     :     0.285650
      dyz     :     0.172791
      dx2y2   :     0.275956
      dxy     :     0.305954
      f0      :     0.014236  f :     0.117448
      f+1     :     0.018691
      f-1     :     0.010045
      f+2     :     0.014462
      f-2     :     0.018590
      f+3     :     0.024867
      f-3     :     0.016558
  4 N s       :     2.907578  s :     2.907578
      pz      :     1.324341  p :     3.574555
      px      :     1.105169
      py      :     1.145045
      dz2     :     0.030947  d :     0.390759
      dxz     :     0.084911
      dyz     :     0.047202
      dx2y2   :     0.130947
      dxy     :     0.096752
      f0      :     0.001968  f :     0.011530
      f+1     :     0.001240
      f-1     :     0.000403
      f+2     :     0.001668
      f-2     :     0.001779
      f+3     :     0.002501
      f-3     :     0.001971
  5 N s       :     2.890283  s :     2.890283
      pz      :     1.234947  p :     3.550056
      px      :     1.095689
      py      :     1.219420
      dz2     :     0.092068  d :     0.404499
      dxz     :     0.067086
      dyz     :     0.071881
      dx2y2   :     0.104222
      dxy     :     0.069241
      f0      :     0.001608  f :     0.012884
      f+1     :     0.002475
      f-1     :     0.001060
      f+2     :     0.002002
      f-2     :     0.002395
      f+3     :     0.002027
      f-3     :     0.001316
  6 H s       :     0.617561  s :     0.617561
      pz      :     0.075323  p :     0.278176
      px      :     0.108477
      py      :     0.094376
  7 H s       :     0.634419  s :     0.634419
      pz      :     0.100009  p :     0.269770
      px      :     0.061745
      py      :     0.108015
  8 H s       :     0.696439  s :     0.696439
      pz      :     0.085279  p :     0.239398
      px      :     0.088769
      py      :     0.065351
  9 H s       :     0.628461  s :     0.628461
      pz      :     0.096915  p :     0.270812
      px      :     0.095274
      py      :     0.078623
 10 H s       :     0.639840  s :     0.639840
      pz      :     0.106204  p :     0.276453
      px      :     0.057949
      py      :     0.112301
 11 H s       :     0.683926  s :     0.683926
      pz      :     0.088861  p :     0.226816
      px      :     0.067561
      py      :     0.070393
 12 H s       :     0.691803  s :     0.691803
      pz      :     0.052045  p :     0.211355
      px      :     0.062276
      py      :     0.097033
 13 H s       :     0.710419  s :     0.710419
      pz      :     0.060089  p :     0.230885
      px      :     0.065261
      py      :     0.105536
 14 H s       :     0.716719  s :     0.716719
      pz      :     0.058579  p :     0.230360
      px      :     0.089489
      py      :     0.082292
 15 H s       :     0.709723  s :     0.709723
      pz      :     0.090478  p :     0.229419
      px      :     0.077772
      py      :     0.061169


                      *****************************
                      * MAYER POPULATION ANALYSIS *
                      *****************************

  NA   - Mulliken gross atomic population
  ZA   - Total nuclear charge
  QA   - Mulliken gross atomic charge
  VA   - Mayer's total valence
  BVA  - Mayer's bonded valence
  FA   - Mayer's free valence

  ATOM       NA         ZA         QA         VA         BVA        FA
  0 C      6.4517     6.0000    -0.4517     3.0888     3.0888    -0.0000
  1 C      6.5234     6.0000    -0.5234     3.1213     3.1213    -0.0000
  2 C      7.0864     6.0000    -1.0864     3.4629     3.4629     0.0000
  3 C      5.5103     6.0000     0.4897     3.1585     3.1585    -0.0000
  4 N      7.3387     7.0000    -0.3387     3.1967     3.1967    -0.0000
  5 N      7.2856     7.0000    -0.2856     3.2591     3.2591     0.0000
  6 H      0.8623     1.0000     0.1377     1.0337     1.0337     0.0000
  7 H      0.8762     1.0000     0.1238     1.0105     1.0105     0.0000
  8 H      0.6757     1.0000     0.3243     0.7695     0.7695     0.0000
  9 H      0.8634     1.0000     0.1366     1.0420     1.0420    -0.0000
 10 H      0.8850     1.0000     0.1150     1.0361     1.0361    -0.0000
 11 H      0.7597     1.0000     0.2403     1.0044     1.0044    -0.0000
 12 H      0.8032     1.0000     0.1968     1.0820     1.0820     0.0000
 13 H      0.6884     1.0000     0.3116     1.0340     1.0340     0.0000
 14 H      0.7051     1.0000     0.2949     1.0484     1.0484     0.0000
 15 H      0.6850     1.0000     0.3150     0.9850     0.9850     0.0000

  Mayer bond orders larger than 0.100000
B(  0-C ,  1-C ) :   0.6301 B(  0-C ,  2-C ) :   0.4889 B(  0-C , 11-H ) :   0.9806 
B(  0-C , 12-H ) :   1.0881 B(  1-C ,  3-C ) :   1.3522 B(  1-C ,  4-N ) :   0.1805 
B(  1-C ,  5-N ) :   0.1159 B(  1-C ,  8-H ) :   0.9551 B(  2-C , 13-H ) :   0.9713 
B(  2-C , 14-H ) :   0.9648 B(  2-C , 15-H ) :   0.9699 B(  3-C ,  4-N ) :   0.8405 
B(  3-C ,  5-N ) :   0.9611 B(  3-C ,  8-H ) :  -0.1095 B(  4-N ,  9-H ) :   1.0310 
B(  4-N , 10-H ) :   1.0737 B(  5-N ,  6-H ) :   1.0015 B(  5-N ,  7-H ) :   1.0577 


-------
TIMINGS
-------

Total SCF time: 0 days 0 hours 0 min 13 sec 

Total time                  ....      13.944 sec
Sum of individual times     ....      13.644 sec  ( 97.8%)

Fock matrix formation       ....      12.277 sec  ( 88.0%)
  Split-RI-J                ....       3.003 sec  ( 24.5% of F)
  XC integration            ....       9.180 sec  ( 74.8% of F)
    Basis function eval.    ....       2.497 sec  ( 27.2% of XC)
    Density eval.           ....       2.601 sec  ( 28.3% of XC)
    XC-Functional eval.     ....       0.209 sec  (  2.3% of XC)
    XC-Potential eval.      ....       3.524 sec  ( 38.4% of XC)
Diagonalization             ....       0.158 sec  (  1.1%)
Density matrix formation    ....       0.012 sec  (  0.1%)
Population analysis         ....       0.018 sec  (  0.1%)
Initial guess               ....       0.340 sec  (  2.4%)
Orbital Transformation      ....       0.000 sec  (  0.0%)
Orbital Orthonormalization  ....       0.000 sec  (  0.0%)
DIIS solution               ....       0.087 sec  (  0.6%)
SOSCF solution              ....       0.187 sec  (  1.3%)
Grid generation             ....       0.565 sec  (  4.0%)

Maximum memory used throughout the entire SCF-calculation: 35.2 MB


-------------------------------------------------------------------------------
                          DFT DISPERSION CORRECTION                            
                                                                               
                              DFTD3 V3.1  Rev 1                                
                          USING Becke-Johnson damping                          
-------------------------------------------------------------------------------
The BLYP functional is recognized
Active option DFTDOPT                   ...         4   

molecular C6(AA) [au] = 1933.788332 


            DFT-D V3
 parameters
 s6 scaling factor         :     1.0000 
 a1 scaling factor         :     0.4298 
 s8 scaling factor         :     2.6996 
 a2 scaling factor         :     4.2359 
 ad hoc parameters k1-k3   :    16.0000     1.3333    -4.0000 

 Edisp/kcal,au: -16.083916989390  -0.025631350503 
 E6   /kcal   :  -6.684902215 
 E8   /kcal   :  -9.399014774 
 % E8         :  58.437349438 

-------------------------   ----------------
Dispersion correction           -0.025631351
-------------------------   ----------------


-------------------------   --------------------
FINAL SINGLE POINT ENERGY      -267.915201060957
-------------------------   --------------------


                            ***************************************
                            *     ORCA property calculations      *
                            ***************************************

                                    ---------------------
                                    Active property flags
                                    ---------------------
   (+) Dipole Moment


------------------------------------------------------------------------------
                       ORCA ELECTRIC PROPERTIES CALCULATION
------------------------------------------------------------------------------

Dipole Moment Calculation                       ... on
Quadrupole Moment Calculation                   ... off
Polarizability Calculation                      ... off
GBWName                                         ... TZVPD_BLYP_C1_wt_dlpno_pos.gbw
Electron density file                           ... TZVPD_BLYP_C1_wt_dlpno_pos.scfp
The origin for moment calculation is the CENTER OF MASS  = ( 7.754173,  1.319955 -7.063356)

-------------
DIPOLE MOMENT
-------------
                                X             Y             Z
Electronic contribution:      3.00819      -2.77412      -2.88612
Nuclear contribution   :     -2.84307       1.95814       2.32378
                        -----------------------------------------
Total Dipole Moment    :      0.16511      -0.81598      -0.56234
                        -----------------------------------------
Magnitude (a.u.)       :      1.00465
Magnitude (Debye)      :      2.55361



--------------------
Rotational spectrum 
--------------------
 
Rotational constants in cm-1:     0.248902     0.068887     0.059904 
Rotational constants in MHz :  7461.898926  2065.183281  1795.882140 

 Dipole components along the rotational axes: 
x,y,z [a.u.] :     0.886776     0.434537    -0.184716 
x,y,z [Debye]:     2.254005     1.104504    -0.469512 

 

Timings for individual modules:

Sum of individual times         ...       14.640 sec (=   0.244 min)
GTO integral calculation        ...        0.482 sec (=   0.008 min)   3.3 %
SCF iterations                  ...       14.158 sec (=   0.236 min)  96.7 %
                             ****ORCA TERMINATED NORMALLY****
TOTAL RUN TIME: 0 days 0 hours 0 minutes 15 seconds 62 msec
