
                                        *****************
                                        * O   R   C   A *
                                        *****************

                                            #,                                       
                                            ###                                      
                                            ####                                     
                                            #####                                    
                                            ######                                   
                                           ########,                                 
                                     ,,################,,,,,                         
                               ,,#################################,,                 
                          ,,##########################################,,             
                       ,#########################################, ''#####,          
                    ,#############################################,,   '####,        
                  ,##################################################,,,,####,       
                ,###########''''           ''''###############################       
              ,#####''   ,,,,##########,,,,          '''####'''          '####       
            ,##' ,,,,###########################,,,                        '##       
           ' ,,###''''                  '''############,,,                           
         ,,##''                                '''############,,,,        ,,,,,,###''
      ,#''                                            '''#######################'''  
     '                                                          ''''####''''         
             ,#######,   #######,   ,#######,      ##                                
            ,#'     '#,  ##    ##  ,#'     '#,    #''#        ######   ,####,        
            ##       ##  ##   ,#'  ##            #'  '#       #        #'  '#        
            ##       ##  #######   ##           ,######,      #####,   #    #        
            '#,     ,#'  ##    ##  '#,     ,#' ,#      #,         ##   #,  ,#        
             '#######'   ##     ##  '#######'  #'      '#     #####' # '####'        



                  #######################################################
                  #                        -***-                        #
                  #          Department of theory and spectroscopy      #
                  #    Directorship and core code : Frank Neese         #
                  #        Max Planck Institute fuer Kohlenforschung    #
                  #                Kaiser Wilhelm Platz 1               #
                  #                 D-45470 Muelheim/Ruhr               #
                  #                      Germany                        #
                  #                                                     #
                  #                  All rights reserved                #
                  #                        -***-                        #
                  #######################################################


                         Program Version 5.0.0 -  RELEASE  -
                                (SVN: $Rev: 19529$)
                ($Date: 2021-06-28 11:36:33 +0200 (Mo, 28 Jun 2021) $)


 With contributions from (in alphabetic order):
   Daniel Aravena         : Magnetic Suceptibility
   Michael Atanasov       : Ab Initio Ligand Field Theory (pilot matlab implementation)
   Alexander A. Auer      : GIAO ZORA, VPT2 properties, NMR spectrum
   Ute Becker             : Parallelization
   Giovanni Bistoni       : ED, misc. LED, open-shell LED, HFLD
   Martin Brehm           : Molecular dynamics
   Dmytro Bykov           : SCF Hessian
   Vijay G. Chilkuri      : MRCI spin determinant printing, contributions to CSF-ICE
   Dipayan Datta          : RHF DLPNO-CCSD density
   Achintya Kumar Dutta   : EOM-CC, STEOM-CC
   Dmitry Ganyushin       : Spin-Orbit,Spin-Spin,Magnetic field MRCI
   Miquel Garcia          : C-PCM Hessian, Gaussian charge scheme
   Yang Guo               : DLPNO-NEVPT2, F12-NEVPT2, CIM, IAO-localization
   Andreas Hansen         : Spin unrestricted coupled pair/coupled cluster methods
   Benjamin Helmich-Paris : MC-RPA, TRAH-SCF, COSX integrals
   Lee Huntington         : MR-EOM, pCC
   Robert Izsak           : Overlap fitted RIJCOSX, COSX-SCS-MP3, EOM
   Marcus Kettner         : VPT2
   Christian Kollmar      : KDIIS, OOCD, Brueckner-CCSD(T), CCSD density, CASPT2, CASPT2-K
   Simone Kossmann        : Meta GGA functionals, TD-DFT gradient, OOMP2, MP2 Hessian
   Martin Krupicka        : Initial AUTO-CI
   Lucas Lang             : DCDCAS
   Marvin Lechner         : AUTO-CI (C++ implementation), FIC-MRCC
   Dagmar Lenk            : GEPOL surface, SMD
   Dimitrios Liakos       : Extrapolation schemes; Compound Job, initial MDCI parallelization
   Dimitrios Manganas     : Further ROCIS development; embedding schemes
   Dimitrios Pantazis     : SARC Basis sets
   Anastasios Papadopoulos: AUTO-CI, single reference methods and gradients
   Taras Petrenko         : DFT Hessian,TD-DFT gradient, ASA, ECA, R-Raman, ABS, FL, XAS/XES, NRVS
   Peter Pinski           : DLPNO-MP2, DLPNO-MP2 Gradient
   Christoph Reimann      : Effective Core Potentials
   Marius Retegan         : Local ZFS, SOC
   Christoph Riplinger    : Optimizer, TS searches, QM/MM, DLPNO-CCSD(T), (RO)-DLPNO pert. Triples
   Tobias Risthaus        : Range-separated hybrids, TD-DFT gradient, RPA, STAB
   Michael Roemelt        : Original ROCIS implementation
   Masaaki Saitow         : Open-shell DLPNO-CCSD energy and density
   Barbara Sandhoefer     : DKH picture change effects
   Avijit Sen             : IP-ROCIS
   Kantharuban Sivalingam : CASSCF convergence, NEVPT2, FIC-MRCI
   Bernardo de Souza      : ESD, SOC TD-DFT
   Georgi Stoychev        : AutoAux, RI-MP2 NMR
   Willem Van den Heuvel  : Paramagnetic NMR
   Boris Wezisla          : Elementary symmetry handling
   Frank Wennmohs         : Technical directorship


 We gratefully acknowledge several colleagues who have allowed us to
 interface, adapt or use parts of their codes:
   Stefan Grimme, W. Hujo, H. Kruse, P. Pracht,  : VdW corrections, initial TS optimization,
                  C. Bannwarth, S. Ehlert          DFT functionals, gCP, sTDA/sTD-DF
   Ed Valeev, F. Pavosevic, A. Kumar             : LibInt (2-el integral package), F12 methods
   Garnet Chan, S. Sharma, J. Yang, R. Olivares  : DMRG
   Ulf Ekstrom                                   : XCFun DFT Library
   Mihaly Kallay                                 : mrcc  (arbitrary order and MRCC methods)
   Jiri Pittner, Ondrej Demel                    : Mk-CCSD
   Frank Weinhold                                : gennbo (NPA and NBO analysis)
   Christopher J. Cramer and Donald G. Truhlar   : smd solvation model
   Lars Goerigk                                  : TD-DFT with DH, B97 family of functionals
   V. Asgeirsson, H. Jonsson                     : NEB implementation
   FAccTs GmbH                                   : IRC, NEB, NEB-TS, DLPNO-Multilevel, CI-OPT
                                                   MM, QMMM, 2- and 3-layer-ONIOM, Crystal-QMMM,
                                                   LR-CPCM, SF, NACMEs, symmetry and pop. for TD-DFT,
                                                   nearIR, NL-DFT gradient (VV10), updates on ESD,
                                                   ML-optimized integration grids
   S Lehtola, MJT Oliveira, MAL Marques          : LibXC Library
   Liviu Ungur et al                             : ANISO software


 Your calculation uses the libint2 library for the computation of 2-el integrals
 For citations please refer to: http://libint.valeyev.net

 Your ORCA version has been built with support for libXC version: 5.1.0
 For citations please refer to: https://tddft.org/programs/libxc/

 This ORCA versions uses:
   CBLAS   interface :  Fast vector & matrix operations
   LAPACKE interface :  Fast linear algebra routines
   SCALAPACK package :  Parallel linear algebra routines
   Shared memory     :  Shared parallel matrices
   BLAS/LAPACK       :  OpenBLAS 0.3.15  USE64BITINT DYNAMIC_ARCH NO_AFFINITY Haswell SINGLE_THREADED
        Core in use  :  Haswell
   Copyright (c) 2011-2014, The OpenBLAS Project


Your calculation utilizes the atom-pairwise dispersion correction
with the zero-damping scheme (D30)
Cite in your paper:
S.Grimme, J.Antony, S.Ehrlich and H.Krieg, J.Chem.Phys., 132, (2010), 154104 
   

XCFun DFT library Copyright 2009-2010 Ulf Ekstrom and contributors.
See http://admol.org/xcfun for more information.
This is free software; see the source code for copying conditions.
There is ABSOLUTELY NO WARRANTY; not even for MERCHANTABILITY or FITNESS FOR A PARTICULAR PURPOSE.
For details see the documentation.
Scientific users of this library should cite U. Ekstrom, L. Visscher, R. Bast, A. J. Thorvaldsen and K. Ruud;
J.Chem.Theor.Comp. 2010, DOI: 10.1021/ct100117s
XCFun Version 0.99 

================================================================================

----- Orbital basis set information -----
Your calculation utilizes the basis: def2-SVPD
   F. Weigend and R. Ahlrichs, Phys. Chem. Chem. Phys. 7, 3297 (2005).
   D. Rappoport and F. Furche, J. Chem. Phys. 133 134105 (2010).

----- AuxJ basis set information -----
Your calculation utilizes the auxiliary basis: def2/J
   F. Weigend, Phys. Chem. Chem. Phys. 8, 1057 (2006).

================================================================================
                                        WARNINGS
                       Please study these warnings very carefully!
================================================================================


INFO   : the flag for use of the SHARK integral package has been found!

================================================================================
                                       INPUT FILE
================================================================================
NAME = C3_wt_wb97_typm1_neg.com
|  1> !wB97X-D3 RIJCOSX def2-SVPD def2/J TightSCF CPCM(Water) 
|  2> *xyz 0 1
|  3> C          1.69499        1.54179       -5.57045
|  4> S          1.78029       -0.03313       -6.42874
|  5> O          2.56929        0.21366       -7.60736
|  6> O          0.41688       -0.46297       -6.61859
|  7> F          2.50513       -0.93326       -5.48257
|  8> H          1.18489        2.25500       -6.18367
|  9> H          2.68564        1.89081       -5.36624
| 10> H          1.16361        1.41804       -4.65000
| 11> *
| 12> %MaxCore 64000
| 13> 
| 14> %pal nprocs 8
| 15> end  
| 16> 
| 17> %scf
| 18>   MaxIter 150
| 19> end
| 20> 
| 21> 
| 22>                          ****END OF INPUT****
================================================================================

                       ****************************
                       * Single Point Calculation *
                       ****************************

---------------------------------
CARTESIAN COORDINATES (ANGSTROEM)
---------------------------------
  C      1.694990    1.541790   -5.570450
  S      1.780290   -0.033130   -6.428740
  O      2.569290    0.213660   -7.607360
  O      0.416880   -0.462970   -6.618590
  F      2.505130   -0.933260   -5.482570
  H      1.184890    2.255000   -6.183670
  H      2.685640    1.890810   -5.366240
  H      1.163610    1.418040   -4.650000

----------------------------
CARTESIAN COORDINATES (A.U.)
----------------------------
  NO LB      ZA    FRAG     MASS         X           Y           Z
   0 C     6.0000    0    12.011    3.203067    2.913561  -10.526625
   1 S    16.0000    0    32.060    3.364261   -0.062607  -12.148558
   2 O     8.0000    0    15.999    4.855254    0.403759  -14.375827
   3 O     8.0000    0    15.999    0.787789   -0.874887  -12.507322
   4 F     9.0000    0    18.998    4.734010   -1.763606  -10.360556
   5 H     1.0000    0     1.008    2.239118    4.261332  -11.685443
   6 H     1.0000    0     1.008    5.075124    3.573113  -10.140724
   7 H     1.0000    0     1.008    2.198904    2.679707   -8.787227

--------------------------------
INTERNAL COORDINATES (ANGSTROEM)
--------------------------------
 C      0   0   0     0.000000000000     0.00000000     0.00000000
 S      1   0   0     1.795636605914     0.00000000     0.00000000
 O      2   1   0     1.439642805872   105.48605342     0.00000000
 O      2   1   3     1.442113822207   106.22673339   234.59550751
 F      2   1   3     1.493607951037   104.40866289   116.90763824
 H      1   2   3     1.070004337608   109.47100904    63.09231103
 H      1   2   3     1.070001919157   109.47130486   303.09264242
 H      1   2   3     1.070003256724   109.47114860   183.09246931

---------------------------
INTERNAL COORDINATES (A.U.)
---------------------------
 C      0   0   0     0.000000000000     0.00000000     0.00000000
 S      1   0   0     3.393261421222     0.00000000     0.00000000
 O      2   1   0     2.720530633769   105.48605342     0.00000000
 O      2   1   3     2.725200177913   106.22673339   234.59550751
 F      2   1   3     2.822509978907   104.40866289   116.90763824
 H      1   2   3     2.022015160187   109.47100904    63.09231103
 H      1   2   3     2.022010589977   109.47130486   303.09264242
 H      1   2   3     2.022013117612   109.47114860   183.09246931

---------------------
BASIS SET INFORMATION
---------------------
There are 5 groups of distinct atoms

 Group   1 Type C   : 8s4p2d contracted to 4s2p2d pattern {5111/31/11}
 Group   2 Type S   : 11s8p2d contracted to 5s4p2d pattern {53111/5111/11}
 Group   3 Type O   : 8s5p2d contracted to 4s3p2d pattern {5111/311/11}
 Group   4 Type F   : 8s5p2d contracted to 4s3p2d pattern {5111/311/11}
 Group   5 Type H   : 4s2p contracted to 2s2p pattern {31/11}

Atom   0C    basis set group =>   1
Atom   1S    basis set group =>   2
Atom   2O    basis set group =>   3
Atom   3O    basis set group =>   3
Atom   4F    basis set group =>   4
Atom   5H    basis set group =>   5
Atom   6H    basis set group =>   5
Atom   7H    basis set group =>   5
---------------------------------
AUXILIARY/J BASIS SET INFORMATION
---------------------------------
There are 5 groups of distinct atoms

 Group   1 Type C   : 12s5p4d2f1g contracted to 6s4p3d1f1g pattern {711111/2111/211/2/1}
 Group   2 Type S   : 14s5p5d2f1g contracted to 8s4p3d1f1g pattern {71111111/2111/311/2/1}
 Group   3 Type O   : 12s5p4d2f1g contracted to 6s4p3d1f1g pattern {711111/2111/211/2/1}
 Group   4 Type F   : 12s5p4d2f1g contracted to 6s4p3d1f1g pattern {711111/2111/211/2/1}
 Group   5 Type H   : 5s2p1d contracted to 3s1p1d pattern {311/2/1}

Atom   0C    basis set group =>   1
Atom   1S    basis set group =>   2
Atom   2O    basis set group =>   3
Atom   3O    basis set group =>   3
Atom   4F    basis set group =>   4
Atom   5H    basis set group =>   5
Atom   6H    basis set group =>   5
Atom   7H    basis set group =>   5


           ************************************************************
           *        Program running with 8 parallel MPI-processes     *
           *              working on a common directory               *
           ************************************************************
------------------------------------------------------------------------------
                           ORCA GTO INTEGRAL CALCULATION
                           -- RI-GTO INTEGRALS CHOSEN --
------------------------------------------------------------------------------
------------------------------------------------------------------------------
                   ___                                                        
                  /   \      - P O W E R E D   B Y -                         
                 /     \                                                     
                 |  |  |   _    _      __       _____    __    __             
                 |  |  |  | |  | |    /  \     |  _  \  |  |  /  |          
                  \  \/   | |  | |   /    \    | | | |  |  | /  /          
                 / \  \   | |__| |  /  /\  \   | |_| |  |  |/  /          
                |  |  |   |  __  | /  /__\  \  |    /   |      \           
                |  |  |   | |  | | |   __   |  |    \   |  |\   \          
                \     /   | |  | | |  |  |  |  | |\  \  |  | \   \       
                 \___/    |_|  |_| |__|  |__|  |_| \__\ |__|  \__/        
                                                                              
                      - O R C A' S   B I G   F R I E N D -                    
                                      &                                       
                       - I N T E G R A L  F E E D E R -                       
                                                                              
 v1 FN, 2020, v2 2021                                                         
------------------------------------------------------------------------------


Reading SHARK input file C3_wt_wb97_typm1_neg.SHARKINP.tmp ... ok
----------------------
SHARK INTEGRAL PACKAGE
----------------------

Number of atoms                             ...      8
Number of basis functions                   ...    140
Number of shells                            ...     58
Maximum angular momentum                    ...      2
Integral batch strategy                     ... SHARK/LIBINT Hybrid
RI-J (if used) integral strategy            ... SPLIT-RIJ (Revised 2003 algorithm where possible)
Printlevel                                  ...      1
Contraction scheme used                     ... SEGMENTED contraction
Coulomb Range Separation                    ... NOT USED
Exchange Range Separation                   ... Long Range
   Mu parameter                             ...  0.250000
   Scaling (regular/separated)              ...  0.195728  0.804272
Finite Nucleus Model                        ... NOT USED
Auxiliary Coulomb fitting basis             ... AVAILABLE
   # of basis functions in Aux-J            ...    280
   # of shells in Aux-J                     ...     92
   Maximum angular momentum in Aux-J        ...      4
Auxiliary J/K fitting basis                 ... NOT available
Auxiliary Correlation fitting basis         ... NOT available
Auxiliary 'external' fitting basis          ... NOT available
Integral threshold                          ...     2.500000e-11
Primitive cut-off                           ...     2.500000e-12
Primitive pair pre-selection threshold      ...     2.500000e-12

Calculating pre-screening integrals         ... done (  0.0 sec) Dimension = 58
Organizing shell pair data                  ... done (  0.0 sec)
Shell pair information
Total number of shell pairs                 ...      1711
Shell pairs after pre-screening             ...      1698
Total number of primitive shell pairs       ...      4935
Primitive shell pairs kept                  ...      4118
          la=0 lb=0:    368 shell pairs
          la=1 lb=0:    564 shell pairs
          la=1 lb=1:    231 shell pairs
          la=2 lb=0:    270 shell pairs
          la=2 lb=1:    210 shell pairs
          la=2 lb=2:     55 shell pairs

Calculating one electron integrals          ... done (  0.0 sec)
Calculating RI/J V-Matrix + Cholesky decomp.... done (  0.0 sec)
Calculating Nuclear repulsion               ... done (  0.0 sec) ENN=    282.758242960353 Eh

SHARK setup successfully completed in   0.2 seconds

Maximum memory used throughout the entire GTOINT-calculation: 8.8 MB


           ************************************************************
           *        Program running with 8 parallel MPI-processes     *
           *              working on a common directory               *
           ************************************************************
-------------------------------------------------------------------------------
                                 ORCA SCF
-------------------------------------------------------------------------------

------------
SCF SETTINGS
------------
Hamiltonian:
 Density Functional     Method          .... DFT(GTOs)
 Exchange Functional    Exchange        .... WB97X-D3
 Correlation Functional Correlation     .... WB97X-D3
 Gradients option       PostSCFGGA      .... off
 Hybrid DFT is turned on
   Fraction HF Exchange ScalHFX         ....  0.195728
   Scaling of DF-GGA-X  ScalDFX         ....  0.000000
   Scaling of DF-GGA-C  ScalDFC         ....  1.000000
   Scaling of DF-LDA-C  ScalLDAC        ....  1.000000
   Perturbative correction              ....  0.000000
   Density functional embedding theory  .... OFF
 Long-range corrected/Screened/Range-Separated Hybrid DFT is turned on
   Amount of maximum screened exact exchange              ....  0.804272
   Range separation parameter mu (erf(mu*r12)/r12)        ....  0.250000
 RI-approximation to the Coulomb term is turned on
   Number of AuxJ basis functions       .... 280
   RIJ-COSX (HFX calculated with COS-X)).... on


General Settings:
 Integral files         IntName         .... C3_wt_wb97_typm1_neg
 Hartree-Fock type      HFTyp           .... RHF
 Total Charge           Charge          ....    0
 Multiplicity           Mult            ....    1
 Number of Electrons    NEL             ....   50
 Basis Dimension        Dim             ....  140
 Nuclear Repulsion      ENuc            ....    282.7582429604 Eh

Convergence Acceleration:
 DIIS                   CNVDIIS         .... on
   Start iteration      DIISMaxIt       ....    12
   Startup error        DIISStart       ....  0.200000
   # of expansion vecs  DIISMaxEq       ....     5
   Bias factor          DIISBfac        ....   1.050
   Max. coefficient     DIISMaxC        ....  10.000
 Trust-Rad. Augm. Hess. CNVTRAH         .... auto
   Auto Start mean grad. ratio tolernc. ....  1.125000
   Auto Start start iteration           ....    20
   Auto Start num. interpolation iter.  ....    10
   Max. Number of Micro iterations      ....    16
   Max. Number of Macro iterations      .... Maxiter - #DIIS iter
   Number of Davidson start vectors     ....     2
   Converg. threshold I  (grad. norm)   ....   1.000e-05
   Converg. threshold II (energy diff.) ....   1.000e-08
   Grad. Scal. Fac. for Micro threshold ....   0.100
   Minimum threshold for Micro iter.    ....   0.010
   NR start threshold (gradient norm)   ....   0.001
   Initial trust radius                 ....   0.400
   Minimum AH scaling param. (alpha)    ....   1.000
   Maximum AH scaling param. (alpha)    .... 1000.000
   Orbital update algorithm             .... Taylor
   White noise on init. David. guess    .... on
   Maximum white noise                  ....   0.010
   Quad. conv. algorithm                .... NR
 SOSCF                  CNVSOSCF        .... on
   Start iteration      SOSCFMaxIt      ....   150
   Startup grad/error   SOSCFStart      ....  0.003300
 Level Shifting         CNVShift        .... on
   Level shift para.    LevelShift      ....    0.2500
   Turn off err/grad.   ShiftErr        ....    0.0010
 Zerner damping         CNVZerner       .... off
 Static damping         CNVDamp         .... on
   Fraction old density DampFac         ....    0.7000
   Max. Damping (<1)    DampMax         ....    0.9800
   Min. Damping (>=0)   DampMin         ....    0.0000
   Turn off err/grad.   DampErr         ....    0.1000
 Fernandez-Rico         CNVRico         .... off

SCF Procedure:
 Maximum # iterations   MaxIter         ....   150
 SCF integral mode      SCFMode         .... Direct
   Integral package                     .... SHARK and LIBINT hybrid scheme
 Reset frequency        DirectResetFreq ....    20
 Integral Threshold     Thresh          ....  2.500e-11 Eh
 Primitive CutOff       TCut            ....  2.500e-12 Eh

Convergence Tolerance:
 Convergence Check Mode ConvCheckMode   .... Total+1el-Energy
 Convergence forced     ConvForced      .... 0
 Energy Change          TolE            ....  1.000e-08 Eh
 1-El. energy change                    ....  1.000e-05 Eh
 Orbital Gradient       TolG            ....  1.000e-05
 Orbital Rotation angle TolX            ....  1.000e-05
 DIIS Error             TolErr          ....  5.000e-07


Diagonalization of the overlap matrix:
Smallest eigenvalue                        ... 3.784e-04
Time for diagonalization                   ...    0.006 sec
Threshold for overlap eigenvalues          ... 1.000e-08
Number of eigenvalues below threshold      ... 0
Time for construction of square roots      ...    0.006 sec
Total time needed                          ...    0.012 sec

Time for model grid setup =    0.050 sec

------------------------------
INITIAL GUESS: MODEL POTENTIAL
------------------------------
Loading Hartree-Fock densities                     ... done
Calculating cut-offs                               ... done
Initializing the effective Hamiltonian             ... done
Setting up the integral package (SHARK)            ... done
Starting the Coulomb interaction                   ... done (   0.0 sec)
Reading the grid                                   ... done
Mapping shells                                     ... done
Starting the XC term evaluation                    ... done (   0.0 sec)
  promolecular density results
     # of electrons  =     49.998139480
     EX              =    -57.339814926
     EC              =     -1.799764107
     EX+EC           =    -59.139579033
Transforming the Hamiltonian                       ... done (   0.0 sec)
Diagonalizing the Hamiltonian                      ... done (   0.0 sec)
Back transforming the eigenvectors                 ... done (   0.0 sec)
Now organizing SCF variables                       ... done
                      ------------------
                      INITIAL GUESS DONE (   0.1 sec)
                      ------------------
-------------------
DFT GRID GENERATION
-------------------

General Integration Accuracy     IntAcc      ... 4.388
Radial Grid Type                 RadialGrid  ... OptM3 with GC (2021)
Angular Grid (max. ang.)         AngularGrid ... 4 (Lebedev-302)
Angular grid pruning method      GridPruning ... 4 (adaptive)
Weight generation scheme         WeightScheme... Becke
Basis function cutoff            BFCut       ... 1.0000e-11
Integration weight cutoff        WCut        ... 1.0000e-14
Angular grids for H and He will be reduced by one unit
Partially contracted basis set               ... off
Rotationally invariant grid construction     ... off

Total number of grid points                  ...    43367
Total number of batches                      ...      682
Average number of points per batch           ...       63
Average number of grid points per atom       ...     5421
Time for grid setup =    0.271 sec

--------------------
COSX GRID GENERATION
--------------------

GRIDX 1
-------
General Integration Accuracy     IntAcc      ... 3.816
Radial Grid Type                 RadialGrid  ... OptM3 with GC (2021)
Angular Grid (max. ang.)         AngularGrid ... 1 (Lebedev-50)
Angular grid pruning method      GridPruning ... 4 (adaptive)
Weight generation scheme         WeightScheme... Becke
Basis function cutoff            BFCut       ... 1.0000e-11
Integration weight cutoff        WCut        ... 1.0000e-14
Angular grids for H and He will be reduced by one unit
Partially contracted basis set               ... on
Rotationally invariant grid construction     ... off

Total number of grid points                  ...     5370
Total number of batches                      ...       89
Average number of points per batch           ...       60
Average number of grid points per atom       ...      671
UseSFitting                                  ... on

GRIDX 2
-------
General Integration Accuracy     IntAcc      ... 4.020
Radial Grid Type                 RadialGrid  ... OptM3 with GC (2021)
Angular Grid (max. ang.)         AngularGrid ... 2 (Lebedev-110)
Angular grid pruning method      GridPruning ... 4 (adaptive)
Weight generation scheme         WeightScheme... Becke
Basis function cutoff            BFCut       ... 1.0000e-11
Integration weight cutoff        WCut        ... 1.0000e-14
Angular grids for H and He will be reduced by one unit
Partially contracted basis set               ... on
Rotationally invariant grid construction     ... off

Total number of grid points                  ...    13354
Total number of batches                      ...      213
Average number of points per batch           ...       62
Average number of grid points per atom       ...     1669
UseSFitting                                  ... on

GRIDX 3
-------
General Integration Accuracy     IntAcc      ... 4.338
Radial Grid Type                 RadialGrid  ... OptM3 with GC (2021)
Angular Grid (max. ang.)         AngularGrid ... 3 (Lebedev-194)
Angular grid pruning method      GridPruning ... 4 (adaptive)
Weight generation scheme         WeightScheme... Becke
Basis function cutoff            BFCut       ... 1.0000e-11
Integration weight cutoff        WCut        ... 1.0000e-14
Angular grids for H and He will be reduced by one unit
Partially contracted basis set               ... on
Rotationally invariant grid construction     ... off

Total number of grid points                  ...    30386
Total number of batches                      ...      478
Average number of points per batch           ...       63
Average number of grid points per atom       ...     3798
UseSFitting                                  ... on

Time for X-Grid setup             =    0.226 sec


--------------------
CPCM SOLVATION MODEL
--------------------
CPCM parameters:
  Epsilon                                         ...      80.4000
  Refrac                                          ...       1.3300
  Rsolv                                           ...       1.3000
  Surface type                                    ... GAUSSIAN VDW
  Epsilon function type                           ...         CPCM
Radii:
 Radius for C  used is    3.8550 Bohr (=   2.0400 Ang.)
 Radius for S  used is    4.0818 Bohr (=   2.1600 Ang.)
 Radius for O  used is    3.4469 Bohr (=   1.8240 Ang.)
 Radius for F  used is    3.3335 Bohr (=   1.7640 Ang.)
 Radius for H  used is    2.4944 Bohr (=   1.3200 Ang.)
Calculating surface                               ...        done! (  0.0s)
GEPOL surface points                              ...          535
GEPOL Volume                                      ...     633.1093
GEPOL Surface-area                                ...     400.0162
Calculating surface distance matrix               ...        done! (  0.0s)
Performing Cholesky decomposition & store         ...        done! (  0.0s)
Overall time for CPCM initialization              ...                 0.0s
--------------
SCF ITERATIONS
--------------
ITER       Energy         Delta-E        Max-DP      RMS-DP      [F,P]     Damp
               ***  Starting incremental Fock matrix formation  ***
  0   -687.6666121379   0.000000000000 0.17300762  0.00332913  0.2615089 0.7000
  1   -687.7863770990  -0.119764961087 0.09310292  0.00203211  0.1190835 0.7000
                               ***Turning on DIIS***
  2   -687.8346068370  -0.048229738040 0.09823695  0.00319229  0.0416107 0.0000
  3   -687.9134298353  -0.078822998247 0.08033365  0.00142122  0.0606783 0.0000
  4   -687.9281201619  -0.014690326609 0.01518674  0.00029105  0.0124624 0.0000
                      *** Initiating the SOSCF procedure ***
                           *** Shutting down DIIS ***
                      *** Re-Reading the Fockian *** 
                      *** Removing any level shift *** 
ITER      Energy       Delta-E        Grad      Rot      Max-DP    RMS-DP
  5   -687.92846981  -0.0003496511  0.001091  0.001091  0.002156  0.000098
               *** Restarting incremental Fock matrix formation ***
  6   -687.92848909  -0.0000192753  0.000431  0.000743  0.001171  0.000049
  7   -687.92849370  -0.0000046147  0.000261  0.000552  0.000831  0.000032
  8   -687.92849547  -0.0000017634  0.000060  0.000056  0.000280  0.000010
  9   -687.92849554  -0.0000000720  0.000027  0.000023  0.000166  0.000004
 10   -687.92849557  -0.0000000315  0.000008  0.000006  0.000021  0.000001
 11   -687.92849557  -0.0000000018  0.000006  0.000004  0.000016  0.000000
                  ***Gradient check signals convergence***
              ***Rediagonalizing the Fockian in SOSCF/NRSCF***

               *****************************************************
               *                     SUCCESS                       *
               *           SCF CONVERGED AFTER  12 CYCLES          *
               *****************************************************

Old exchange energy                            =    -16.762649278 Eh
New exchange energy                            =    -16.762675587 Eh
Exchange energy change after final integration =     -0.000026309 Eh
Total energy after final integration           =   -687.928521881 Eh
Final COS-X integration done in                =     1.186 sec

----------------
TOTAL SCF ENERGY
----------------

Total Energy       :         -687.92852188 Eh          -18719.48676 eV

Components:
Nuclear Repulsion  :          282.75824296 Eh            7694.24296 eV
Electronic Energy  :         -970.68676484 Eh          -26413.72972 eV
One Electron Energy:        -1508.33796320 Eh          -41043.96261 eV
Two Electron Energy:          537.65119836 Eh           14630.23289 eV
Max COSX asymmetry :            0.00000662 Eh               0.00018 eV
CPCM Dielectric    :           -0.01594956 Eh              -0.43401 eV

Virial components:
Potential Energy   :        -1372.54987298 Eh          -37348.98083 eV
Kinetic Energy     :          684.62135110 Eh           18629.49407 eV
Virial Ratio       :            2.00483066


DFT components:
N(Alpha)           :       25.000040750628 electrons
N(Beta)            :       25.000040750628 electrons
N(Total)           :       50.000081501255 electrons
E(XC)              :      -43.131542441680 Eh       
DFET-embed. en.    :        0.000000000000 Eh       
CPCM Solvation Model Properties:
Surface-charge          :           -0.01314260
Charge-correction       :            0.00002094 Eh               0.00057 eV
Free-energy (cav+disp)  :  This term is not implemented in the current solvation scheme

---------------
SCF CONVERGENCE
---------------

  Last Energy change         ...   -3.0514e-10  Tolerance :   1.0000e-08
  Last MAX-Density change    ...    4.8850e-15  Tolerance :   1.0000e-07
  Last RMS-Density change    ...    6.8346e-17  Tolerance :   5.0000e-09
  Last Orbital Gradient      ...    4.7631e-07  Tolerance :   1.0000e-05
  Last Orbital Rotation      ...    1.0571e-06  Tolerance :   1.0000e-05

             **** THE GBW FILE WAS UPDATED (C3_wt_wb97_typm1_neg.gbw) ****
             **** DENSITY C3_wt_wb97_typm1_neg.scfp WAS UPDATED ****
             **** ENERGY FILE WAS UPDATED (C3_wt_wb97_typm1_neg.en.tmp) ****
             **** THE GBW FILE WAS UPDATED (C3_wt_wb97_typm1_neg.gbw) ****
             **** DENSITY C3_wt_wb97_typm1_neg.scfp WAS UPDATED ****
----------------
ORBITAL ENERGIES
----------------

  NO   OCC          E(Eh)            E(eV) 
   0   2.0000     -89.241728     -2428.3909 
   1   2.0000     -24.896495      -677.4681 
   2   2.0000     -19.271333      -524.3996 
   3   2.0000     -19.270200      -524.3688 
   4   2.0000     -10.329481      -281.0795 
   5   2.0000      -8.315771      -226.2836 
   6   2.0000      -6.279250      -170.8671 
   7   2.0000      -6.273566      -170.7124 
   8   2.0000      -6.271736      -170.6626 
   9   2.0000      -1.452483       -39.5241 
  10   2.0000      -1.244930       -33.8763 
  11   2.0000      -1.151374       -31.3305 
  12   2.0000      -0.901130       -24.5210 
  13   2.0000      -0.804442       -21.8900 
  14   2.0000      -0.687405       -18.7053 
  15   2.0000      -0.668833       -18.1999 
  16   2.0000      -0.663714       -18.0606 
  17   2.0000      -0.582197       -15.8424 
  18   2.0000      -0.576088       -15.6762 
  19   2.0000      -0.548984       -14.9386 
  20   2.0000      -0.541362       -14.7312 
  21   2.0000      -0.500758       -13.6263 
  22   2.0000      -0.451929       -12.2976 
  23   2.0000      -0.440786       -11.9944 
  24   2.0000      -0.431962       -11.7543 
  25   0.0000       0.069021         1.8781 
  26   0.0000       0.099676         2.7123 
  27   0.0000       0.100138         2.7249 
  28   0.0000       0.102354         2.7852 
  29   0.0000       0.122011         3.3201 
  30   0.0000       0.139103         3.7852 
  31   0.0000       0.163113         4.4385 
  32   0.0000       0.168033         4.5724 
  33   0.0000       0.179436         4.8827 
  34   0.0000       0.184679         5.0254 
  35   0.0000       0.191535         5.2119 
  36   0.0000       0.209615         5.7039 
  37   0.0000       0.210485         5.7276 
  38   0.0000       0.233619         6.3571 
  39   0.0000       0.235153         6.3988 
  40   0.0000       0.250490         6.8162 
  41   0.0000       0.266362         7.2481 
  42   0.0000       0.279160         7.5963 
  43   0.0000       0.292890         7.9700 
  44   0.0000       0.297933         8.1072 
  45   0.0000       0.327514         8.9121 
  46   0.0000       0.336039         9.1441 
  47   0.0000       0.341361         9.2889 
  48   0.0000       0.359089         9.7713 
  49   0.0000       0.374724        10.1968 
  50   0.0000       0.378784        10.3072 
  51   0.0000       0.384376        10.4594 
  52   0.0000       0.411347        11.1933 
  53   0.0000       0.411608        11.2004 
  54   0.0000       0.436796        11.8858 
  55   0.0000       0.440572        11.9886 
  56   0.0000       0.447587        12.1795 
  57   0.0000       0.458250        12.4696 
  58   0.0000       0.499511        13.5924 
  59   0.0000       0.507294        13.8042 
  60   0.0000       0.514895        14.0110 
  61   0.0000       0.528910        14.3924 
  62   0.0000       0.537076        14.6146 
  63   0.0000       0.541366        14.7313 
  64   0.0000       0.544024        14.8036 
  65   0.0000       0.554296        15.0832 
  66   0.0000       0.565585        15.3903 
  67   0.0000       0.580489        15.7959 
  68   0.0000       0.633926        17.2500 
  69   0.0000       0.641374        17.4527 
  70   0.0000       0.669951        18.2303 
  71   0.0000       0.698406        19.0046 
  72   0.0000       0.722166        19.6511 
  73   0.0000       0.723036        19.6748 
  74   0.0000       0.761893        20.7322 
  75   0.0000       0.768722        20.9180 
  76   0.0000       0.771780        21.0012 
  77   0.0000       0.812498        22.1092 
  78   0.0000       0.830671        22.6037 
  79   0.0000       0.853028        23.2121 
  80   0.0000       0.859316        23.3832 
  81   0.0000       0.880805        23.9679 
  82   0.0000       0.894912        24.3518 
  83   0.0000       0.929034        25.2803 
  84   0.0000       1.007389        27.4124 
  85   0.0000       1.007961        27.4280 
  86   0.0000       1.026425        27.9305 
  87   0.0000       1.050271        28.5793 
  88   0.0000       1.065378        28.9904 
  89   0.0000       1.072247        29.1773 
  90   0.0000       1.114621        30.3304 
  91   0.0000       1.139998        31.0209 
  92   0.0000       1.143872        31.1263 
  93   0.0000       1.194504        32.5041 
  94   0.0000       1.228400        33.4265 
  95   0.0000       1.233278        33.5592 
  96   0.0000       1.302975        35.4558 
  97   0.0000       1.327785        36.1309 
  98   0.0000       1.387415        37.7535 
  99   0.0000       1.488724        40.5102 
 100   0.0000       1.585916        43.1550 
 101   0.0000       1.586912        43.1821 
 102   0.0000       1.615341        43.9557 
 103   0.0000       1.658798        45.1382 
 104   0.0000       1.686561        45.8937 
 105   0.0000       1.700092        46.2619 
 106   0.0000       1.728944        47.0470 
 107   0.0000       1.756978        47.8098 
 108   0.0000       1.771114        48.1944 
 109   0.0000       1.814464        49.3741 
 110   0.0000       1.887197        51.3533 
 111   0.0000       1.936999        52.7084 
 112   0.0000       1.968481        53.5651 
 113   0.0000       2.043595        55.6091 
 114   0.0000       2.096076        57.0371 
 115   0.0000       2.159005        58.7495 
 116   0.0000       2.170106        59.0516 
 117   0.0000       2.182533        59.3897 
 118   0.0000       2.363201        64.3060 
 119   0.0000       2.447537        66.6009 
 120   0.0000       2.632958        71.6464 
 121   0.0000       2.634286        71.6826 
 122   0.0000       2.907424        79.1150 
 123   0.0000       2.918159        79.4071 
 124   0.0000       2.933883        79.8350 
 125   0.0000       2.936617        79.9094 
 126   0.0000       2.941377        80.0389 
 127   0.0000       2.966058        80.7105 
 128   0.0000       2.974297        80.9347 
 129   0.0000       3.033482        82.5452 
 130   0.0000       3.101746        84.4028 
 131   0.0000       3.177330        86.4595 
 132   0.0000       3.183317        86.6225 
 133   0.0000       3.378652        91.9378 
 134   0.0000       3.383324        92.0649 
 135   0.0000       3.408655        92.7542 
 136   0.0000       3.439232        93.5863 
 137   0.0000       3.453034        93.9618 
 138   0.0000       3.652787        99.3974 
 139   0.0000       3.792627       103.2026 

                    ********************************
                    * MULLIKEN POPULATION ANALYSIS *
                    ********************************

-----------------------
MULLIKEN ATOMIC CHARGES
-----------------------
   0 C :    0.273735
   1 S :    1.292638
   2 O :   -0.680446
   3 O :   -0.681440
   4 F :   -0.394151
   5 H :    0.060753
   6 H :    0.066821
   7 H :    0.062090
Sum of atomic charges:    0.0000000

--------------------------------
MULLIKEN REDUCED ORBITAL CHARGES
--------------------------------
  0 C s       :     2.640199  s :     2.640199
      pz      :     1.038117  p :     3.018524
      px      :     1.094710
      py      :     0.885697
      dz2     :     0.012581  d :     0.067543
      dxz     :     0.013033
      dyz     :     0.016422
      dx2y2   :     0.022164
      dxy     :     0.003343
  1 S s       :     5.101396  s :     5.101396
      pz      :     2.883489  p :     8.734094
      px      :     2.824748
      py      :     3.025856
      dz2     :     0.149143  d :     0.871873
      dxz     :     0.199566
      dyz     :     0.177523
      dx2y2   :     0.169903
      dxy     :     0.175737
  2 O s       :     3.927813  s :     3.927813
      pz      :     1.394775  p :     4.735299
      px      :     1.621406
      py      :     1.719118
      dz2     :     0.004596  d :     0.017334
      dxz     :     0.001781
      dyz     :     0.004047
      dx2y2   :     0.003692
      dxy     :     0.003218
  3 O s       :     3.928402  s :     3.928402
      pz      :     1.755278  p :     4.735768
      px      :     1.267239
      py      :     1.713252
      dz2     :     0.002827  d :     0.017270
      dxz     :     0.003780
      dyz     :     0.000052
      dx2y2   :     0.006704
      dxy     :     0.003907
  4 F s       :     3.961425  s :     3.961425
      pz      :     1.779698  p :     5.419685
      px      :     1.847529
      py      :     1.792458
      dz2     :     0.002269  d :     0.013042
      dxz     :     0.003249
      dyz     :     0.004424
      dx2y2   :     0.000361
      dxy     :     0.002739
  5 H s       :     0.858033  s :     0.858033
      pz      :     0.028882  p :     0.081214
      px      :     0.025289
      py      :     0.027043
  6 H s       :     0.854091  s :     0.854091
      pz      :     0.010830  p :     0.079088
      px      :     0.061761
      py      :     0.006497
  7 H s       :     0.858433  s :     0.858433
      pz      :     0.050355  p :     0.079477
      px      :     0.026453
      py      :     0.002669


                     *******************************
                     * LOEWDIN POPULATION ANALYSIS *
                     *******************************

----------------------
LOEWDIN ATOMIC CHARGES
----------------------
   0 C :    0.139591
   1 S :    1.113609
   2 O :   -0.499388
   3 O :   -0.498353
   4 F :   -0.269669
   5 H :    0.010256
   6 H :    0.002224
   7 H :    0.001730

-------------------------------
LOEWDIN REDUCED ORBITAL CHARGES
-------------------------------
  0 C s       :     2.727817  s :     2.727817
      pz      :     0.960360  p :     2.806955
      px      :     0.994952
      py      :     0.851643
      dz2     :     0.057827  d :     0.325637
      dxz     :     0.056681
      dyz     :     0.078488
      dx2y2   :     0.066975
      dxy     :     0.065666
  1 S s       :     4.666652  s :     4.666652
      pz      :     2.787524  p :     8.376895
      px      :     2.798548
      py      :     2.790823
      dz2     :     0.321099  d :     1.842844
      dxz     :     0.418743
      dyz     :     0.382071
      dx2y2   :     0.377016
      dxy     :     0.343915
  2 O s       :     3.560954  s :     3.560954
      pz      :     1.488888  p :     4.701828
      px      :     1.595108
      py      :     1.617832
      dz2     :     0.063879  d :     0.236607
      dxz     :     0.065873
      dyz     :     0.053814
      dx2y2   :     0.028133
      dxy     :     0.024907
  3 O s       :     3.563052  s :     3.563052
      pz      :     1.647893  p :     4.700966
      px      :     1.422738
      py      :     1.630335
      dz2     :     0.023946  d :     0.234335
      dxz     :     0.062286
      dyz     :     0.016167
      dx2y2   :     0.065813
      dxy     :     0.066125
  4 F s       :     3.716805  s :     3.716805
      pz      :     1.757449  p :     5.335057
      px      :     1.807435
      py      :     1.770173
      dz2     :     0.046368  d :     0.217806
      dxz     :     0.042014
      dyz     :     0.050605
      dx2y2   :     0.042794
      dxy     :     0.036025
  5 H s       :     0.717719  s :     0.717719
      pz      :     0.092203  p :     0.272025
      px      :     0.089018
      py      :     0.090804
  6 H s       :     0.724388  s :     0.724388
      pz      :     0.073957  p :     0.273388
      px      :     0.130178
      py      :     0.069252
  7 H s       :     0.724985  s :     0.724985
      pz      :     0.119879  p :     0.273285
      px      :     0.090489
      py      :     0.062917


                      *****************************
                      * MAYER POPULATION ANALYSIS *
                      *****************************

  NA   - Mulliken gross atomic population
  ZA   - Total nuclear charge
  QA   - Mulliken gross atomic charge
  VA   - Mayer's total valence
  BVA  - Mayer's bonded valence
  FA   - Mayer's free valence

  ATOM       NA         ZA         QA         VA         BVA        FA
  0 C      5.7263     6.0000     0.2737     3.9048     3.9048     0.0000
  1 S     14.7074    16.0000     1.2926     4.9972     4.9972     0.0000
  2 O      8.6804     8.0000    -0.6804     1.6445     1.6445     0.0000
  3 O      8.6814     8.0000    -0.6814     1.6432     1.6432     0.0000
  4 F      9.3942     9.0000    -0.3942     0.7266     0.7266     0.0000
  5 H      0.9392     1.0000     0.0608     1.1825     1.1825    -0.0000
  6 H      0.9332     1.0000     0.0668     1.1655     1.1655     0.0000
  7 H      0.9379     1.0000     0.0621     1.1684     1.1684     0.0000

  Mayer bond orders larger than 0.100000
B(  0-C ,  1-S ) :   1.0216 B(  0-C ,  5-H ) :   0.9227 B(  0-C ,  6-H ) :   0.9286 
B(  0-C ,  7-H ) :   0.9322 B(  1-S ,  2-O ) :   1.5196 B(  1-S ,  3-O ) :   1.5165 
B(  1-S ,  4-F ) :   0.6605 

-------
TIMINGS
-------

Total SCF time: 0 days 0 hours 0 min 9 sec 

Total time                  ....       9.728 sec
Sum of individual times     ....       9.531 sec  ( 98.0%)

Fock matrix formation       ....       8.851 sec  ( 91.0%)
  Split-RI-J                ....       0.441 sec  (  5.0% of F)
  Chain of spheres X        ....       6.356 sec  ( 71.8% of F)
  XC integration            ....       0.985 sec  ( 11.1% of F)
    Basis function eval.    ....       0.309 sec  ( 31.4% of XC)
    Density eval.           ....       0.198 sec  ( 20.1% of XC)
    XC-Functional eval.     ....       0.113 sec  ( 11.5% of XC)
    XC-Potential eval.      ....       0.264 sec  ( 26.8% of XC)
Diagonalization             ....       0.031 sec  (  0.3%)
Density matrix formation    ....       0.004 sec  (  0.0%)
Population analysis         ....       0.005 sec  (  0.1%)
Initial guess               ....       0.045 sec  (  0.5%)
Orbital Transformation      ....       0.000 sec  (  0.0%)
Orbital Orthonormalization  ....       0.000 sec  (  0.0%)
DIIS solution               ....       0.021 sec  (  0.2%)
SOSCF solution              ....       0.027 sec  (  0.3%)
Grid generation             ....       0.547 sec  (  5.6%)

Maximum memory used throughout the entire SCF-calculation: 48.7 MB


-------------------------------------------------------------------------------
                          DFT DISPERSION CORRECTION                            
                                                                               
                              DFTD3 V3.1  Rev 1                                
                              USING zero damping                               
-------------------------------------------------------------------------------
The omegaB97X-D3 functional is recognized. Fit by Chai et al.
Active option DFTDOPT                   ...         3   

molecular C6(AA) [au] = 915.023401 


            DFT-D V3
 parameters
 s6 scaling factor         :     1.0000 
 rs6 scaling factor        :     1.2810 
 s8 scaling factor         :     1.0000 
 rs8 scaling factor        :     1.0940 
 Damping factor alpha6     :    14.0000 
 Damping factor alpha8     :    16.0000 
 ad hoc parameters k1-k3   :    16.0000     1.3333    -4.0000 

 Edisp/kcal,au: -0.959664971421  -0.001529323315 
 E6   /kcal   :  -0.317480235 
 E8   /kcal   :  -0.642184736 
 % E8         :  66.917596814 

-------------------------   ----------------
Dispersion correction           -0.001529323
-------------------------   ----------------


-------------------------   --------------------
FINAL SINGLE POINT ENERGY      -687.930051204018
-------------------------   --------------------


                            ***************************************
                            *     ORCA property calculations      *
                            ***************************************

                                    ---------------------
                                    Active property flags
                                    ---------------------
   (+) Dipole Moment


------------------------------------------------------------------------------
                       ORCA ELECTRIC PROPERTIES CALCULATION
------------------------------------------------------------------------------

Dipole Moment Calculation                       ... on
Quadrupole Moment Calculation                   ... off
Polarizability Calculation                      ... off
GBWName                                         ... C3_wt_wb97_typm1_neg.gbw
Electron density file                           ... C3_wt_wb97_typm1_neg.scfp
The origin for moment calculation is the CENTER OF MASS  = ( 3.426810,  0.025928 -11.965519)

-------------
DIPOLE MOMENT
-------------
                                X             Y             Z
Electronic contribution:      1.40371      -4.88864      -0.22137
Nuclear contribution   :     -1.03036       6.05593       1.81567
                        -----------------------------------------
Total Dipole Moment    :      0.37335       1.16729       1.59431
                        -----------------------------------------
Magnitude (a.u.)       :      2.01091
Magnitude (Debye)      :      5.11133



--------------------
Rotational spectrum 
--------------------
 
Rotational constants in cm-1:     0.164224     0.152173     0.148737 
Rotational constants in MHz :  4923.310232  4562.031098  4459.033187 

 Dipole components along the rotational axes: 
x,y,z [a.u.] :     1.284860     1.533758    -0.201211 
x,y,z [Debye]:     3.265855     3.898502    -0.511438 

 

Timings for individual modules:

Sum of individual times         ...       11.043 sec (=   0.184 min)
GTO integral calculation        ...        0.707 sec (=   0.012 min)   6.4 %
SCF iterations                  ...       10.336 sec (=   0.172 min)  93.6 %
                             ****ORCA TERMINATED NORMALLY****
TOTAL RUN TIME: 0 days 0 hours 0 minutes 11 seconds 555 msec
