
                                        *****************
                                        * O   R   C   A *
                                        *****************

                                            #,                                       
                                            ###                                      
                                            ####                                     
                                            #####                                    
                                            ######                                   
                                           ########,                                 
                                     ,,################,,,,,                         
                               ,,#################################,,                 
                          ,,##########################################,,             
                       ,#########################################, ''#####,          
                    ,#############################################,,   '####,        
                  ,##################################################,,,,####,       
                ,###########''''           ''''###############################       
              ,#####''   ,,,,##########,,,,          '''####'''          '####       
            ,##' ,,,,###########################,,,                        '##       
           ' ,,###''''                  '''############,,,                           
         ,,##''                                '''############,,,,        ,,,,,,###''
      ,#''                                            '''#######################'''  
     '                                                          ''''####''''         
             ,#######,   #######,   ,#######,      ##                                
            ,#'     '#,  ##    ##  ,#'     '#,    #''#        ######   ,####,        
            ##       ##  ##   ,#'  ##            #'  '#       #        #'  '#        
            ##       ##  #######   ##           ,######,      #####,   #    #        
            '#,     ,#'  ##    ##  '#,     ,#' ,#      #,         ##   #,  ,#        
             '#######'   ##     ##  '#######'  #'      '#     #####' # '####'        



                  #######################################################
                  #                        -***-                        #
                  #          Department of theory and spectroscopy      #
                  #    Directorship and core code : Frank Neese         #
                  #        Max Planck Institute fuer Kohlenforschung    #
                  #                Kaiser Wilhelm Platz 1               #
                  #                 D-45470 Muelheim/Ruhr               #
                  #                      Germany                        #
                  #                                                     #
                  #                  All rights reserved                #
                  #                        -***-                        #
                  #######################################################


                         Program Version 5.0.0 -  RELEASE  -
                                (SVN: $Rev: 19529$)
                ($Date: 2021-06-28 11:36:33 +0200 (Mo, 28 Jun 2021) $)


 With contributions from (in alphabetic order):
   Daniel Aravena         : Magnetic Suceptibility
   Michael Atanasov       : Ab Initio Ligand Field Theory (pilot matlab implementation)
   Alexander A. Auer      : GIAO ZORA, VPT2 properties, NMR spectrum
   Ute Becker             : Parallelization
   Giovanni Bistoni       : ED, misc. LED, open-shell LED, HFLD
   Martin Brehm           : Molecular dynamics
   Dmytro Bykov           : SCF Hessian
   Vijay G. Chilkuri      : MRCI spin determinant printing, contributions to CSF-ICE
   Dipayan Datta          : RHF DLPNO-CCSD density
   Achintya Kumar Dutta   : EOM-CC, STEOM-CC
   Dmitry Ganyushin       : Spin-Orbit,Spin-Spin,Magnetic field MRCI
   Miquel Garcia          : C-PCM Hessian, Gaussian charge scheme
   Yang Guo               : DLPNO-NEVPT2, F12-NEVPT2, CIM, IAO-localization
   Andreas Hansen         : Spin unrestricted coupled pair/coupled cluster methods
   Benjamin Helmich-Paris : MC-RPA, TRAH-SCF, COSX integrals
   Lee Huntington         : MR-EOM, pCC
   Robert Izsak           : Overlap fitted RIJCOSX, COSX-SCS-MP3, EOM
   Marcus Kettner         : VPT2
   Christian Kollmar      : KDIIS, OOCD, Brueckner-CCSD(T), CCSD density, CASPT2, CASPT2-K
   Simone Kossmann        : Meta GGA functionals, TD-DFT gradient, OOMP2, MP2 Hessian
   Martin Krupicka        : Initial AUTO-CI
   Lucas Lang             : DCDCAS
   Marvin Lechner         : AUTO-CI (C++ implementation), FIC-MRCC
   Dagmar Lenk            : GEPOL surface, SMD
   Dimitrios Liakos       : Extrapolation schemes; Compound Job, initial MDCI parallelization
   Dimitrios Manganas     : Further ROCIS development; embedding schemes
   Dimitrios Pantazis     : SARC Basis sets
   Anastasios Papadopoulos: AUTO-CI, single reference methods and gradients
   Taras Petrenko         : DFT Hessian,TD-DFT gradient, ASA, ECA, R-Raman, ABS, FL, XAS/XES, NRVS
   Peter Pinski           : DLPNO-MP2, DLPNO-MP2 Gradient
   Christoph Reimann      : Effective Core Potentials
   Marius Retegan         : Local ZFS, SOC
   Christoph Riplinger    : Optimizer, TS searches, QM/MM, DLPNO-CCSD(T), (RO)-DLPNO pert. Triples
   Tobias Risthaus        : Range-separated hybrids, TD-DFT gradient, RPA, STAB
   Michael Roemelt        : Original ROCIS implementation
   Masaaki Saitow         : Open-shell DLPNO-CCSD energy and density
   Barbara Sandhoefer     : DKH picture change effects
   Avijit Sen             : IP-ROCIS
   Kantharuban Sivalingam : CASSCF convergence, NEVPT2, FIC-MRCI
   Bernardo de Souza      : ESD, SOC TD-DFT
   Georgi Stoychev        : AutoAux, RI-MP2 NMR
   Willem Van den Heuvel  : Paramagnetic NMR
   Boris Wezisla          : Elementary symmetry handling
   Frank Wennmohs         : Technical directorship


 We gratefully acknowledge several colleagues who have allowed us to
 interface, adapt or use parts of their codes:
   Stefan Grimme, W. Hujo, H. Kruse, P. Pracht,  : VdW corrections, initial TS optimization,
                  C. Bannwarth, S. Ehlert          DFT functionals, gCP, sTDA/sTD-DF
   Ed Valeev, F. Pavosevic, A. Kumar             : LibInt (2-el integral package), F12 methods
   Garnet Chan, S. Sharma, J. Yang, R. Olivares  : DMRG
   Ulf Ekstrom                                   : XCFun DFT Library
   Mihaly Kallay                                 : mrcc  (arbitrary order and MRCC methods)
   Jiri Pittner, Ondrej Demel                    : Mk-CCSD
   Frank Weinhold                                : gennbo (NPA and NBO analysis)
   Christopher J. Cramer and Donald G. Truhlar   : smd solvation model
   Lars Goerigk                                  : TD-DFT with DH, B97 family of functionals
   V. Asgeirsson, H. Jonsson                     : NEB implementation
   FAccTs GmbH                                   : IRC, NEB, NEB-TS, DLPNO-Multilevel, CI-OPT
                                                   MM, QMMM, 2- and 3-layer-ONIOM, Crystal-QMMM,
                                                   LR-CPCM, SF, NACMEs, symmetry and pop. for TD-DFT,
                                                   nearIR, NL-DFT gradient (VV10), updates on ESD,
                                                   ML-optimized integration grids
   S Lehtola, MJT Oliveira, MAL Marques          : LibXC Library
   Liviu Ungur et al                             : ANISO software


 Your calculation uses the libint2 library for the computation of 2-el integrals
 For citations please refer to: http://libint.valeyev.net

 Your ORCA version has been built with support for libXC version: 5.1.0
 For citations please refer to: https://tddft.org/programs/libxc/

 This ORCA versions uses:
   CBLAS   interface :  Fast vector & matrix operations
   LAPACKE interface :  Fast linear algebra routines
   SCALAPACK package :  Parallel linear algebra routines
   Shared memory     :  Shared parallel matrices
   BLAS/LAPACK       :  OpenBLAS 0.3.15  USE64BITINT DYNAMIC_ARCH NO_AFFINITY Haswell SINGLE_THREADED
        Core in use  :  Haswell
   Copyright (c) 2011-2014, The OpenBLAS Project




***************************************
The coordinates will be read from file: B.xyz
***************************************


Your calculation utilizes the atom-pairwise dispersion correction
with the Becke-Johnson damping scheme (D3BJ)
Cite in your paper:
S.Grimme, S.Ehrlich, L.Goerigk, J Comput Chem, (2011), 32, 1456–1465 
S.Grimme, J.Antony, S.Ehrlich and H.Krieg, J.Chem.Phys., 132, (2010), 154104 
   

================================================================================

----- Orbital basis set information -----
Your calculation utilizes the basis: def2-TZVP
   F. Weigend and R. Ahlrichs, Phys. Chem. Chem. Phys. 7, 3297 (2005).

----- AuxJ basis set information -----
Your calculation utilizes the auxiliary basis: def2/J
   F. Weigend, Phys. Chem. Chem. Phys. 8, 1057 (2006).

================================================================================
                                        WARNINGS
                       Please study these warnings very carefully!
================================================================================


INFO   : the flag for use of the SHARK integral package has been found!

================================================================================
                                       INPUT FILE
================================================================================
NAME = PBE0_B_wt_wb97.com
|  1> !PBE0 D3BJ RIJCOSX def2-TZVP def2/J TightSCF xyzfile                                                                                         
|  2> 
|  3> *xyzfile 0 1 B.xyz
|  4> 
|  5> %MaxCore 64000
|  6> 
|  7> %pal nprocs 18                                                                                                                                                  
|  8> end  
|  9> 
| 10> %scf
| 11>   MaxIter 150
| 12> end
| 13> 
| 14> 
| 15>                          ****END OF INPUT****
================================================================================

                       ****************************
                       * Single Point Calculation *
                       ****************************

---------------------------------
CARTESIAN COORDINATES (ANGSTROEM)
---------------------------------
  C      4.490588    1.155899   -2.469290
  N      4.305394    1.222762   -3.908317
  C      4.906458   -3.102816   -5.954844
  C      3.511771   -2.806215   -6.492283
  H      2.736044   -3.373445   -5.973736
  H      3.444904   -3.040831   -7.555281
  S      3.004618   -1.096206   -6.389259
  C      4.631918    2.246365   -4.670958
  N      4.541686    2.143990   -5.987139
  N      5.084086    3.393584   -4.118545
  H      4.920675    3.570501   -3.135870
  H      5.254652    4.197390   -4.706956
  H      3.824530    0.449113   -4.350926
  H      4.343373    1.249318   -6.416646
  H      4.676712    2.956624   -6.574113
  O      4.128856   -0.329647   -6.953717
  O      1.781285   -1.000779   -7.136399
  C      5.942129    0.939500   -2.036893
  H      3.864305    0.328532   -2.136611
  H      4.076233    2.049994   -1.989010
  C      6.462677   -3.117775   -3.944671
  C      5.024977   -3.025679   -4.437625
  H      4.423321   -3.818693   -3.977648
  H      4.579350   -2.087131   -4.108727
  H      5.201533   -4.100207   -6.296905
  H      5.605922   -2.397822   -6.413368
  C      6.559957   -0.356290   -2.559086
  H      5.967976    0.952567   -0.942444
  H      6.547184    1.788331   -2.368849
  C      6.006283   -1.615917   -1.899301
  H      7.642360   -0.318000   -2.402059
  H      6.414855   -0.403433   -3.642587
  C      6.608718   -2.917014   -2.435655
  H      6.190324   -1.561115   -0.820948
  H      4.919250   -1.651245   -2.016586
  H      7.066975   -2.374258   -4.475514
  H      6.887808   -4.089747   -4.215332
  H      6.135197   -3.755573   -1.915159
  H      7.671142   -2.955503   -2.172291
  O      2.851546   -0.783683   -4.956789

----------------------------
CARTESIAN COORDINATES (A.U.)
----------------------------
  NO LB      ZA    FRAG     MASS         X           Y           Z
   0 C     6.0000    0    12.011    8.485982    2.184332   -4.666282
   1 N     7.0000    0    14.007    8.136015    2.310685   -7.385649
   2 C     6.0000    0    12.011    9.271862   -5.863473  -11.253025
   3 C     6.0000    0    12.011    6.636285   -5.302977  -12.268638
   4 H     1.0000    0     1.008    5.170374   -6.374888  -11.288724
   5 H     1.0000    0     1.008    6.509926   -5.746338  -14.277412
   6 S    16.0000    0    32.060    5.677904   -2.071530  -12.073950
   7 C     6.0000    0    12.011    8.753057    4.245015   -8.826831
   8 N     7.0000    0    14.007    8.582543    4.051553  -11.314052
   9 N     7.0000    0    14.007    9.607530    6.412945   -7.782923
  10 H     1.0000    0     1.008    9.298728    6.747268   -5.925936
  11 H     1.0000    0     1.008    9.929852    7.931917   -8.894858
  12 H     1.0000    0     1.008    7.227314    0.848701   -8.222058
  13 H     1.0000    0     1.008    8.207786    2.360868  -12.125704
  14 H     1.0000    0     1.008    8.837705    5.587209  -12.423274
  15 O     8.0000    0    15.999    7.802408   -0.622942  -13.140621
  16 O     8.0000    0    15.999    3.366140   -1.891199  -13.485840
  17 C     6.0000    0    12.011   11.228997    1.775397   -3.849170
  18 H     1.0000    0     1.008    7.302479    0.620836   -4.037610
  19 H     1.0000    0     1.008    7.702964    3.873927   -3.758685
  20 C     6.0000    0    12.011   12.212689   -5.891741   -7.454347
  21 C     6.0000    0    12.011    9.495831   -5.717705   -8.385896
  22 H     1.0000    0     1.008    8.358866   -7.216284   -7.516666
  23 H     1.0000    0     1.008    8.653718   -3.944106   -7.764369
  24 H     1.0000    0     1.008    9.829473   -7.748269  -11.899427
  25 H     1.0000    0     1.008   10.593657   -4.531226  -12.119509
  26 C     6.0000    0    12.011   12.396522   -0.673291   -4.835971
  27 H     1.0000    0     1.008   11.277840    1.800090   -1.780961
  28 H     1.0000    0     1.008   12.372385    3.379455   -4.476477
  29 C     6.0000    0    12.011   11.350230   -3.053641   -3.589158
  30 H     1.0000    0     1.008   14.441966   -0.600934   -4.539234
  31 H     1.0000    0     1.008   12.122318   -0.762378   -6.883492
  32 C     6.0000    0    12.011   12.488666   -5.512358   -4.602721
  33 H     1.0000    0     1.008   11.698016   -2.950080   -1.551366
  34 H     1.0000    0     1.008    9.296035   -3.120400   -3.810796
  35 H     1.0000    0     1.008   13.354648   -4.486697   -8.457496
  36 H     1.0000    0     1.008   13.016070   -7.728501   -7.965822
  37 H     1.0000    0     1.008   11.593841   -7.097005   -3.619127
  38 H     1.0000    0     1.008   14.496357   -5.585092   -4.105035
  39 O     8.0000    0    15.999    5.388641   -1.480946   -9.366974

--------------------------------
INTERNAL COORDINATES (ANGSTROEM)
--------------------------------
 C      0   0   0     0.000000000000     0.00000000     0.00000000
 N      1   0   0     1.452434888732     0.00000000     0.00000000
 C      2   1   0     4.822880648060   111.29935464     0.00000000
 C      3   2   1     1.523799819616    82.01111056   124.72570022
 H      4   3   2     1.091968299252   112.43309611   255.51929182
 H      4   3   2     1.090632873150   110.97759244   134.54655122
 S      4   3   2     1.786602224664   115.19977359    16.50892478
 C      2   1   3     1.317574833962   125.28497018   214.05519914
 N      8   2   1     1.323236350905   119.91604121   173.18858040
 N      8   2   1     1.351194480527   120.39094198   354.48825376
 H     10   8   2     1.011757151303   119.43893893   342.13916756
 H     10   8   2     1.010654769343   119.58539038   185.29571941
 H      2   1   3     1.012750840265   117.28239304    38.84614007
 H      9   8   2     1.012048706728   120.25757225   351.78674532
 H      9   8   2     1.011506480060   120.39405507   172.23609159
 O      7   4   3     1.473139212620   105.02973514    49.07238667
 O      7   4   3     1.436617023222   105.98041552   170.73821441
 C      1   2   3     1.529956533456   114.04751046    71.27147181
 H      1   2   3     1.089697165343   105.31628314   309.84494500
 H      1   2   3     1.096250554262   110.38499465   196.36075284
 C      3   2   1     2.542211031985    75.28786529   328.63877310
 C     21   3   2     1.522650424266    33.45203408    62.46988994
 H     22  21   3     1.096558425421   109.78678321   123.00138599
 H     22  21   3     1.089784085482   109.90626334   238.94967961
 H      3   2   1     1.094926392967   169.46526939   316.66150389
 H      3   2   1     1.093851646948    71.30795148   237.06279558
 C     18   1   2     1.527569327213   114.02213033   299.75436756
 H     18   1   2     1.094832037269   107.65179087   177.40351951
 H     18   1   2     1.093983651653   109.22173402    62.36298160
 C     27  18   1     1.525952470352   113.93276277   288.90034571
 H     27  18   1     1.094403426518   108.74093275   167.10616769
 H     27  18   1     1.094190161747   108.74874272    52.17399198
 C     21   3   2     1.529300762752   146.92063230    53.80488115
 H     30  27  18     1.095317124906   108.86941482   300.75108730
 H     30  27  18     1.093912987644   109.92906200    56.35085961
 H     21   3   2     1.095348999413    87.16372703   291.04892433
 H     21   3   2     1.094861915024    92.71949470   185.57163885
 H     33  21   3     1.094677724411   109.10507473    72.09358689
 H     33  21   3     1.095256828209   108.98305469   187.60350442
 O      7   4   3     1.474133937430   106.76381078   292.33403201

---------------------------
INTERNAL COORDINATES (A.U.)
---------------------------
 C      0   0   0     0.000000000000     0.00000000     0.00000000
 N      1   0   0     2.744704167055     0.00000000     0.00000000
 C      2   1   0     9.113923601421   111.29935464     0.00000000
 C      3   2   1     2.879564341994    82.01111056   124.72570022
 H      4   3   2     2.063521032510   112.43309611   255.51929182
 H      4   3   2     2.060997442905   110.97759244   134.54655122
 S      4   3   2     3.376188914869   115.19977359    16.50892478
 C      2   1   3     2.489855597135   125.28497018   214.05519914
 N      8   2   1     2.500554313659   119.91604121   173.18858040
 N      8   2   1     2.553387521862   120.39094198   354.48825376
 H     10   8   2     1.911943930000   119.43893893   342.13916756
 H     10   8   2     1.909860730000   119.58539038   185.29571941
 H      2   1   3     1.913821729999   117.28239304    38.84614007
 H      9   8   2     1.912494889904   120.25757225   351.78674532
 H      9   8   2     1.911470230000   120.39405507   172.23609159
 O      7   4   3     2.783829668993   105.02973514    49.07238667
 O      7   4   3     2.714812733219   105.98041552   170.73821441
 C      1   2   3     2.891198845036   114.04751046    71.27147181
 H      1   2   3     2.059229211409   105.31628314   309.84494500
 H      1   2   3     2.071613321715   110.38499465   196.36075284
 C      3   2   1     4.804082625084    75.28786529   328.63877310
 C     21   3   2     2.877392299561    33.45203408    62.46988994
 H     22  21   3     2.072195113889   109.78678321   123.00138599
 H     22  21   3     2.059393466667   109.90626334   238.94967961
 H      3   2   1     2.069111019509   169.46526939   316.66150389
 H      3   2   1     2.067080043870    71.30795148   237.06279558
 C     18   1   2     2.886687679010   114.02213033   299.75436756
 H     18   1   2     2.068932713082   107.65179087   177.40351951
 H     18   1   2     2.067329496612   109.22173402    62.36298160
 C     27  18   1     2.883632262346   113.93276277   288.90034571
 H     27  18   1     2.068122756144   108.74093275   167.10616769
 H     27  18   1     2.067719744133   108.74874272    52.17399198
 C     21   3   2     2.889959617997   146.92063230    53.80488115
 H     30  27  18     2.069849395866   108.86941482   300.75108730
 H     30  27  18     2.067195960987   109.92906200    56.35085961
 H     21   3   2     2.069909629955    87.16372703   291.04892433
 H     21   3   2     2.068989173855    92.71949470   185.57163885
 H     33  21   3     2.068641104040   109.10507473    72.09358689
 H     33  21   3     2.069735451623   108.98305469   187.60350442
 O      7   4   3     2.785709426462   106.76381078   292.33403201

---------------------
BASIS SET INFORMATION
---------------------
There are 5 groups of distinct atoms

 Group   1 Type C   : 11s6p2d1f contracted to 5s3p2d1f pattern {62111/411/11/1}
 Group   2 Type N   : 11s6p2d1f contracted to 5s3p2d1f pattern {62111/411/11/1}
 Group   3 Type H   : 5s1p contracted to 3s1p pattern {311/1}
 Group   4 Type S   : 14s9p3d1f contracted to 5s5p2d1f pattern {73211/51111/21/1}
 Group   5 Type O   : 11s6p2d1f contracted to 5s3p2d1f pattern {62111/411/11/1}

Atom   0C    basis set group =>   1
Atom   1N    basis set group =>   2
Atom   2C    basis set group =>   1
Atom   3C    basis set group =>   1
Atom   4H    basis set group =>   3
Atom   5H    basis set group =>   3
Atom   6S    basis set group =>   4
Atom   7C    basis set group =>   1
Atom   8N    basis set group =>   2
Atom   9N    basis set group =>   2
Atom  10H    basis set group =>   3
Atom  11H    basis set group =>   3
Atom  12H    basis set group =>   3
Atom  13H    basis set group =>   3
Atom  14H    basis set group =>   3
Atom  15O    basis set group =>   5
Atom  16O    basis set group =>   5
Atom  17C    basis set group =>   1
Atom  18H    basis set group =>   3
Atom  19H    basis set group =>   3
Atom  20C    basis set group =>   1
Atom  21C    basis set group =>   1
Atom  22H    basis set group =>   3
Atom  23H    basis set group =>   3
Atom  24H    basis set group =>   3
Atom  25H    basis set group =>   3
Atom  26C    basis set group =>   1
Atom  27H    basis set group =>   3
Atom  28H    basis set group =>   3
Atom  29C    basis set group =>   1
Atom  30H    basis set group =>   3
Atom  31H    basis set group =>   3
Atom  32C    basis set group =>   1
Atom  33H    basis set group =>   3
Atom  34H    basis set group =>   3
Atom  35H    basis set group =>   3
Atom  36H    basis set group =>   3
Atom  37H    basis set group =>   3
Atom  38H    basis set group =>   3
Atom  39O    basis set group =>   5
---------------------------------
AUXILIARY/J BASIS SET INFORMATION
---------------------------------
There are 5 groups of distinct atoms

 Group   1 Type C   : 12s5p4d2f1g contracted to 6s4p3d1f1g pattern {711111/2111/211/2/1}
 Group   2 Type N   : 12s5p4d2f1g contracted to 6s4p3d1f1g pattern {711111/2111/211/2/1}
 Group   3 Type H   : 5s2p1d contracted to 3s1p1d pattern {311/2/1}
 Group   4 Type S   : 14s5p5d2f1g contracted to 8s4p3d1f1g pattern {71111111/2111/311/2/1}
 Group   5 Type O   : 12s5p4d2f1g contracted to 6s4p3d1f1g pattern {711111/2111/211/2/1}

Atom   0C    basis set group =>   1
Atom   1N    basis set group =>   2
Atom   2C    basis set group =>   1
Atom   3C    basis set group =>   1
Atom   4H    basis set group =>   3
Atom   5H    basis set group =>   3
Atom   6S    basis set group =>   4
Atom   7C    basis set group =>   1
Atom   8N    basis set group =>   2
Atom   9N    basis set group =>   2
Atom  10H    basis set group =>   3
Atom  11H    basis set group =>   3
Atom  12H    basis set group =>   3
Atom  13H    basis set group =>   3
Atom  14H    basis set group =>   3
Atom  15O    basis set group =>   5
Atom  16O    basis set group =>   5
Atom  17C    basis set group =>   1
Atom  18H    basis set group =>   3
Atom  19H    basis set group =>   3
Atom  20C    basis set group =>   1
Atom  21C    basis set group =>   1
Atom  22H    basis set group =>   3
Atom  23H    basis set group =>   3
Atom  24H    basis set group =>   3
Atom  25H    basis set group =>   3
Atom  26C    basis set group =>   1
Atom  27H    basis set group =>   3
Atom  28H    basis set group =>   3
Atom  29C    basis set group =>   1
Atom  30H    basis set group =>   3
Atom  31H    basis set group =>   3
Atom  32C    basis set group =>   1
Atom  33H    basis set group =>   3
Atom  34H    basis set group =>   3
Atom  35H    basis set group =>   3
Atom  36H    basis set group =>   3
Atom  37H    basis set group =>   3
Atom  38H    basis set group =>   3
Atom  39O    basis set group =>   5


           ************************************************************
           *        Program running with 18 parallel MPI-processes    *
           *              working on a common directory               *
           ************************************************************
------------------------------------------------------------------------------
                           ORCA GTO INTEGRAL CALCULATION
                           -- RI-GTO INTEGRALS CHOSEN --
------------------------------------------------------------------------------
------------------------------------------------------------------------------
                   ___                                                        
                  /   \      - P O W E R E D   B Y -                         
                 /     \                                                     
                 |  |  |   _    _      __       _____    __    __             
                 |  |  |  | |  | |    /  \     |  _  \  |  |  /  |          
                  \  \/   | |  | |   /    \    | | | |  |  | /  /          
                 / \  \   | |__| |  /  /\  \   | |_| |  |  |/  /          
                |  |  |   |  __  | /  /__\  \  |    /   |      \           
                |  |  |   | |  | | |   __   |  |    \   |  |\   \          
                \     /   | |  | | |  |  |  |  | |\  \  |  | \   \       
                 \___/    |_|  |_| |__|  |__|  |_| \__\ |__|  \__/        
                                                                              
                      - O R C A' S   B I G   F R I E N D -                    
                                      &                                       
                       - I N T E G R A L  F E E D E R -                       
                                                                              
 v1 FN, 2020, v2 2021                                                         
------------------------------------------------------------------------------


Reading SHARK input file PBE0_B_wt_wb97.SHARKINP.tmp ... ok
----------------------
SHARK INTEGRAL PACKAGE
----------------------

Number of atoms                             ...     40
Number of basis functions                   ...    671
Number of shells                            ...    281
Maximum angular momentum                    ...      3
Integral batch strategy                     ... SHARK/LIBINT Hybrid
RI-J (if used) integral strategy            ... SPLIT-RIJ (Revised 2003 algorithm where possible)
Printlevel                                  ...      1
Contraction scheme used                     ... SEGMENTED contraction
Coulomb Range Separation                    ... NOT USED
Exchange Range Separation                   ... NOT USED
Finite Nucleus Model                        ... NOT USED
Auxiliary Coulomb fitting basis             ... AVAILABLE
   # of basis functions in Aux-J            ...   1088
   # of shells in Aux-J                     ...    372
   Maximum angular momentum in Aux-J        ...      4
Auxiliary J/K fitting basis                 ... NOT available
Auxiliary Correlation fitting basis         ... NOT available
Auxiliary 'external' fitting basis          ... NOT available
Integral threshold                          ...     2.500000e-11
Primitive cut-off                           ...     2.500000e-12
Primitive pair pre-selection threshold      ...     2.500000e-12

Calculating pre-screening integrals         ... done (  0.4 sec) Dimension = 281
Organizing shell pair data                  ... done (  0.4 sec)
Shell pair information
Total number of shell pairs                 ...     39621
Shell pairs after pre-screening             ...     30207
Total number of primitive shell pairs       ...    118312
Primitive shell pairs kept                  ...     61055
          la=0 lb=0:   9047 shell pairs
          la=1 lb=0:   9080 shell pairs
          la=1 lb=1:   2345 shell pairs
          la=2 lb=0:   3920 shell pairs
          la=2 lb=1:   2023 shell pairs
          la=2 lb=2:    470 shell pairs
          la=3 lb=0:   1848 shell pairs
          la=3 lb=1:    955 shell pairs
          la=3 lb=2:    417 shell pairs
          la=3 lb=3:    102 shell pairs

Calculating one electron integrals          ... done (  0.1 sec)
Calculating RI/J V-Matrix + Cholesky decomp.... done (  0.4 sec)
Calculating Nuclear repulsion               ... done (  0.0 sec) ENN=   1572.103580514152 Eh

SHARK setup successfully completed in   1.4 seconds

Maximum memory used throughout the entire GTOINT-calculation: 45.0 MB


           ************************************************************
           *        Program running with 18 parallel MPI-processes    *
           *              working on a common directory               *
           ************************************************************
-------------------------------------------------------------------------------
                                 ORCA SCF
-------------------------------------------------------------------------------

------------
SCF SETTINGS
------------
Hamiltonian:
 Density Functional     Method          .... DFT(GTOs)
 Exchange Functional    Exchange        .... PBE
   PBE kappa parameter   XKappa         ....  0.804000
   PBE mue parameter    XMuePBE         ....  0.219520
 Correlation Functional Correlation     .... PBE
   PBE beta parameter  CBetaPBE         ....  0.066725
 LDA part of GGA corr.  LDAOpt          .... PW91-LDA
 Gradients option       PostSCFGGA      .... off
 Hybrid DFT is turned on
   Fraction HF Exchange ScalHFX         ....  0.250000
   Scaling of DF-GGA-X  ScalDFX         ....  0.750000
   Scaling of DF-GGA-C  ScalDFC         ....  1.000000
   Scaling of DF-LDA-C  ScalLDAC        ....  1.000000
   Perturbative correction              ....  0.000000
   Density functional embedding theory  .... OFF
   NL short-range parameter             ....  6.900000
 RI-approximation to the Coulomb term is turned on
   Number of AuxJ basis functions       .... 1088
   RIJ-COSX (HFX calculated with COS-X)).... on


General Settings:
 Integral files         IntName         .... PBE0_B_wt_wb97
 Hartree-Fock type      HFTyp           .... RHF
 Total Charge           Charge          ....    0
 Multiplicity           Mult            ....    1
 Number of Electrons    NEL             ....  144
 Basis Dimension        Dim             ....  671
 Nuclear Repulsion      ENuc            ....   1572.1035805142 Eh

Convergence Acceleration:
 DIIS                   CNVDIIS         .... on
   Start iteration      DIISMaxIt       ....    12
   Startup error        DIISStart       ....  0.200000
   # of expansion vecs  DIISMaxEq       ....     5
   Bias factor          DIISBfac        ....   1.050
   Max. coefficient     DIISMaxC        ....  10.000
 Trust-Rad. Augm. Hess. CNVTRAH         .... auto
   Auto Start mean grad. ratio tolernc. ....  1.125000
   Auto Start start iteration           ....    20
   Auto Start num. interpolation iter.  ....    10
   Max. Number of Micro iterations      ....    16
   Max. Number of Macro iterations      .... Maxiter - #DIIS iter
   Number of Davidson start vectors     ....     2
   Converg. threshold I  (grad. norm)   ....   1.000e-05
   Converg. threshold II (energy diff.) ....   1.000e-08
   Grad. Scal. Fac. for Micro threshold ....   0.100
   Minimum threshold for Micro iter.    ....   0.010
   NR start threshold (gradient norm)   ....   0.001
   Initial trust radius                 ....   0.400
   Minimum AH scaling param. (alpha)    ....   1.000
   Maximum AH scaling param. (alpha)    .... 1000.000
   Orbital update algorithm             .... Taylor
   White noise on init. David. guess    .... on
   Maximum white noise                  ....   0.010
   Quad. conv. algorithm                .... NR
 SOSCF                  CNVSOSCF        .... on
   Start iteration      SOSCFMaxIt      ....   150
   Startup grad/error   SOSCFStart      ....  0.003300
 Level Shifting         CNVShift        .... on
   Level shift para.    LevelShift      ....    0.2500
   Turn off err/grad.   ShiftErr        ....    0.0010
 Zerner damping         CNVZerner       .... off
 Static damping         CNVDamp         .... on
   Fraction old density DampFac         ....    0.7000
   Max. Damping (<1)    DampMax         ....    0.9800
   Min. Damping (>=0)   DampMin         ....    0.0000
   Turn off err/grad.   DampErr         ....    0.1000
 Fernandez-Rico         CNVRico         .... off

SCF Procedure:
 Maximum # iterations   MaxIter         ....   150
 SCF integral mode      SCFMode         .... Direct
   Integral package                     .... SHARK and LIBINT hybrid scheme
 Reset frequency        DirectResetFreq ....    20
 Integral Threshold     Thresh          ....  2.500e-11 Eh
 Primitive CutOff       TCut            ....  2.500e-12 Eh

Convergence Tolerance:
 Convergence Check Mode ConvCheckMode   .... Total+1el-Energy
 Convergence forced     ConvForced      .... 0
 Energy Change          TolE            ....  1.000e-08 Eh
 1-El. energy change                    ....  1.000e-05 Eh
 Orbital Gradient       TolG            ....  1.000e-05
 Orbital Rotation angle TolX            ....  1.000e-05
 DIIS Error             TolErr          ....  5.000e-07


Diagonalization of the overlap matrix:
Smallest eigenvalue                        ... 7.284e-05
Time for diagonalization                   ...    0.142 sec
Threshold for overlap eigenvalues          ... 1.000e-08
Number of eigenvalues below threshold      ... 0
Time for construction of square roots      ...    0.352 sec
Total time needed                          ...    0.499 sec

Time for model grid setup =    0.310 sec

------------------------------
INITIAL GUESS: MODEL POTENTIAL
------------------------------
Loading Hartree-Fock densities                     ... done
Calculating cut-offs                               ... done
Initializing the effective Hamiltonian             ... done
Setting up the integral package (SHARK)            ... done
Starting the Coulomb interaction                   ... done (   0.4 sec)
Reading the grid                                   ... done
Mapping shells                                     ... done
Starting the XC term evaluation                    ... done (   0.2 sec)
  promolecular density results
     # of electrons  =    143.983324530
     EX              =   -127.197431877
     EC              =     -4.948070837
     EX+EC           =   -132.145502714
Transforming the Hamiltonian                       ... done (   0.1 sec)
Diagonalizing the Hamiltonian                      ... done (   0.1 sec)
Back transforming the eigenvectors                 ... done (   0.0 sec)
Now organizing SCF variables                       ... done
                      ------------------
                      INITIAL GUESS DONE (   1.3 sec)
                      ------------------
-------------------
DFT GRID GENERATION
-------------------

General Integration Accuracy     IntAcc      ... 4.388
Radial Grid Type                 RadialGrid  ... OptM3 with GC (2021)
Angular Grid (max. ang.)         AngularGrid ... 4 (Lebedev-302)
Angular grid pruning method      GridPruning ... 4 (adaptive)
Weight generation scheme         WeightScheme... Becke
Basis function cutoff            BFCut       ... 1.0000e-11
Integration weight cutoff        WCut        ... 1.0000e-14
Angular grids for H and He will be reduced by one unit
Partially contracted basis set               ... off
Rotationally invariant grid construction     ... off

Total number of grid points                  ...   175262
Total number of batches                      ...     2758
Average number of points per batch           ...       63
Average number of grid points per atom       ...     4382
Time for grid setup =    1.511 sec

--------------------
COSX GRID GENERATION
--------------------

GRIDX 1
-------
General Integration Accuracy     IntAcc      ... 3.816
Radial Grid Type                 RadialGrid  ... OptM3 with GC (2021)
Angular Grid (max. ang.)         AngularGrid ... 1 (Lebedev-50)
Angular grid pruning method      GridPruning ... 4 (adaptive)
Weight generation scheme         WeightScheme... Becke
Basis function cutoff            BFCut       ... 1.0000e-11
Integration weight cutoff        WCut        ... 1.0000e-14
Angular grids for H and He will be reduced by one unit
Partially contracted basis set               ... on
Rotationally invariant grid construction     ... off

Total number of grid points                  ...    22237
Total number of batches                      ...      375
Average number of points per batch           ...       59
Average number of grid points per atom       ...      556
UseSFitting                                  ... on

GRIDX 2
-------
General Integration Accuracy     IntAcc      ... 4.020
Radial Grid Type                 RadialGrid  ... OptM3 with GC (2021)
Angular Grid (max. ang.)         AngularGrid ... 2 (Lebedev-110)
Angular grid pruning method      GridPruning ... 4 (adaptive)
Weight generation scheme         WeightScheme... Becke
Basis function cutoff            BFCut       ... 1.0000e-11
Integration weight cutoff        WCut        ... 1.0000e-14
Angular grids for H and He will be reduced by one unit
Partially contracted basis set               ... on
Rotationally invariant grid construction     ... off

Total number of grid points                  ...    46716
Total number of batches                      ...      750
Average number of points per batch           ...       62
Average number of grid points per atom       ...     1168
UseSFitting                                  ... on

GRIDX 3
-------
General Integration Accuracy     IntAcc      ... 4.338
Radial Grid Type                 RadialGrid  ... OptM3 with GC (2021)
Angular Grid (max. ang.)         AngularGrid ... 3 (Lebedev-194)
Angular grid pruning method      GridPruning ... 4 (adaptive)
Weight generation scheme         WeightScheme... Becke
Basis function cutoff            BFCut       ... 1.0000e-11
Integration weight cutoff        WCut        ... 1.0000e-14
Angular grids for H and He will be reduced by one unit
Partially contracted basis set               ... on
Rotationally invariant grid construction     ... off

Total number of grid points                  ...   102083
Total number of batches                      ...     1620
Average number of points per batch           ...       63
Average number of grid points per atom       ...     2552
UseSFitting                                  ... on

Time for X-Grid setup             =    1.644 sec

--------------
SCF ITERATIONS
--------------
ITER       Energy         Delta-E        Max-DP      RMS-DP      [F,P]     Damp
               ***  Starting incremental Fock matrix formation  ***
  0  -1181.6867463248   0.000000000000 0.10163739  0.00078303  0.2985739 0.7000
  1  -1182.0075531113  -0.320806786447 0.06834151  0.00058827  0.1250622 0.7000
                               ***Turning on DIIS***
  2  -1182.1312433348  -0.123690223504 0.09616743  0.00099101  0.0425101 0.0000
  3  -1182.3256450911  -0.194401756337 0.06725097  0.00042495  0.0681849 0.0000
  4  -1182.3689085426  -0.043263451537 0.02122198  0.00015560  0.0138964 0.0000
  5  -1182.3707975050  -0.001888962391 0.00779587  0.00005847  0.0068216 0.0000
                      *** Initiating the SOSCF procedure ***
                           *** Shutting down DIIS ***
                      *** Re-Reading the Fockian *** 
                      *** Removing any level shift *** 
ITER      Energy       Delta-E        Grad      Rot      Max-DP    RMS-DP
  6  -1182.37100013  -0.0002026219  0.000337  0.000337  0.001767  0.000021
               *** Restarting incremental Fock matrix formation ***
  7  -1182.37103223  -0.0000321071  0.000094  0.000213  0.001776  0.000016
  8  -1182.37103258  -0.0000003453  0.000135  0.000148  0.000403  0.000005
  9  -1182.37103401  -0.0000014315  0.000026  0.000041  0.000200  0.000003
 10  -1182.37103400   0.0000000081  0.000041  0.000043  0.000055  0.000001
 11  -1182.37103412  -0.0000001152  0.000008  0.000013  0.000046  0.000000
 12  -1182.37103411   0.0000000033  0.000005  0.000008  0.000017  0.000000
                  ***Gradient check signals convergence***
              ***Rediagonalizing the Fockian in SOSCF/NRSCF***

               *****************************************************
               *                     SUCCESS                       *
               *           SCF CONVERGED AFTER  13 CYCLES          *
               *****************************************************

Old exchange energy                            =    -32.492312135 Eh
New exchange energy                            =    -32.492302054 Eh
Exchange energy change after final integration =      0.000010081 Eh
Total energy after final integration           =  -1182.371024005 Eh
Final COS-X integration done in                =    10.031 sec

----------------
TOTAL SCF ENERGY
----------------

Total Energy       :        -1182.37102401 Eh          -32173.95126 eV

Components:
Nuclear Repulsion  :         1572.10358051 Eh           42779.11327 eV
Electronic Energy  :        -2754.47460452 Eh          -74953.06453 eV
One Electron Energy:        -4744.46537369 Eh         -129103.46631 eV
Two Electron Energy:         1989.99076917 Eh           54150.40178 eV
Max COSX asymmetry :            0.00000291 Eh               0.00008 eV

Virial components:
Potential Energy   :        -2360.53211038 Eh          -64233.34428 eV
Kinetic Energy     :         1178.16108638 Eh           32059.39303 eV
Virial Ratio       :            2.00357331


DFT components:
N(Alpha)           :       71.999773779149 electrons
N(Beta)            :       71.999773779149 electrons
N(Total)           :      143.999547558298 electrons
E(X)               :      -97.128553772314 Eh       
E(C)               :       -4.940227372539 Eh       
E(XC)              :     -102.068781144853 Eh       
DFET-embed. en.    :        0.000000000000 Eh       

---------------
SCF CONVERGENCE
---------------

  Last Energy change         ...    2.8040e-08  Tolerance :   1.0000e-08
  Last MAX-Density change    ...    1.5543e-15  Tolerance :   1.0000e-07
  Last RMS-Density change    ...    1.3285e-17  Tolerance :   5.0000e-09
  Last Orbital Gradient      ...    1.2840e-06  Tolerance :   1.0000e-05
  Last Orbital Rotation      ...    3.4175e-06  Tolerance :   1.0000e-05

             **** THE GBW FILE WAS UPDATED (PBE0_B_wt_wb97.gbw) ****
             **** DENSITY PBE0_B_wt_wb97.scfp WAS UPDATED ****
             **** ENERGY FILE WAS UPDATED (PBE0_B_wt_wb97.en.tmp) ****
             **** THE GBW FILE WAS UPDATED (PBE0_B_wt_wb97.gbw) ****
             **** DENSITY PBE0_B_wt_wb97.scfp WAS UPDATED ****
----------------
ORBITAL ENERGIES
----------------

  NO   OCC          E(Eh)            E(eV) 
   0   2.0000     -89.153554     -2425.9916 
   1   2.0000     -19.142710      -520.8996 
   2   2.0000     -19.142446      -520.8924 
   3   2.0000     -19.127728      -520.4919 
   4   2.0000     -14.458030      -393.4230 
   5   2.0000     -14.428529      -392.6202 
   6   2.0000     -14.424197      -392.5023 
   7   2.0000     -10.389457      -282.7115 
   8   2.0000     -10.286225      -279.9024 
   9   2.0000     -10.240831      -278.6672 
  10   2.0000     -10.224194      -278.2145 
  11   2.0000     -10.217390      -278.0293 
  12   2.0000     -10.212285      -277.8904 
  13   2.0000     -10.210564      -277.8436 
  14   2.0000     -10.205045      -277.6934 
  15   2.0000     -10.202663      -277.6286 
  16   2.0000     -10.195300      -277.4282 
  17   2.0000      -8.099863      -220.4085 
  18   2.0000      -6.036897      -164.2723 
  19   2.0000      -6.036341      -164.2572 
  20   2.0000      -6.035368      -164.2307 
  21   2.0000      -1.108020       -30.1508 
  22   2.0000      -1.079279       -29.3687 
  23   2.0000      -0.974075       -26.5059 
  24   2.0000      -0.971593       -26.4384 
  25   2.0000      -0.964498       -26.2453 
  26   2.0000      -0.953043       -25.9336 
  27   2.0000      -0.847500       -23.0616 
  28   2.0000      -0.821189       -22.3457 
  29   2.0000      -0.793687       -21.5973 
  30   2.0000      -0.756306       -20.5801 
  31   2.0000      -0.720009       -19.5924 
  32   2.0000      -0.694956       -18.9107 
  33   2.0000      -0.665860       -18.1190 
  34   2.0000      -0.643672       -17.5152 
  35   2.0000      -0.632985       -17.2244 
  36   2.0000      -0.610904       -16.6235 
  37   2.0000      -0.592756       -16.1297 
  38   2.0000      -0.567325       -15.4377 
  39   2.0000      -0.559329       -15.2201 
  40   2.0000      -0.553056       -15.0494 
  41   2.0000      -0.528832       -14.3903 
  42   2.0000      -0.518176       -14.1003 
  43   2.0000      -0.498724       -13.5710 
  44   2.0000      -0.491837       -13.3836 
  45   2.0000      -0.478118       -13.0103 
  46   2.0000      -0.472474       -12.8567 
  47   2.0000      -0.462806       -12.5936 
  48   2.0000      -0.447213       -12.1693 
  49   2.0000      -0.443949       -12.0805 
  50   2.0000      -0.437740       -11.9115 
  51   2.0000      -0.427835       -11.6420 
  52   2.0000      -0.418832       -11.3970 
  53   2.0000      -0.410268       -11.1640 
  54   2.0000      -0.400240       -10.8911 
  55   2.0000      -0.392173       -10.6716 
  56   2.0000      -0.376455       -10.2439 
  57   2.0000      -0.368419       -10.0252 
  58   2.0000      -0.358815        -9.7639 
  59   2.0000      -0.345212        -9.3937 
  60   2.0000      -0.336663        -9.1611 
  61   2.0000      -0.333160        -9.0657 
  62   2.0000      -0.328037        -8.9263 
  63   2.0000      -0.323565        -8.8046 
  64   2.0000      -0.320239        -8.7141 
  65   2.0000      -0.317608        -8.6425 
  66   2.0000      -0.312229        -8.4962 
  67   2.0000      -0.297581        -8.0976 
  68   2.0000      -0.281807        -7.6684 
  69   2.0000      -0.273694        -7.4476 
  70   2.0000      -0.264818        -7.2061 
  71   2.0000      -0.238828        -6.4988 
  72   0.0000      -0.008768        -0.2386 
  73   0.0000       0.000355         0.0097 
  74   0.0000       0.023899         0.6503 
  75   0.0000       0.046516         1.2658 
  76   0.0000       0.055020         1.4972 
  77   0.0000       0.063784         1.7357 
  78   0.0000       0.065526         1.7830 
  79   0.0000       0.070035         1.9058 
  80   0.0000       0.079685         2.1683 
  81   0.0000       0.091135         2.4799 
  82   0.0000       0.095945         2.6108 
  83   0.0000       0.103436         2.8146 
  84   0.0000       0.111662         3.0385 
  85   0.0000       0.112892         3.0720 
  86   0.0000       0.122804         3.3417 
  87   0.0000       0.128046         3.4843 
  88   0.0000       0.134572         3.6619 
  89   0.0000       0.140934         3.8350 
  90   0.0000       0.144837         3.9412 
  91   0.0000       0.146569         3.9883 
  92   0.0000       0.155180         4.2227 
  93   0.0000       0.157202         4.2777 
  94   0.0000       0.166225         4.5232 
  95   0.0000       0.167447         4.5565 
  96   0.0000       0.173647         4.7252 
  97   0.0000       0.181133         4.9289 
  98   0.0000       0.188517         5.1298 
  99   0.0000       0.190000         5.1702 
 100   0.0000       0.191046         5.1986 
 101   0.0000       0.197040         5.3617 
 102   0.0000       0.197976         5.3872 
 103   0.0000       0.205380         5.5887 
 104   0.0000       0.213257         5.8030 
 105   0.0000       0.215401         5.8614 
 106   0.0000       0.221420         6.0251 
 107   0.0000       0.230031         6.2595 
 108   0.0000       0.234691         6.3863 
 109   0.0000       0.240417         6.5421 
 110   0.0000       0.242903         6.6097 
 111   0.0000       0.251413         6.8413 
 112   0.0000       0.257866         7.0169 
 113   0.0000       0.265327         7.2199 
 114   0.0000       0.273096         7.4313 
 115   0.0000       0.281410         7.6575 
 116   0.0000       0.285308         7.7636 
 117   0.0000       0.291652         7.9363 
 118   0.0000       0.300902         8.1880 
 119   0.0000       0.301908         8.2153 
 120   0.0000       0.304984         8.2990 
 121   0.0000       0.310076         8.4376 
 122   0.0000       0.313349         8.5267 
 123   0.0000       0.327563         8.9134 
 124   0.0000       0.336442         9.1550 
 125   0.0000       0.341069         9.2810 
 126   0.0000       0.347409         9.4535 
 127   0.0000       0.353534         9.6201 
 128   0.0000       0.357230         9.7207 
 129   0.0000       0.366073         9.9614 
 130   0.0000       0.367955        10.0126 
 131   0.0000       0.375986        10.2311 
 132   0.0000       0.381350        10.3771 
 133   0.0000       0.385855        10.4997 
 134   0.0000       0.393975        10.7206 
 135   0.0000       0.403386        10.9767 
 136   0.0000       0.410696        11.1756 
 137   0.0000       0.413210        11.2440 
 138   0.0000       0.417611        11.3638 
 139   0.0000       0.419458        11.4140 
 140   0.0000       0.428391        11.6571 
 141   0.0000       0.434177        11.8146 
 142   0.0000       0.437185        11.8964 
 143   0.0000       0.440781        11.9943 
 144   0.0000       0.445511        12.1230 
 145   0.0000       0.447746        12.1838 
 146   0.0000       0.455708        12.4004 
 147   0.0000       0.459498        12.5036 
 148   0.0000       0.462769        12.5926 
 149   0.0000       0.463994        12.6259 
 150   0.0000       0.465262        12.6604 
 151   0.0000       0.470007        12.7895 
 152   0.0000       0.474053        12.8997 
 153   0.0000       0.480925        13.0866 
 154   0.0000       0.482797        13.1376 
 155   0.0000       0.484012        13.1706 
 156   0.0000       0.492613        13.4047 
 157   0.0000       0.494017        13.4429 
 158   0.0000       0.496509        13.5107 
 159   0.0000       0.498770        13.5722 
 160   0.0000       0.504359        13.7243 
 161   0.0000       0.508932        13.8487 
 162   0.0000       0.517592        14.0844 
 163   0.0000       0.519062        14.1244 
 164   0.0000       0.520760        14.1706 
 165   0.0000       0.526992        14.3402 
 166   0.0000       0.533131        14.5072 
 167   0.0000       0.543317        14.7844 
 168   0.0000       0.544852        14.8262 
 169   0.0000       0.560609        15.2549 
 170   0.0000       0.562487        15.3061 
 171   0.0000       0.572436        15.5768 
 172   0.0000       0.575318        15.6552 
 173   0.0000       0.582391        15.8477 
 174   0.0000       0.587541        15.9878 
 175   0.0000       0.594699        16.1826 
 176   0.0000       0.603472        16.4213 
 177   0.0000       0.616358        16.7720 
 178   0.0000       0.617463        16.8020 
 179   0.0000       0.630721        17.1628 
 180   0.0000       0.634558        17.2672 
 181   0.0000       0.644558        17.5393 
 182   0.0000       0.647118        17.6090 
 183   0.0000       0.655330        17.8324 
 184   0.0000       0.671347        18.2683 
 185   0.0000       0.682134        18.5618 
 186   0.0000       0.684802        18.6344 
 187   0.0000       0.690701        18.7949 
 188   0.0000       0.698692        19.0124 
 189   0.0000       0.712097        19.3771 
 190   0.0000       0.720499        19.6058 
 191   0.0000       0.729371        19.8472 
 192   0.0000       0.736291        20.0355 
 193   0.0000       0.757678        20.6175 
 194   0.0000       0.763562        20.7776 
 195   0.0000       0.765713        20.8361 
 196   0.0000       0.772597        21.0234 
 197   0.0000       0.780072        21.2268 
 198   0.0000       0.787849        21.4385 
 199   0.0000       0.802438        21.8355 
 200   0.0000       0.811503        22.0821 
 201   0.0000       0.822351        22.3773 
 202   0.0000       0.824213        22.4280 
 203   0.0000       0.835464        22.7341 
 204   0.0000       0.838819        22.8254 
 205   0.0000       0.848180        23.0801 
 206   0.0000       0.859929        23.3999 
 207   0.0000       0.861695        23.4479 
 208   0.0000       0.872331        23.7373 
 209   0.0000       0.889613        24.2076 
 210   0.0000       0.891047        24.2466 
 211   0.0000       0.900272        24.4977 
 212   0.0000       0.903686        24.5906 
 213   0.0000       0.915026        24.8991 
 214   0.0000       0.925066        25.1723 
 215   0.0000       0.935803        25.4645 
 216   0.0000       0.941761        25.6266 
 217   0.0000       0.948934        25.8218 
 218   0.0000       0.960253        26.1298 
 219   0.0000       0.968175        26.3454 
 220   0.0000       0.980339        26.6764 
 221   0.0000       0.992343        27.0030 
 222   0.0000       1.002865        27.2893 
 223   0.0000       1.006069        27.3765 
 224   0.0000       1.008579        27.4448 
 225   0.0000       1.019962        27.7546 
 226   0.0000       1.028123        27.9767 
 227   0.0000       1.039876        28.2965 
 228   0.0000       1.047468        28.5031 
 229   0.0000       1.062863        28.9220 
 230   0.0000       1.077195        29.3120 
 231   0.0000       1.081313        29.4240 
 232   0.0000       1.087583        29.5946 
 233   0.0000       1.100490        29.9459 
 234   0.0000       1.114792        30.3350 
 235   0.0000       1.121962        30.5301 
 236   0.0000       1.145588        31.1730 
 237   0.0000       1.148482        31.2518 
 238   0.0000       1.162810        31.6417 
 239   0.0000       1.167828        31.7782 
 240   0.0000       1.178430        32.0667 
 241   0.0000       1.189813        32.3765 
 242   0.0000       1.194296        32.4984 
 243   0.0000       1.205607        32.8062 
 244   0.0000       1.218162        33.1479 
 245   0.0000       1.225321        33.3427 
 246   0.0000       1.228534        33.4301 
 247   0.0000       1.238044        33.6889 
 248   0.0000       1.248254        33.9667 
 249   0.0000       1.258180        34.2368 
 250   0.0000       1.267415        34.4881 
 251   0.0000       1.276393        34.7324 
 252   0.0000       1.286652        35.0116 
 253   0.0000       1.292630        35.1743 
 254   0.0000       1.304098        35.4863 
 255   0.0000       1.317910        35.8621 
 256   0.0000       1.325380        36.0654 
 257   0.0000       1.335402        36.3381 
 258   0.0000       1.338741        36.4290 
 259   0.0000       1.356801        36.9204 
 260   0.0000       1.373147        37.3652 
 261   0.0000       1.382808        37.6281 
 262   0.0000       1.388413        37.7806 
 263   0.0000       1.414737        38.4969 
 264   0.0000       1.420135        38.6438 
 265   0.0000       1.426375        38.8136 
 266   0.0000       1.448328        39.4110 
 267   0.0000       1.453940        39.5637 
 268   0.0000       1.465372        39.8748 
 269   0.0000       1.484486        40.3949 
 270   0.0000       1.489542        40.5325 
 271   0.0000       1.504392        40.9366 
 272   0.0000       1.513267        41.1781 
 273   0.0000       1.519375        41.3443 
 274   0.0000       1.528586        41.5949 
 275   0.0000       1.534272        41.7497 
 276   0.0000       1.537021        41.8245 
 277   0.0000       1.546116        42.0719 
 278   0.0000       1.553856        42.2826 
 279   0.0000       1.562737        42.5242 
 280   0.0000       1.574623        42.8477 
 281   0.0000       1.577617        42.9291 
 282   0.0000       1.586464        43.1699 
 283   0.0000       1.593188        43.3528 
 284   0.0000       1.598569        43.4993 
 285   0.0000       1.602535        43.6072 
 286   0.0000       1.614399        43.9300 
 287   0.0000       1.623378        44.1744 
 288   0.0000       1.630807        44.3765 
 289   0.0000       1.641509        44.6677 
 290   0.0000       1.644419        44.7469 
 291   0.0000       1.647315        44.8257 
 292   0.0000       1.653558        44.9956 
 293   0.0000       1.655938        45.0604 
 294   0.0000       1.663013        45.2529 
 295   0.0000       1.672531        45.5119 
 296   0.0000       1.679823        45.7103 
 297   0.0000       1.682338        45.7788 
 298   0.0000       1.692888        46.0658 
 299   0.0000       1.700067        46.2612 
 300   0.0000       1.706641        46.4401 
 301   0.0000       1.710853        46.5547 
 302   0.0000       1.713826        46.6356 
 303   0.0000       1.732094        47.1327 
 304   0.0000       1.751435        47.6590 
 305   0.0000       1.757798        47.8321 
 306   0.0000       1.760945        47.9178 
 307   0.0000       1.776238        48.3339 
 308   0.0000       1.779973        48.4355 
 309   0.0000       1.788483        48.6671 
 310   0.0000       1.798304        48.9344 
 311   0.0000       1.800631        48.9977 
 312   0.0000       1.812760        49.3277 
 313   0.0000       1.821954        49.5779 
 314   0.0000       1.825848        49.6838 
 315   0.0000       1.834780        49.9269 
 316   0.0000       1.838700        50.0336 
 317   0.0000       1.845177        50.2098 
 318   0.0000       1.863798        50.7165 
 319   0.0000       1.865764        50.7700 
 320   0.0000       1.885712        51.3128 
 321   0.0000       1.894404        51.5494 
 322   0.0000       1.898065        51.6490 
 323   0.0000       1.913516        52.0694 
 324   0.0000       1.919241        52.2252 
 325   0.0000       1.922746        52.3206 
 326   0.0000       1.933845        52.6226 
 327   0.0000       1.950596        53.0784 
 328   0.0000       1.962770        53.4097 
 329   0.0000       1.973569        53.7035 
 330   0.0000       1.982095        53.9355 
 331   0.0000       2.000716        54.4422 
 332   0.0000       2.004492        54.5450 
 333   0.0000       2.009649        54.6853 
 334   0.0000       2.013491        54.7899 
 335   0.0000       2.021921        55.0193 
 336   0.0000       2.031119        55.2696 
 337   0.0000       2.039953        55.5099 
 338   0.0000       2.058546        56.0159 
 339   0.0000       2.072026        56.3827 
 340   0.0000       2.081022        56.6275 
 341   0.0000       2.087023        56.7908 
 342   0.0000       2.096445        57.0472 
 343   0.0000       2.101022        57.1717 
 344   0.0000       2.124383        57.8074 
 345   0.0000       2.134371        58.0792 
 346   0.0000       2.144173        58.3459 
 347   0.0000       2.151375        58.5419 
 348   0.0000       2.163544        58.8730 
 349   0.0000       2.177523        59.2534 
 350   0.0000       2.190760        59.6136 
 351   0.0000       2.214035        60.2470 
 352   0.0000       2.216921        60.3255 
 353   0.0000       2.228566        60.6424 
 354   0.0000       2.245968        61.1159 
 355   0.0000       2.254636        61.3518 
 356   0.0000       2.263035        61.5803 
 357   0.0000       2.276873        61.9569 
 358   0.0000       2.281273        62.0766 
 359   0.0000       2.293295        62.4037 
 360   0.0000       2.312796        62.9344 
 361   0.0000       2.322606        63.2013 
 362   0.0000       2.329253        63.3822 
 363   0.0000       2.351457        63.9864 
 364   0.0000       2.353937        64.0539 
 365   0.0000       2.355825        64.1053 
 366   0.0000       2.360096        64.2215 
 367   0.0000       2.374470        64.6126 
 368   0.0000       2.379821        64.7582 
 369   0.0000       2.384411        64.8831 
 370   0.0000       2.393442        65.1289 
 371   0.0000       2.413954        65.6870 
 372   0.0000       2.423033        65.9341 
 373   0.0000       2.431866        66.1744 
 374   0.0000       2.436988        66.3138 
 375   0.0000       2.439957        66.3946 
 376   0.0000       2.447645        66.6038 
 377   0.0000       2.462579        67.0102 
 378   0.0000       2.472372        67.2767 
 379   0.0000       2.482775        67.5597 
 380   0.0000       2.491851        67.8067 
 381   0.0000       2.497567        67.9622 
 382   0.0000       2.503097        68.1127 
 383   0.0000       2.510404        68.3116 
 384   0.0000       2.519281        68.5531 
 385   0.0000       2.519455        68.5579 
 386   0.0000       2.522399        68.6380 
 387   0.0000       2.528375        68.8006 
 388   0.0000       2.541286        69.1519 
 389   0.0000       2.545023        69.2536 
 390   0.0000       2.554345        69.5072 
 391   0.0000       2.560819        69.6834 
 392   0.0000       2.575328        70.0782 
 393   0.0000       2.576812        70.1186 
 394   0.0000       2.582348        70.2693 
 395   0.0000       2.590669        70.4957 
 396   0.0000       2.599957        70.7484 
 397   0.0000       2.609468        71.0072 
 398   0.0000       2.620807        71.3158 
 399   0.0000       2.621613        71.3377 
 400   0.0000       2.638824        71.8060 
 401   0.0000       2.644967        71.9732 
 402   0.0000       2.651985        72.1642 
 403   0.0000       2.654421        72.2305 
 404   0.0000       2.657250        72.3074 
 405   0.0000       2.663664        72.4820 
 406   0.0000       2.669885        72.6513 
 407   0.0000       2.671077        72.6837 
 408   0.0000       2.677308        72.8533 
 409   0.0000       2.698740        73.4365 
 410   0.0000       2.710484        73.7560 
 411   0.0000       2.711616        73.7868 
 412   0.0000       2.719558        74.0029 
 413   0.0000       2.726131        74.1818 
 414   0.0000       2.730111        74.2901 
 415   0.0000       2.737306        74.4859 
 416   0.0000       2.743034        74.6418 
 417   0.0000       2.762603        75.1743 
 418   0.0000       2.763989        75.2120 
 419   0.0000       2.778174        75.5980 
 420   0.0000       2.783842        75.7522 
 421   0.0000       2.789359        75.9023 
 422   0.0000       2.793143        76.0053 
 423   0.0000       2.807380        76.3927 
 424   0.0000       2.812986        76.5453 
 425   0.0000       2.826553        76.9144 
 426   0.0000       2.843005        77.3621 
 427   0.0000       2.847814        77.4930 
 428   0.0000       2.849595        77.5414 
 429   0.0000       2.863763        77.9270 
 430   0.0000       2.865219        77.9666 
 431   0.0000       2.876508        78.2738 
 432   0.0000       2.886373        78.5422 
 433   0.0000       2.895675        78.7953 
 434   0.0000       2.899542        78.9005 
 435   0.0000       2.919398        79.4409 
 436   0.0000       2.948652        80.2369 
 437   0.0000       2.956511        80.4508 
 438   0.0000       2.965636        80.6991 
 439   0.0000       2.979715        81.0822 
 440   0.0000       2.997927        81.5778 
 441   0.0000       3.018864        82.1475 
 442   0.0000       3.028753        82.4166 
 443   0.0000       3.036546        82.6286 
 444   0.0000       3.045416        82.8700 
 445   0.0000       3.066323        83.4389 
 446   0.0000       3.069159        83.5161 
 447   0.0000       3.072983        83.6201 
 448   0.0000       3.097570        84.2892 
 449   0.0000       3.105586        84.5073 
 450   0.0000       3.110549        84.6423 
 451   0.0000       3.118982        84.8718 
 452   0.0000       3.131023        85.1995 
 453   0.0000       3.143452        85.5377 
 454   0.0000       3.146717        85.6265 
 455   0.0000       3.157647        85.9239 
 456   0.0000       3.166174        86.1560 
 457   0.0000       3.184078        86.6432 
 458   0.0000       3.185493        86.6817 
 459   0.0000       3.196355        86.9772 
 460   0.0000       3.200566        87.0918 
 461   0.0000       3.204667        87.2034 
 462   0.0000       3.213987        87.4570 
 463   0.0000       3.219616        87.6102 
 464   0.0000       3.222500        87.6887 
 465   0.0000       3.234050        88.0030 
 466   0.0000       3.240895        88.1892 
 467   0.0000       3.250518        88.4511 
 468   0.0000       3.259580        88.6977 
 469   0.0000       3.273347        89.0723 
 470   0.0000       3.278923        89.2240 
 471   0.0000       3.281405        89.2916 
 472   0.0000       3.293761        89.6278 
 473   0.0000       3.295889        89.6857 
 474   0.0000       3.298607        89.7597 
 475   0.0000       3.310768        90.0906 
 476   0.0000       3.317724        90.2799 
 477   0.0000       3.321512        90.3829 
 478   0.0000       3.337147        90.8084 
 479   0.0000       3.354543        91.2818 
 480   0.0000       3.357410        91.3598 
 481   0.0000       3.361501        91.4711 
 482   0.0000       3.375545        91.8533 
 483   0.0000       3.384290        92.0912 
 484   0.0000       3.399896        92.5159 
 485   0.0000       3.407793        92.7308 
 486   0.0000       3.411546        92.8329 
 487   0.0000       3.423607        93.1611 
 488   0.0000       3.427051        93.2548 
 489   0.0000       3.438876        93.5766 
 490   0.0000       3.449092        93.8546 
 491   0.0000       3.451961        93.9326 
 492   0.0000       3.459014        94.1246 
 493   0.0000       3.466946        94.3404 
 494   0.0000       3.481367        94.7328 
 495   0.0000       3.492715        95.0416 
 496   0.0000       3.498762        95.2062 
 497   0.0000       3.513784        95.6149 
 498   0.0000       3.528350        96.0113 
 499   0.0000       3.531619        96.1002 
 500   0.0000       3.545600        96.4807 
 501   0.0000       3.548896        96.5704 
 502   0.0000       3.558344        96.8275 
 503   0.0000       3.573148        97.2303 
 504   0.0000       3.581693        97.4628 
 505   0.0000       3.582503        97.4848 
 506   0.0000       3.585245        97.5595 
 507   0.0000       3.600709        97.9803 
 508   0.0000       3.606844        98.1472 
 509   0.0000       3.631845        98.8275 
 510   0.0000       3.647062        99.2416 
 511   0.0000       3.664553        99.7176 
 512   0.0000       3.673533        99.9619 
 513   0.0000       3.685037       100.2750 
 514   0.0000       3.699589       100.6709 
 515   0.0000       3.716909       101.1422 
 516   0.0000       3.732676       101.5713 
 517   0.0000       3.742381       101.8354 
 518   0.0000       3.758113       102.2635 
 519   0.0000       3.766724       102.4978 
 520   0.0000       3.794011       103.2403 
 521   0.0000       3.812609       103.7464 
 522   0.0000       3.830813       104.2417 
 523   0.0000       3.844087       104.6029 
 524   0.0000       3.853146       104.8494 
 525   0.0000       3.869912       105.3057 
 526   0.0000       3.884468       105.7017 
 527   0.0000       3.903466       106.2187 
 528   0.0000       3.916651       106.5775 
 529   0.0000       3.929750       106.9339 
 530   0.0000       3.930298       106.9488 
 531   0.0000       3.957812       107.6975 
 532   0.0000       3.966840       107.9432 
 533   0.0000       3.974901       108.1626 
 534   0.0000       3.983980       108.4096 
 535   0.0000       4.017605       109.3246 
 536   0.0000       4.020564       109.4051 
 537   0.0000       4.045635       110.0873 
 538   0.0000       4.054319       110.3236 
 539   0.0000       4.067602       110.6851 
 540   0.0000       4.084927       111.1565 
 541   0.0000       4.101222       111.5999 
 542   0.0000       4.111337       111.8752 
 543   0.0000       4.131831       112.4329 
 544   0.0000       4.168811       113.4391 
 545   0.0000       4.189943       114.0141 
 546   0.0000       4.206615       114.4678 
 547   0.0000       4.222004       114.8866 
 548   0.0000       4.224273       114.9483 
 549   0.0000       4.232931       115.1839 
 550   0.0000       4.255235       115.7908 
 551   0.0000       4.274010       116.3017 
 552   0.0000       4.283593       116.5625 
 553   0.0000       4.313254       117.3696 
 554   0.0000       4.328573       117.7864 
 555   0.0000       4.336379       117.9989 
 556   0.0000       4.347257       118.2949 
 557   0.0000       4.377555       119.1193 
 558   0.0000       4.392316       119.5210 
 559   0.0000       4.409580       119.9908 
 560   0.0000       4.436604       120.7261 
 561   0.0000       4.454329       121.2085 
 562   0.0000       4.463090       121.4469 
 563   0.0000       4.496270       122.3497 
 564   0.0000       4.527004       123.1860 
 565   0.0000       4.571053       124.3847 
 566   0.0000       4.591390       124.9381 
 567   0.0000       4.605995       125.3355 
 568   0.0000       4.613501       125.5398 
 569   0.0000       4.622801       125.7928 
 570   0.0000       4.646072       126.4260 
 571   0.0000       4.652287       126.5952 
 572   0.0000       4.673119       127.1620 
 573   0.0000       4.685508       127.4992 
 574   0.0000       4.709028       128.1392 
 575   0.0000       4.729843       128.7056 
 576   0.0000       4.741146       129.0132 
 577   0.0000       4.753914       129.3606 
 578   0.0000       4.757903       129.4691 
 579   0.0000       4.772641       129.8702 
 580   0.0000       4.791212       130.3755 
 581   0.0000       4.810624       130.9037 
 582   0.0000       4.836591       131.6103 
 583   0.0000       4.847519       131.9077 
 584   0.0000       4.870225       132.5256 
 585   0.0000       4.875121       132.6588 
 586   0.0000       4.902438       133.4021 
 587   0.0000       4.939621       134.4139 
 588   0.0000       4.979475       135.4984 
 589   0.0000       4.989304       135.7659 
 590   0.0000       5.011232       136.3626 
 591   0.0000       5.021140       136.6322 
 592   0.0000       5.055582       137.5694 
 593   0.0000       5.078742       138.1996 
 594   0.0000       5.107235       138.9749 
 595   0.0000       5.137239       139.7914 
 596   0.0000       5.146685       140.0484 
 597   0.0000       5.155368       140.2847 
 598   0.0000       5.163173       140.4971 
 599   0.0000       5.170362       140.6927 
 600   0.0000       5.175613       140.8356 
 601   0.0000       5.188220       141.1787 
 602   0.0000       5.208873       141.7406 
 603   0.0000       5.212388       141.8363 
 604   0.0000       5.218743       142.0092 
 605   0.0000       5.223089       142.1275 
 606   0.0000       5.228632       142.2783 
 607   0.0000       5.234015       142.4248 
 608   0.0000       5.247852       142.8013 
 609   0.0000       5.250545       142.8746 
 610   0.0000       5.285563       143.8275 
 611   0.0000       5.313387       144.5846 
 612   0.0000       5.330587       145.0527 
 613   0.0000       5.341402       145.3469 
 614   0.0000       5.346527       145.4864 
 615   0.0000       5.367527       146.0578 
 616   0.0000       5.381946       146.4502 
 617   0.0000       5.409917       147.2113 
 618   0.0000       5.418351       147.4408 
 619   0.0000       5.433439       147.8514 
 620   0.0000       5.453569       148.3991 
 621   0.0000       5.511602       149.9783 
 622   0.0000       5.553809       151.1268 
 623   0.0000       5.591713       152.1583 
 624   0.0000       5.601897       152.4354 
 625   0.0000       5.639744       153.4652 
 626   0.0000       5.669086       154.2637 
 627   0.0000       5.725444       155.7973 
 628   0.0000       5.757982       156.6827 
 629   0.0000       5.766573       156.9164 
 630   0.0000       5.809989       158.0978 
 631   0.0000       5.922764       161.1666 
 632   0.0000       6.008076       163.4880 
 633   0.0000       6.034871       164.2172 
 634   0.0000       6.171187       167.9265 
 635   0.0000       6.269254       170.5951 
 636   0.0000       6.393382       173.9728 
 637   0.0000       6.414785       174.5552 
 638   0.0000       6.438343       175.1962 
 639   0.0000       6.523244       177.5065 
 640   0.0000       6.595570       179.4746 
 641   0.0000       6.620508       180.1532 
 642   0.0000       6.786654       184.6742 
 643   0.0000       6.808855       185.2784 
 644   0.0000       6.850486       186.4112 
 645   0.0000       6.883339       187.3052 
 646   0.0000       6.967168       189.5863 
 647   0.0000       6.983413       190.0283 
 648   0.0000       7.019226       191.0029 
 649   0.0000       7.064508       192.2350 
 650   0.0000       7.091631       192.9731 
 651   0.0000       9.524847       259.1843 
 652   0.0000       9.662365       262.9263 
 653   0.0000       9.773753       265.9573 
 654   0.0000      22.400624       609.5520 
 655   0.0000      22.505788       612.4136 
 656   0.0000      22.569712       614.1531 
 657   0.0000      22.595038       614.8422 
 658   0.0000      22.608173       615.1997 
 659   0.0000      22.626392       615.6954 
 660   0.0000      22.637400       615.9950 
 661   0.0000      22.667511       616.8143 
 662   0.0000      22.674009       616.9911 
 663   0.0000      22.959906       624.7708 
 664   0.0000      23.434193       637.6768 
 665   0.0000      32.017026       871.2276 
 666   0.0000      32.164398       875.2378 
 667   0.0000      32.779827       891.9845 
 668   0.0000      43.769825      1191.0375 
 669   0.0000      43.907755      1194.7908 
 670   0.0000      44.030575      1198.1329 

                    ********************************
                    * MULLIKEN POPULATION ANALYSIS *
                    ********************************

-----------------------
MULLIKEN ATOMIC CHARGES
-----------------------
   0 C :   -0.267793
   1 N :   -0.190438
   2 C :   -0.164218
   3 C :   -0.210566
   4 H :    0.116000
   5 H :    0.133510
   6 S :    0.834180
   7 C :    0.387188
   8 N :   -0.396055
   9 N :   -0.456340
  10 H :    0.269087
  11 H :    0.253231
  12 H :    0.252791
  13 H :    0.296580
  14 H :    0.241073
  15 O :   -0.592890
  16 O :   -0.477907
  17 C :   -0.126512
  18 H :    0.173055
  19 H :    0.130283
  20 C :   -0.202022
  21 C :   -0.292643
  22 H :    0.085832
  23 H :    0.118576
  24 H :    0.096082
  25 H :    0.113367
  26 C :   -0.248182
  27 H :    0.105831
  28 H :    0.113830
  29 C :   -0.262788
  30 H :    0.108198
  31 H :    0.134857
  32 C :   -0.129136
  33 H :    0.100251
  34 H :    0.124509
  35 H :    0.106993
  36 H :    0.100492
  37 H :    0.099041
  38 H :    0.097795
  39 O :   -0.575145
Sum of atomic charges:    0.0000000

--------------------------------
MULLIKEN REDUCED ORBITAL CHARGES
--------------------------------
  0 C s       :     3.246444  s :     3.246444
      pz      :     0.761581  p :     2.893204
      px      :     0.994244
      py      :     1.137379
      dz2     :     0.025195  d :     0.120256
      dxz     :     0.039903
      dyz     :     0.021181
      dx2y2   :     0.010169
      dxy     :     0.023809
      f0      :     0.002083  f :     0.007888
      f+1     :     0.002280
      f-1     :     0.001353
      f+2     :     0.000378
      f-2     :     0.000231
      f+3     :     0.000871
      f-3     :     0.000693
  1 N s       :     3.427487  s :     3.427487
      pz      :     1.079239  p :     3.698222
      px      :     1.451350
      py      :     1.167633
      dz2     :     0.014655  d :     0.060392
      dxz     :     0.013792
      dyz     :     0.019067
      dx2y2   :     0.005238
      dxy     :     0.007639
      f0      :     0.000727  f :     0.004337
      f+1     :     0.000566
      f-1     :     0.000858
      f+2     :     0.000397
      f-2     :     0.000608
      f+3     :     0.000643
      f-3     :     0.000537
  2 C s       :     3.127127  s :     3.127127
      pz      :     0.938796  p :     2.930373
      px      :     0.967660
      py      :     1.023918
      dz2     :     0.019235  d :     0.101007
      dxz     :     0.029359
      dyz     :     0.020922
      dx2y2   :     0.012311
      dxy     :     0.019179
      f0      :     0.001194  f :     0.005710
      f+1     :     0.001449
      f-1     :     0.000976
      f+2     :     0.000335
      f-2     :     0.000291
      f+3     :     0.000735
      f-3     :     0.000730
  3 C s       :     3.153388  s :     3.153388
      pz      :     1.047431  p :     2.962563
      px      :     0.978540
      py      :     0.936592
      dz2     :     0.020249  d :     0.089839
      dxz     :     0.015526
      dyz     :     0.007740
      dx2y2   :     0.019429
      dxy     :     0.026895
      f0      :     0.000768  f :     0.004775
      f+1     :     0.000650
      f-1     :     0.000369
      f+2     :     0.000539
      f-2     :     0.000327
      f+3     :     0.000903
      f-3     :     0.001220
  4 H s       :     0.861731  s :     0.861731
      pz      :     0.006150  p :     0.022269
      px      :     0.009106
      py      :     0.007012
  5 H s       :     0.844113  s :     0.844113
      pz      :     0.012757  p :     0.022376
      px      :     0.004574
      py      :     0.005046
  6 S s       :     5.329194  s :     5.329194
      pz      :     2.799167  p :     8.563053
      px      :     2.800812
      py      :     2.963074
      dz2     :     0.259717  d :     1.152180
      dxz     :     0.254842
      dyz     :     0.182363
      dx2y2   :     0.238421
      dxy     :     0.216838
      f0      :     0.014195  f :     0.121392
      f+1     :     0.036417
      f-1     :     0.015680
      f+2     :     0.012554
      f-2     :     0.016315
      f+3     :     0.014042
      f-3     :     0.012188
  7 C s       :     2.981667  s :     2.981667
      pz      :     0.796612  p :     2.356070
      px      :     0.775615
      py      :     0.783842
      dz2     :     0.043025  d :     0.253517
      dxz     :     0.069734
      dyz     :     0.063925
      dx2y2   :     0.035249
      dxy     :     0.041584
      f0      :     0.002244  f :     0.021558
      f+1     :     0.003559
      f-1     :     0.005910
      f+2     :     0.002253
      f-2     :     0.002707
      f+3     :     0.002079
      f-3     :     0.002806
  8 N s       :     3.439033  s :     3.439033
      pz      :     1.077475  p :     3.920800
      px      :     1.628324
      py      :     1.215001
      dz2     :     0.007862  d :     0.032602
      dxz     :     0.007274
      dyz     :     0.011970
      dx2y2   :     0.004120
      dxy     :     0.001375
      f0      :     0.000755  f :     0.003620
      f+1     :     0.000790
      f-1     :     0.000591
      f+2     :     0.000620
      f-2     :     0.000132
      f+3     :     0.000292
      f-3     :     0.000441
  9 N s       :     3.451218  s :     3.451218
      pz      :     1.151071  p :     3.968035
      px      :     1.664974
      py      :     1.151990
      dz2     :     0.007278  d :     0.033611
      dxz     :     0.003410
      dyz     :     0.009650
      dx2y2   :     0.007398
      dxy     :     0.005875
      f0      :     0.000541  f :     0.003475
      f+1     :     0.000233
      f-1     :     0.000483
      f+2     :     0.000558
      f-2     :     0.000299
      f+3     :     0.000640
      f-3     :     0.000720
 10 H s       :     0.692373  s :     0.692373
      pz      :     0.019895  p :     0.038540
      px      :     0.012234
      py      :     0.006412
 11 H s       :     0.708615  s :     0.708615
      pz      :     0.009596  p :     0.038154
      px      :     0.012839
[...]
      f-2     :     0.004597
      f+3     :     0.005381
      f-3     :     0.006863
  4 H s       :     0.799563  s :     0.799563
      pz      :     0.018768  p :     0.063599
      px      :     0.024406
      py      :     0.020426
  5 H s       :     0.797372  s :     0.797372
      pz      :     0.035805  p :     0.063789
      px      :     0.013050
      py      :     0.014935
  6 S s       :     4.724947  s :     4.724947
      pz      :     2.848323  p :     8.602364
      px      :     2.858982
      py      :     2.895059
      dz2     :     0.442865  d :     1.858206
      dxz     :     0.417884
      dyz     :     0.275753
      dx2y2   :     0.379591
      dxy     :     0.342114
      f0      :     0.049799  f :     0.371292
      f+1     :     0.101888
      f-1     :     0.047043
      f+2     :     0.040962
      f-2     :     0.048665
      f+3     :     0.042862
      f-3     :     0.040073
  7 C s       :     2.705978  s :     2.705978
      pz      :     0.957858  p :     2.681178
      px      :     0.798188
      py      :     0.925131
      dz2     :     0.193749  d :     0.908560
      dxz     :     0.206366
      dyz     :     0.222519
      dx2y2   :     0.137533
      dxy     :     0.148393
      f0      :     0.015577  f :     0.130259
      f+1     :     0.019113
      f-1     :     0.038087
      f+2     :     0.015567
      f-2     :     0.017924
      f+3     :     0.011304
      f-3     :     0.012687
  8 N s       :     2.974139  s :     2.974139
      pz      :     1.165245  p :     3.815378
      px      :     1.471112
      py      :     1.179021
      dz2     :     0.038188  d :     0.132948
      dxz     :     0.022727
      dyz     :     0.059854
      dx2y2   :     0.009702
      dxy     :     0.002477
      f0      :     0.003190  f :     0.011016
      f+1     :     0.002324
      f-1     :     0.002688
      f+2     :     0.001213
      f-2     :     0.000306
      f+3     :     0.000404
      f-3     :     0.000890
  9 N s       :     2.979922  s :     2.979922
      pz      :     1.151587  p :     3.858610
      px      :     1.525092
      py      :     1.181931
      dz2     :     0.034302  d :     0.133469
      dxz     :     0.009682
      dyz     :     0.046618
      dx2y2   :     0.022246
      dxy     :     0.020621
      f0      :     0.001197  f :     0.010407
      f+1     :     0.000796
      f-1     :     0.002041
      f+2     :     0.001670
      f-2     :     0.001128
      f+3     :     0.001795
      f-3     :     0.001781
 10 H s       :     0.706382  s :     0.706382
      pz      :     0.058802  p :     0.111900
      px      :     0.035243
      py      :     0.017855
 11 H s       :     0.710475  s :     0.710475
      pz      :     0.031934  p :     0.109562
      px      :     0.034746
      py      :     0.042882
 12 H s       :     0.669205  s :     0.669205
      pz      :     0.032908  p :     0.156298
      px      :     0.051429
      py      :     0.071962
 13 H s       :     0.681168  s :     0.681168
      pz      :     0.028764  p :     0.161522
      px      :     0.033958
      py      :     0.098801
 14 H s       :     0.712445  s :     0.712445
      pz      :     0.029093  p :     0.108872
      px      :     0.033673
      py      :     0.046106
 15 O s       :     3.549530  s :     3.549530
      pz      :     1.646644  p :     4.755930
      px      :     1.561214
      py      :     1.548071
      dz2     :     0.008258  d :     0.061826
      dxz     :     0.014091
      dyz     :     0.007631
      dx2y2   :     0.012818
      dxy     :     0.019027
      f0      :     0.000496  f :     0.004117
      f+1     :     0.000498
      f-1     :     0.000233
      f+2     :     0.000393
      f-2     :     0.000908
      f+3     :     0.000608
      f-3     :     0.000981
 16 O s       :     3.553360  s :     3.553360
      pz      :     1.577946  p :     4.690451
      px      :     1.522172
      py      :     1.590333
      dz2     :     0.008348  d :     0.066046
      dxz     :     0.025412
      dyz     :     0.003952
      dx2y2   :     0.017833
      dxy     :     0.010501
      f0      :     0.000542  f :     0.004517
      f+1     :     0.000888
      f-1     :     0.000044
      f+2     :     0.001280
      f-2     :     0.000501
      f+3     :     0.000731
      f-3     :     0.000530
 17 C s       :     2.780580  s :     2.780580
      pz      :     1.022284  p :     3.057849
      px      :     1.011205
      py      :     1.024360
      dz2     :     0.103993  d :     0.397465
      dxz     :     0.044871
      dyz     :     0.043194
      dx2y2   :     0.088091
      dxy     :     0.117316
      f0      :     0.004900  f :     0.037757
      f+1     :     0.003574
      f-1     :     0.003292
      f+2     :     0.006223
      f-2     :     0.005602
      f+3     :     0.006360
      f-3     :     0.007806
 18 H s       :     0.787730  s :     0.787730
      pz      :     0.011929  p :     0.061266
      px      :     0.020906
      py      :     0.028431
 19 H s       :     0.811881  s :     0.811881
      pz      :     0.014896  p :     0.059463
      px      :     0.016896
      py      :     0.027671
 20 C s       :     2.773833  s :     2.773833
      pz      :     1.009728  p :     3.055360
      px      :     1.022270
      py      :     1.023362
      dz2     :     0.091508  d :     0.407935
      dxz     :     0.106552
      dyz     :     0.069740
      dx2y2   :     0.050630
      dxy     :     0.089506
      f0      :     0.006063  f :     0.038573
      f+1     :     0.008977
      f-1     :     0.005749
      f+2     :     0.004012
      f-2     :     0.005113
      f+3     :     0.004167
      f-3     :     0.004492
 21 C s       :     2.771004  s :     2.771004
      pz      :     1.009680  p :     3.063079
      px      :     1.018266
      py      :     1.035133
      dz2     :     0.090055  d :     0.403988
      dxz     :     0.103062
      dyz     :     0.074816
      dx2y2   :     0.049067
      dxy     :     0.086987
      f0      :     0.006174  f :     0.039181
      f+1     :     0.009422
      f-1     :     0.006113
      f+2     :     0.004178
      f-2     :     0.004707
      f+3     :     0.004454
      f-3     :     0.004132
 22 H s       :     0.804381  s :     0.804381
      pz      :     0.016224  p :     0.059230
      px      :     0.018811
      py      :     0.024195
 23 H s       :     0.796658  s :     0.796658
      pz      :     0.015257  p :     0.065462
      px      :     0.018273
      py      :     0.031932
 24 H s       :     0.803511  s :     0.803511
      pz      :     0.014851  p :     0.059467
      px      :     0.014453
      py      :     0.030163
 25 H s       :     0.796777  s :     0.796777
      pz      :     0.016420  p :     0.060822
      px      :     0.020868
      py      :     0.023534
 26 C s       :     2.772526  s :     2.772526
      pz      :     1.033428  p :     3.057149
      px      :     1.020817
      py      :     1.002904
      dz2     :     0.114390  d :     0.401038
      dxz     :     0.020176
      dyz     :     0.073147
      dx2y2   :     0.121614
      dxy     :     0.071711
      f0      :     0.004038  f :     0.038612
      f+1     :     0.002905
      f-1     :     0.006667
      f+2     :     0.005317
      f-2     :     0.006439
      f+3     :     0.006495
      f-3     :     0.006751
 27 H s       :     0.797001  s :     0.797001
      pz      :     0.033878  p :     0.059623
      px      :     0.012692
      py      :     0.013053
 28 H s       :     0.804142  s :     0.804142
      pz      :     0.015673  p :     0.060313
      px      :     0.019366
      py      :     0.025274
 29 C s       :     2.773924  s :     2.773924
      pz      :     1.018898  p :     3.057520
      px      :     1.029675
      py      :     1.008947
      dz2     :     0.114515  d :     0.405050
      dxz     :     0.020511
      dyz     :     0.072536
      dx2y2   :     0.124149
      dxy     :     0.073338
      f0      :     0.003953  f :     0.038294
      f+1     :     0.003289
      f-1     :     0.006455
      f+2     :     0.005032
      f-2     :     0.006188
      f+3     :     0.006485
      f-3     :     0.006891
 30 H s       :     0.800065  s :     0.800065
      pz      :     0.014241  p :     0.059520
      px      :     0.032716
      py      :     0.012562
 31 H s       :     0.794543  s :     0.794543
      pz      :     0.034457  p :     0.061561
      px      :     0.014032
      py      :     0.013073
 32 C s       :     2.776649  s :     2.776649
      pz      :     1.021106  p :     3.052899
      px      :     1.021452
      py      :     1.010341
      dz2     :     0.089308  d :     0.402946
      dxz     :     0.069254
      dyz     :     0.111478
      dx2y2   :     0.083119
      dxy     :     0.049787
      f0      :     0.005789  f :     0.037803
      f+1     :     0.006748
      f-1     :     0.007809
      f+2     :     0.004180
      f-2     :     0.005131
      f+3     :     0.004628
      f-3     :     0.003518
 33 H s       :     0.804483  s :     0.804483
      pz      :     0.032163  p :     0.059226
      px      :     0.014264
      py      :     0.012800
 34 H s       :     0.801439  s :     0.801439
      pz      :     0.014085  p :     0.061105
      px      :     0.033693
      py      :     0.013326
 35 H s       :     0.804778  s :     0.804778
      pz      :     0.017506  p :     0.059684
      px      :     0.018793
      py      :     0.023385
 36 H s       :     0.804460  s :     0.804460
      pz      :     0.014089  p :     0.059284
      px      :     0.015917
      py      :     0.029278
 37 H s       :     0.802053  s :     0.802053
      pz      :     0.017348  p :     0.059281
      px      :     0.017385
      py      :     0.024548
 38 H s       :     0.804843  s :     0.804843
      pz      :     0.014068  p :     0.059118
      px      :     0.032087
      py      :     0.012963
 39 O s       :     3.551161  s :     3.551161
      pz      :     1.487343  p :     4.752029
      px      :     1.656370
      py      :     1.608315
      dz2     :     0.030818  d :     0.061948
      dxz     :     0.012329
      dyz     :     0.014364
      dx2y2   :     0.001690
      dxy     :     0.002748
      f0      :     0.001758  f :     0.004109
      f+1     :     0.000849
      f-1     :     0.001033
      f+2     :     0.000195
      f-2     :     0.000213
      f+3     :     0.000043
      f-3     :     0.000017


                      *****************************
                      * MAYER POPULATION ANALYSIS *
                      *****************************

  NA   - Mulliken gross atomic population
  ZA   - Total nuclear charge
  QA   - Mulliken gross atomic charge
  VA   - Mayer's total valence
  BVA  - Mayer's bonded valence
  FA   - Mayer's free valence

  ATOM       NA         ZA         QA         VA         BVA        FA
  0 C      6.2678     6.0000    -0.2678     3.9738     3.9738    -0.0000
  1 N      7.1904     7.0000    -0.1904     3.1860     3.1860    -0.0000
  2 C      6.1642     6.0000    -0.1642     3.9179     3.9179     0.0000
  3 C      6.2106     6.0000    -0.2106     3.9054     3.9054     0.0000
  4 H      0.8840     1.0000     0.1160     0.9878     0.9878     0.0000
  5 H      0.8665     1.0000     0.1335     0.9830     0.9830     0.0000
  6 S     15.1658    16.0000     0.8342     6.0574     6.0574     0.0000
  7 C      5.6128     6.0000     0.3872     4.2530     4.2530     0.0000
  8 N      7.3961     7.0000    -0.3961     3.1776     3.1776    -0.0000
  9 N      7.4563     7.0000    -0.4563     3.1700     3.1700     0.0000
 10 H      0.7309     1.0000     0.2691     0.9414     0.9414    -0.0000
 11 H      0.7468     1.0000     0.2532     0.9487     0.9487    -0.0000
 12 H      0.7472     1.0000     0.2528     1.0201     1.0201     0.0000
 13 H      0.7034     1.0000     0.2966     1.0149     1.0149    -0.0000
 14 H      0.7589     1.0000     0.2411     0.9537     0.9537    -0.0000
 15 O      8.5929     8.0000    -0.5929     1.8188     1.8188    -0.0000
 16 O      8.4779     8.0000    -0.4779     2.0151     2.0151     0.0000
 17 C      6.1265     6.0000    -0.1265     3.8368     3.8368     0.0000
 18 H      0.8269     1.0000     0.1731     0.9761     0.9761     0.0000
 19 H      0.8697     1.0000     0.1303     0.9589     0.9589    -0.0000
 20 C      6.2020     6.0000    -0.2020     3.9145     3.9145     0.0000
 21 C      6.2926     6.0000    -0.2926     4.0251     4.0251     0.0000
 22 H      0.9142     1.0000     0.0858     0.9766     0.9766     0.0000
 23 H      0.8814     1.0000     0.1186     0.9980     0.9980    -0.0000
 24 H      0.9039     1.0000     0.0961     0.9652     0.9652    -0.0000
 25 H      0.8866     1.0000     0.1134     0.9954     0.9954    -0.0000
 26 C      6.2482     6.0000    -0.2482     3.9443     3.9443     0.0000
 27 H      0.8942     1.0000     0.1058     0.9796     0.9796     0.0000
 28 H      0.8862     1.0000     0.1138     0.9765     0.9765     0.0000
 29 C      6.2628     6.0000    -0.2628     3.9925     3.9925     0.0000
 30 H      0.8918     1.0000     0.1082     0.9667     0.9667    -0.0000
 31 H      0.8651     1.0000     0.1349     0.9824     0.9824     0.0000
 32 C      6.1291     6.0000    -0.1291     3.9250     3.9250     0.0000
 33 H      0.8997     1.0000     0.1003     0.9677     0.9677     0.0000
 34 H      0.8755     1.0000     0.1245     0.9659     0.9659    -0.0000
 35 H      0.8930     1.0000     0.1070     0.9741     0.9741    -0.0000
 36 H      0.8995     1.0000     0.1005     0.9724     0.9724    -0.0000
 37 H      0.9010     1.0000     0.0990     0.9741     0.9741     0.0000
 38 H      0.9022     1.0000     0.0978     0.9714     0.9714     0.0000
 39 O      8.5751     8.0000    -0.5751     1.8153     1.8153     0.0000

  Mayer bond orders larger than 0.100000
B(  0-C ,  1-N ) :   0.9248 B(  0-C , 17-C ) :   0.9689 B(  0-C , 18-H ) :   0.9610 
B(  0-C , 19-H ) :   0.9720 B(  1-N ,  7-C ) :   1.4275 B(  1-N , 12-H ) :   0.7911 
B(  2-C ,  3-C ) :   0.9923 B(  2-C , 21-C ) :   1.0256 B(  2-C , 24-H ) :   0.9438 
B(  2-C , 25-H ) :   0.9482 B(  3-C ,  4-H ) :   0.9495 B(  3-C ,  5-H ) :   0.9488 
B(  3-C ,  6-S ) :   0.9008 B(  6-S , 15-O ) :   1.5653 B(  6-S , 16-O ) :   1.9330 
B(  6-S , 39-O ) :   1.5694 B(  7-C ,  8-N ) :   1.4204 B(  7-C ,  9-N ) :   1.2584 
B(  8-N , 13-H ) :   0.7744 B(  8-N , 14-H ) :   0.9101 B(  9-N , 10-H ) :   0.8938 
B(  9-N , 11-H ) :   0.9082 B( 12-H , 39-O ) :   0.1849 B( 13-H , 15-O ) :   0.1769 
B( 17-C , 26-C ) :   0.9923 B( 17-C , 27-H ) :   0.9534 B( 17-C , 28-H ) :   0.9579 
B( 20-C , 21-C ) :   0.9956 B( 20-C , 32-C ) :   0.9964 B( 20-C , 35-H ) :   0.9715 
B( 20-C , 36-H ) :   0.9545 B( 21-C , 22-H ) :   0.9541 B( 21-C , 23-H ) :   0.9608 
B( 26-C , 29-C ) :   1.0003 B( 26-C , 30-H ) :   0.9534 B( 26-C , 31-H ) :   0.9621 
B( 29-C , 32-C ) :   1.0062 B( 29-C , 33-H ) :   0.9494 B( 29-C , 34-H ) :   0.9702 
B( 32-C , 37-H ) :   0.9597 B( 32-C , 38-H ) :   0.9611 

-------
TIMINGS
-------

Total SCF time: 0 days 0 hours 1 min 17 sec 

Total time                  ....      77.874 sec
Sum of individual times     ....      76.004 sec  ( 97.6%)

Fock matrix formation       ....      68.334 sec  ( 87.7%)
  Split-RI-J                ....       7.644 sec  ( 11.2% of F)
  Chain of spheres X        ....      53.639 sec  ( 78.5% of F)
  XC integration            ....       6.501 sec  (  9.5% of F)
    Basis function eval.    ....       1.723 sec  ( 26.5% of XC)
    Density eval.           ....       2.171 sec  ( 33.4% of XC)
    XC-Functional eval.     ....       0.142 sec  (  2.2% of XC)
    XC-Potential eval.      ....       1.750 sec  ( 26.9% of XC)
Diagonalization             ....       1.285 sec  (  1.7%)
Density matrix formation    ....       0.104 sec  (  0.1%)
Population analysis         ....       0.152 sec  (  0.2%)
Initial guess               ....       0.991 sec  (  1.3%)
Orbital Transformation      ....       0.000 sec  (  0.0%)
Orbital Orthonormalization  ....       0.000 sec  (  0.0%)
DIIS solution               ....       0.672 sec  (  0.9%)
SOSCF solution              ....       1.000 sec  (  1.3%)
Grid generation             ....       3.466 sec  (  4.5%)

Maximum memory used throughout the entire SCF-calculation: 138.6 MB


-------------------------------------------------------------------------------
                          DFT DISPERSION CORRECTION                            
                                                                               
                              DFTD3 V3.1  Rev 1                                
                          USING Becke-Johnson damping                          
-------------------------------------------------------------------------------
The PBE0 functional is recognized
Active option DFTDOPT                   ...         4   

molecular C6(AA) [au] = 13752.670656 


            DFT-D V3
 parameters
 s6 scaling factor         :     1.0000 
 a1 scaling factor         :     0.4145 
 s8 scaling factor         :     1.2177 
 a2 scaling factor         :     4.8593 
 ad hoc parameters k1-k3   :    16.0000     1.3333    -4.0000 

 Edisp/kcal,au: -26.875058434524  -0.042828127189 
 E6   /kcal   : -17.467845168 
 E8   /kcal   :  -9.407213266 
 % E8         :  35.003508138 

-------------------------   ----------------
Dispersion correction           -0.042828127
-------------------------   ----------------


-------------------------   --------------------
FINAL SINGLE POINT ENERGY     -1182.413852132577
-------------------------   --------------------


                            ***************************************
                            *     ORCA property calculations      *
                            ***************************************

                                    ---------------------
                                    Active property flags
                                    ---------------------
   (+) Dipole Moment


------------------------------------------------------------------------------
                       ORCA ELECTRIC PROPERTIES CALCULATION
------------------------------------------------------------------------------

Dipole Moment Calculation                       ... on
Quadrupole Moment Calculation                   ... off
Polarizability Calculation                      ... off
GBWName                                         ... PBE0_B_wt_wb97.gbw
Electron density file                           ... PBE0_B_wt_wb97.scfp
The origin for moment calculation is the CENTER OF MASS  = ( 8.583389, -1.026468 -8.818666)

-------------
DIPOLE MOMENT
-------------
                                X             Y             Z
Electronic contribution:    -14.54037       8.40848     -15.35336
Nuclear contribution   :     16.79156      -5.47215      17.54258
                        -----------------------------------------
Total Dipole Moment    :      2.25119       2.93633       2.18922
                        -----------------------------------------
Magnitude (a.u.)       :      4.29914
Magnitude (Debye)      :     10.92754



--------------------
Rotational spectrum 
--------------------
 
Rotational constants in cm-1:     0.014207     0.012373     0.007472 
Rotational constants in MHz :   425.900436   370.942493   224.006604 

 Dipole components along the rotational axes: 
x,y,z [a.u.] :     3.978604    -1.411809    -0.812455 
x,y,z [Debye]:    10.112809    -3.588533    -2.065097 

 

Timings for individual modules:

Sum of individual times         ...       80.291 sec (=   1.338 min)
GTO integral calculation        ...        1.922 sec (=   0.032 min)   2.4 %
SCF iterations                  ...       78.369 sec (=   1.306 min)  97.6 %
                             ****ORCA TERMINATED NORMALLY****
TOTAL RUN TIME: 0 days 0 hours 1 minutes 21 seconds 85 msec
