
                                        *****************
                                        * O   R   C   A *
                                        *****************

                                            #,                                       
                                            ###                                      
                                            ####                                     
                                            #####                                    
                                            ######                                   
                                           ########,                                 
                                     ,,################,,,,,                         
                               ,,#################################,,                 
                          ,,##########################################,,             
                       ,#########################################, ''#####,          
                    ,#############################################,,   '####,        
                  ,##################################################,,,,####,       
                ,###########''''           ''''###############################       
              ,#####''   ,,,,##########,,,,          '''####'''          '####       
            ,##' ,,,,###########################,,,                        '##       
           ' ,,###''''                  '''############,,,                           
         ,,##''                                '''############,,,,        ,,,,,,###''
      ,#''                                            '''#######################'''  
     '                                                          ''''####''''         
             ,#######,   #######,   ,#######,      ##                                
            ,#'     '#,  ##    ##  ,#'     '#,    #''#        ######   ,####,        
            ##       ##  ##   ,#'  ##            #'  '#       #        #'  '#        
            ##       ##  #######   ##           ,######,      #####,   #    #        
            '#,     ,#'  ##    ##  '#,     ,#' ,#      #,         ##   #,  ,#        
             '#######'   ##     ##  '#######'  #'      '#     #####' # '####'        



                  #######################################################
                  #                        -***-                        #
                  #          Department of theory and spectroscopy      #
                  #    Directorship and core code : Frank Neese         #
                  #        Max Planck Institute fuer Kohlenforschung    #
                  #                Kaiser Wilhelm Platz 1               #
                  #                 D-45470 Muelheim/Ruhr               #
                  #                      Germany                        #
                  #                                                     #
                  #                  All rights reserved                #
                  #                        -***-                        #
                  #######################################################


                         Program Version 5.0.0 -  RELEASE  -
                                (SVN: $Rev: 19529$)
                ($Date: 2021-06-28 11:36:33 +0200 (Mo, 28 Jun 2021) $)


 With contributions from (in alphabetic order):
   Daniel Aravena         : Magnetic Suceptibility
   Michael Atanasov       : Ab Initio Ligand Field Theory (pilot matlab implementation)
   Alexander A. Auer      : GIAO ZORA, VPT2 properties, NMR spectrum
   Ute Becker             : Parallelization
   Giovanni Bistoni       : ED, misc. LED, open-shell LED, HFLD
   Martin Brehm           : Molecular dynamics
   Dmytro Bykov           : SCF Hessian
   Vijay G. Chilkuri      : MRCI spin determinant printing, contributions to CSF-ICE
   Dipayan Datta          : RHF DLPNO-CCSD density
   Achintya Kumar Dutta   : EOM-CC, STEOM-CC
   Dmitry Ganyushin       : Spin-Orbit,Spin-Spin,Magnetic field MRCI
   Miquel Garcia          : C-PCM Hessian, Gaussian charge scheme
   Yang Guo               : DLPNO-NEVPT2, F12-NEVPT2, CIM, IAO-localization
   Andreas Hansen         : Spin unrestricted coupled pair/coupled cluster methods
   Benjamin Helmich-Paris : MC-RPA, TRAH-SCF, COSX integrals
   Lee Huntington         : MR-EOM, pCC
   Robert Izsak           : Overlap fitted RIJCOSX, COSX-SCS-MP3, EOM
   Marcus Kettner         : VPT2
   Christian Kollmar      : KDIIS, OOCD, Brueckner-CCSD(T), CCSD density, CASPT2, CASPT2-K
   Simone Kossmann        : Meta GGA functionals, TD-DFT gradient, OOMP2, MP2 Hessian
   Martin Krupicka        : Initial AUTO-CI
   Lucas Lang             : DCDCAS
   Marvin Lechner         : AUTO-CI (C++ implementation), FIC-MRCC
   Dagmar Lenk            : GEPOL surface, SMD
   Dimitrios Liakos       : Extrapolation schemes; Compound Job, initial MDCI parallelization
   Dimitrios Manganas     : Further ROCIS development; embedding schemes
   Dimitrios Pantazis     : SARC Basis sets
   Anastasios Papadopoulos: AUTO-CI, single reference methods and gradients
   Taras Petrenko         : DFT Hessian,TD-DFT gradient, ASA, ECA, R-Raman, ABS, FL, XAS/XES, NRVS
   Peter Pinski           : DLPNO-MP2, DLPNO-MP2 Gradient
   Christoph Reimann      : Effective Core Potentials
   Marius Retegan         : Local ZFS, SOC
   Christoph Riplinger    : Optimizer, TS searches, QM/MM, DLPNO-CCSD(T), (RO)-DLPNO pert. Triples
   Tobias Risthaus        : Range-separated hybrids, TD-DFT gradient, RPA, STAB
   Michael Roemelt        : Original ROCIS implementation
   Masaaki Saitow         : Open-shell DLPNO-CCSD energy and density
   Barbara Sandhoefer     : DKH picture change effects
   Avijit Sen             : IP-ROCIS
   Kantharuban Sivalingam : CASSCF convergence, NEVPT2, FIC-MRCI
   Bernardo de Souza      : ESD, SOC TD-DFT
   Georgi Stoychev        : AutoAux, RI-MP2 NMR
   Willem Van den Heuvel  : Paramagnetic NMR
   Boris Wezisla          : Elementary symmetry handling
   Frank Wennmohs         : Technical directorship


 We gratefully acknowledge several colleagues who have allowed us to
 interface, adapt or use parts of their codes:
   Stefan Grimme, W. Hujo, H. Kruse, P. Pracht,  : VdW corrections, initial TS optimization,
                  C. Bannwarth, S. Ehlert          DFT functionals, gCP, sTDA/sTD-DF
   Ed Valeev, F. Pavosevic, A. Kumar             : LibInt (2-el integral package), F12 methods
   Garnet Chan, S. Sharma, J. Yang, R. Olivares  : DMRG
   Ulf Ekstrom                                   : XCFun DFT Library
   Mihaly Kallay                                 : mrcc  (arbitrary order and MRCC methods)
   Jiri Pittner, Ondrej Demel                    : Mk-CCSD
   Frank Weinhold                                : gennbo (NPA and NBO analysis)
   Christopher J. Cramer and Donald G. Truhlar   : smd solvation model
   Lars Goerigk                                  : TD-DFT with DH, B97 family of functionals
   V. Asgeirsson, H. Jonsson                     : NEB implementation
   FAccTs GmbH                                   : IRC, NEB, NEB-TS, DLPNO-Multilevel, CI-OPT
                                                   MM, QMMM, 2- and 3-layer-ONIOM, Crystal-QMMM,
                                                   LR-CPCM, SF, NACMEs, symmetry and pop. for TD-DFT,
                                                   nearIR, NL-DFT gradient (VV10), updates on ESD,
                                                   ML-optimized integration grids
   S Lehtola, MJT Oliveira, MAL Marques          : LibXC Library
   Liviu Ungur et al                             : ANISO software


 Your calculation uses the libint2 library for the computation of 2-el integrals
 For citations please refer to: http://libint.valeyev.net

 Your ORCA version has been built with support for libXC version: 5.1.0
 For citations please refer to: https://tddft.org/programs/libxc/

 This ORCA versions uses:
   CBLAS   interface :  Fast vector & matrix operations
   LAPACKE interface :  Fast linear algebra routines
   SCALAPACK package :  Parallel linear algebra routines
   Shared memory     :  Shared parallel matrices
   BLAS/LAPACK       :  OpenBLAS 0.3.15  USE64BITINT DYNAMIC_ARCH NO_AFFINITY Haswell SINGLE_THREADED
        Core in use  :  Haswell
   Copyright (c) 2011-2014, The OpenBLAS Project


Your calculation utilizes the atom-pairwise dispersion correction
with the zero-damping scheme (D30)
Cite in your paper:
S.Grimme, J.Antony, S.Ehrlich and H.Krieg, J.Chem.Phys., 132, (2010), 154104 
   

XCFun DFT library Copyright 2009-2010 Ulf Ekstrom and contributors.
See http://admol.org/xcfun for more information.
This is free software; see the source code for copying conditions.
There is ABSOLUTELY NO WARRANTY; not even for MERCHANTABILITY or FITNESS FOR A PARTICULAR PURPOSE.
For details see the documentation.
Scientific users of this library should cite U. Ekstrom, L. Visscher, R. Bast, A. J. Thorvaldsen and K. Ruud;
J.Chem.Theor.Comp. 2010, DOI: 10.1021/ct100117s
XCFun Version 0.99 

================================================================================

----- Orbital basis set information -----
Your calculation utilizes the basis: def2-TZVPD
   F. Weigend and R. Ahlrichs, Phys. Chem. Chem. Phys. 7, 3297 (2005).
   D. Rappoport and F. Furche, J. Chem. Phys. 133 134105 (2010).

----- AuxJ basis set information -----
Your calculation utilizes the auxiliary basis: def2/J
   F. Weigend, Phys. Chem. Chem. Phys. 8, 1057 (2006).

================================================================================
                                        WARNINGS
                       Please study these warnings very carefully!
================================================================================


INFO   : the flag for use of the SHARK integral package has been found!

================================================================================
                                       INPUT FILE
================================================================================
NAME = C1_pos.com
|  1> !wB97X-D3 RIJCOSX def2-TZVPD def2/J TightSCF 
|  2> *xyz 0 1 
|  3> C          2.23447       -2.98975       -2.39762
|  4> C          2.75680       -2.94555       -3.76503
|  5> C          1.98721       -2.59045       -4.81898
|  6> N          0.74322       -3.01749       -4.91352
|  7> N          2.49964       -1.84860       -5.80324
|  8> H          3.30978       -1.29282       -5.55895
|  9> H          1.80103       -1.30430       -6.28913
| 10> H          3.71612       -2.62880       -3.82953
| 11> H          0.39583       -3.62775       -4.18502
| 12> H          0.03920       -2.45438       -5.37137
| 13> H          1.22098       -3.33251       -2.41386
| 14> H          2.27280       -2.00995       -1.96933
| 15> H          2.82798       -3.65908       -1.81056
| 16> *
| 17> 
| 18> %MaxCore 64000
| 19> 
| 20> %pal nprocs 18
| 21> end  
| 22> 
| 23> %scf
| 24>   MaxIter 150
| 25> end
| 26> 
| 27> 
| 28>                          ****END OF INPUT****
================================================================================

                       ****************************
                       * Single Point Calculation *
                       ****************************

---------------------------------
CARTESIAN COORDINATES (ANGSTROEM)
---------------------------------
  C      2.234470   -2.989750   -2.397620
  C      2.756800   -2.945550   -3.765030
  C      1.987210   -2.590450   -4.818980
  N      0.743220   -3.017490   -4.913520
  N      2.499640   -1.848600   -5.803240
  H      3.309780   -1.292820   -5.558950
  H      1.801030   -1.304300   -6.289130
  H      3.716120   -2.628800   -3.829530
  H      0.395830   -3.627750   -4.185020
  H      0.039200   -2.454380   -5.371370
  H      1.220980   -3.332510   -2.413860
  H      2.272800   -2.009950   -1.969330
  H      2.827980   -3.659080   -1.810560

----------------------------
CARTESIAN COORDINATES (A.U.)
----------------------------
  NO LB      ZA    FRAG     MASS         X           Y           Z
   0 C     6.0000    0    12.011    4.222536   -5.649809   -4.530845
   1 C     6.0000    0    12.011    5.209597   -5.566283   -7.114876
   2 C     6.0000    0    12.011    3.755283   -4.895241   -9.106552
   3 N     7.0000    0    14.007    1.404482   -5.702230   -9.285207
   4 N     7.0000    0    14.007    4.723635   -3.493348  -10.966534
   5 H     1.0000    0     1.008    6.254578   -2.443076  -10.504893
   6 H     1.0000    0     1.008    3.403453   -2.464770  -11.884733
   7 H     1.0000    0     1.008    7.022449   -4.967712   -7.236763
   8 H     1.0000    0     1.008    0.748010   -6.855454   -7.908542
   9 H     1.0000    0     1.008    0.074077   -4.638106  -10.150418
  10 H     1.0000    0     1.008    2.307318   -6.297531   -4.561534
  11 H     1.0000    0     1.008    4.294970   -3.798255   -3.721494
  12 H     1.0000    0     1.008    5.344108   -6.914659   -3.421463

--------------------------------
INTERNAL COORDINATES (ANGSTROEM)
--------------------------------
 C      0   0   0     0.000000000000     0.00000000     0.00000000
 C      1   0   0     1.464442684778     0.00000000     0.00000000
 C      2   1   0     1.352470103403   122.18203773     0.00000000
 N      3   2   1     1.318640244077   120.50767980   318.92429323
 N      3   2   1     1.334800987039   120.13904926   141.74971655
 H      5   3   2     1.012371390400   115.74663211   337.06352916
 H      5   3   2     1.010152223281   112.87076652   206.24150258
 H      2   1   3     1.012316983410   114.01273014   143.83776254
 H      4   3   2     1.011834635551   117.87810276   358.89629827
 H      4   3   2     1.011120000297   120.59509601   149.18334512
 H      1   2   3     1.070004736111   109.47119281    36.16225457
 H      1   2   3     1.070004464009   109.47121637   276.16213546
 H      1   2   3     1.069998230185   109.47164707   156.16226217

---------------------------
INTERNAL COORDINATES (A.U.)
---------------------------
 C      0   0   0     0.000000000000     0.00000000     0.00000000
 C      1   0   0     2.767395613055     0.00000000     0.00000000
 C      2   1   0     2.555798099749   122.18203773     0.00000000
 N      3   2   1     2.491868930473   120.50767980   318.92429323
 N      3   2   1     2.522408308791   120.13904926   141.74971655
 H      5   3   2     1.913104673673   115.74663211   337.06352916
 H      5   3   2     1.908911055573   112.87076652   206.24150258
 H      2   1   3     1.913001859362   114.01273014   143.83776254
 H      4   3   2     1.912090354007   117.87810276   358.89629827
 H      4   3   2     1.910739889091   120.59509601   149.18334512
 H      1   2   3     2.022015913248   109.47119281    36.16225457
 H      1   2   3     2.022015399051   109.47121637   276.16213546
 H      1   2   3     2.022003618831   109.47164707   156.16226217

---------------------
BASIS SET INFORMATION
---------------------
There are 3 groups of distinct atoms

 Group   1 Type C   : 12s6p3d1f contracted to 6s3p3d1f pattern {621111/411/111/1}
 Group   2 Type N   : 12s6p3d1f contracted to 6s3p3d1f pattern {621111/411/111/1}
 Group   3 Type H   : 5s2p contracted to 3s2p pattern {311/11}

Atom   0C    basis set group =>   1
Atom   1C    basis set group =>   1
Atom   2C    basis set group =>   1
Atom   3N    basis set group =>   2
Atom   4N    basis set group =>   2
Atom   5H    basis set group =>   3
Atom   6H    basis set group =>   3
Atom   7H    basis set group =>   3
Atom   8H    basis set group =>   3
Atom   9H    basis set group =>   3
Atom  10H    basis set group =>   3
Atom  11H    basis set group =>   3
Atom  12H    basis set group =>   3
---------------------------------
AUXILIARY/J BASIS SET INFORMATION
---------------------------------
There are 3 groups of distinct atoms

 Group   1 Type C   : 12s5p4d2f1g contracted to 6s4p3d1f1g pattern {711111/2111/211/2/1}
 Group   2 Type N   : 12s5p4d2f1g contracted to 6s4p3d1f1g pattern {711111/2111/211/2/1}
 Group   3 Type H   : 5s2p1d contracted to 3s1p1d pattern {311/2/1}

Atom   0C    basis set group =>   1
Atom   1C    basis set group =>   1
Atom   2C    basis set group =>   1
Atom   3N    basis set group =>   2
Atom   4N    basis set group =>   2
Atom   5H    basis set group =>   3
Atom   6H    basis set group =>   3
Atom   7H    basis set group =>   3
Atom   8H    basis set group =>   3
Atom   9H    basis set group =>   3
Atom  10H    basis set group =>   3
Atom  11H    basis set group =>   3
Atom  12H    basis set group =>   3


           ************************************************************
           *        Program running with 18 parallel MPI-processes    *
           *              working on a common directory               *
           ************************************************************
------------------------------------------------------------------------------
                           ORCA GTO INTEGRAL CALCULATION
                           -- RI-GTO INTEGRALS CHOSEN --
------------------------------------------------------------------------------
------------------------------------------------------------------------------
                   ___                                                        
                  /   \      - P O W E R E D   B Y -                         
                 /     \                                                     
                 |  |  |   _    _      __       _____    __    __             
                 |  |  |  | |  | |    /  \     |  _  \  |  |  /  |          
                  \  \/   | |  | |   /    \    | | | |  |  | /  /          
                 / \  \   | |__| |  /  /\  \   | |_| |  |  |/  /          
                |  |  |   |  __  | /  /__\  \  |    /   |      \           
                |  |  |   | |  | | |   __   |  |    \   |  |\   \          
                \     /   | |  | | |  |  |  |  | |\  \  |  | \   \       
                 \___/    |_|  |_| |__|  |__|  |_| \__\ |__|  \__/        
                                                                              
                      - O R C A' S   B I G   F R I E N D -                    
                                      &                                       
                       - I N T E G R A L  F E E D E R -                       
                                                                              
 v1 FN, 2020, v2 2021                                                         
------------------------------------------------------------------------------


Reading SHARK input file C1_pos.SHARKINP.tmp ... ok
----------------------
SHARK INTEGRAL PACKAGE
----------------------

Number of atoms                             ...     13
Number of basis functions                   ...    257
Number of shells                            ...    105
Maximum angular momentum                    ...      3
Integral batch strategy                     ... SHARK/LIBINT Hybrid
RI-J (if used) integral strategy            ... SPLIT-RIJ (Revised 2003 algorithm where possible)
Printlevel                                  ...      1
Contraction scheme used                     ... SEGMENTED contraction
Coulomb Range Separation                    ... NOT USED
Exchange Range Separation                   ... Long Range
   Mu parameter                             ...  0.250000
   Scaling (regular/separated)              ...  0.195728  0.804272
Finite Nucleus Model                        ... NOT USED
Auxiliary Coulomb fitting basis             ... AVAILABLE
   # of basis functions in Aux-J            ...    333
   # of shells in Aux-J                     ...    115
   Maximum angular momentum in Aux-J        ...      4
Auxiliary J/K fitting basis                 ... NOT available
Auxiliary Correlation fitting basis         ... NOT available
Auxiliary 'external' fitting basis          ... NOT available
Integral threshold                          ...     2.500000e-11
Primitive cut-off                           ...     2.500000e-12
Primitive pair pre-selection threshold      ...     2.500000e-12

Calculating pre-screening integrals         ... done (  0.1 sec) Dimension = 105
Organizing shell pair data                  ... done (  0.1 sec)
Shell pair information
Total number of shell pairs                 ...      5565
Shell pairs after pre-screening             ...      5428
Total number of primitive shell pairs       ...     13995
Primitive shell pairs kept                  ...     11426
          la=0 lb=0:   1409 shell pairs
          la=1 lb=0:   1633 shell pairs
          la=1 lb=1:    493 shell pairs
          la=2 lb=0:    798 shell pairs
          la=2 lb=1:    464 shell pairs
          la=2 lb=2:    120 shell pairs
          la=3 lb=0:    266 shell pairs
          la=3 lb=1:    155 shell pairs
          la=3 lb=2:     75 shell pairs
          la=3 lb=3:     15 shell pairs

Calculating one electron integrals          ... done (  0.0 sec)
Calculating RI/J V-Matrix + Cholesky decomp.... done (  0.0 sec)
Calculating Nuclear repulsion               ... done (  0.0 sec) ENN=    184.136635066095 Eh

SHARK setup successfully completed in   0.3 seconds

Maximum memory used throughout the entire GTOINT-calculation: 13.9 MB


           ************************************************************
           *        Program running with 18 parallel MPI-processes    *
           *              working on a common directory               *
           ************************************************************
-------------------------------------------------------------------------------
                                 ORCA SCF
-------------------------------------------------------------------------------

------------
SCF SETTINGS
------------
Hamiltonian:
 Density Functional     Method          .... DFT(GTOs)
 Exchange Functional    Exchange        .... WB97X-D3
 Correlation Functional Correlation     .... WB97X-D3
 Gradients option       PostSCFGGA      .... off
 Hybrid DFT is turned on
   Fraction HF Exchange ScalHFX         ....  0.195728
   Scaling of DF-GGA-X  ScalDFX         ....  0.000000
   Scaling of DF-GGA-C  ScalDFC         ....  1.000000
   Scaling of DF-LDA-C  ScalLDAC        ....  1.000000
   Perturbative correction              ....  0.000000
   Density functional embedding theory  .... OFF
 Long-range corrected/Screened/Range-Separated Hybrid DFT is turned on
   Amount of maximum screened exact exchange              ....  0.804272
   Range separation parameter mu (erf(mu*r12)/r12)        ....  0.250000
 RI-approximation to the Coulomb term is turned on
   Number of AuxJ basis functions       .... 333
   RIJ-COSX (HFX calculated with COS-X)).... on


General Settings:
 Integral files         IntName         .... C1_pos
 Hartree-Fock type      HFTyp           .... RHF
 Total Charge           Charge          ....    0
 Multiplicity           Mult            ....    1
 Number of Electrons    NEL             ....   40
 Basis Dimension        Dim             ....  257
 Nuclear Repulsion      ENuc            ....    184.1366350661 Eh

Convergence Acceleration:
 DIIS                   CNVDIIS         .... on
   Start iteration      DIISMaxIt       ....    12
   Startup error        DIISStart       ....  0.200000
   # of expansion vecs  DIISMaxEq       ....     5
   Bias factor          DIISBfac        ....   1.050
   Max. coefficient     DIISMaxC        ....  10.000
 Trust-Rad. Augm. Hess. CNVTRAH         .... auto
   Auto Start mean grad. ratio tolernc. ....  1.125000
   Auto Start start iteration           ....    20
   Auto Start num. interpolation iter.  ....    10
   Max. Number of Micro iterations      ....    16
   Max. Number of Macro iterations      .... Maxiter - #DIIS iter
   Number of Davidson start vectors     ....     2
   Converg. threshold I  (grad. norm)   ....   1.000e-05
   Converg. threshold II (energy diff.) ....   1.000e-08
   Grad. Scal. Fac. for Micro threshold ....   0.100
   Minimum threshold for Micro iter.    ....   0.010
   NR start threshold (gradient norm)   ....   0.001
   Initial trust radius                 ....   0.400
   Minimum AH scaling param. (alpha)    ....   1.000
   Maximum AH scaling param. (alpha)    .... 1000.000
   Orbital update algorithm             .... Taylor
   White noise on init. David. guess    .... on
   Maximum white noise                  ....   0.010
   Quad. conv. algorithm                .... NR
 SOSCF                  CNVSOSCF        .... on
   Start iteration      SOSCFMaxIt      ....   150
   Startup grad/error   SOSCFStart      ....  0.003300
 Level Shifting         CNVShift        .... on
   Level shift para.    LevelShift      ....    0.2500
   Turn off err/grad.   ShiftErr        ....    0.0010
 Zerner damping         CNVZerner       .... off
 Static damping         CNVDamp         .... on
   Fraction old density DampFac         ....    0.7000
   Max. Damping (<1)    DampMax         ....    0.9800
   Min. Damping (>=0)   DampMin         ....    0.0000
   Turn off err/grad.   DampErr         ....    0.1000
 Fernandez-Rico         CNVRico         .... off

SCF Procedure:
 Maximum # iterations   MaxIter         ....   150
 SCF integral mode      SCFMode         .... Direct
   Integral package                     .... SHARK and LIBINT hybrid scheme
 Reset frequency        DirectResetFreq ....    20
 Integral Threshold     Thresh          ....  2.500e-11 Eh
 Primitive CutOff       TCut            ....  2.500e-12 Eh

Convergence Tolerance:
 Convergence Check Mode ConvCheckMode   .... Total+1el-Energy
 Convergence forced     ConvForced      .... 0
 Energy Change          TolE            ....  1.000e-08 Eh
 1-El. energy change                    ....  1.000e-05 Eh
 Orbital Gradient       TolG            ....  1.000e-05
 Orbital Rotation angle TolX            ....  1.000e-05
 DIIS Error             TolErr          ....  5.000e-07


Diagonalization of the overlap matrix:
Smallest eigenvalue                        ... 3.022e-06
Time for diagonalization                   ...    0.019 sec
Threshold for overlap eigenvalues          ... 1.000e-08
Number of eigenvalues below threshold      ... 0
Time for construction of square roots      ...    0.028 sec
Total time needed                          ...    0.048 sec

Time for model grid setup =    0.075 sec

------------------------------
INITIAL GUESS: MODEL POTENTIAL
------------------------------
Loading Hartree-Fock densities                     ... done
Calculating cut-offs                               ... done
Initializing the effective Hamiltonian             ... done
Setting up the integral package (SHARK)            ... done
Starting the Coulomb interaction                   ... done (   0.0 sec)
Reading the grid                                   ... done
Mapping shells                                     ... done
Starting the XC term evaluation                    ... done (   0.1 sec)
  promolecular density results
     # of electrons  =     39.995503866
     EX              =    -30.873771134
     EC              =     -1.314654426
     EX+EC           =    -32.188425560
Transforming the Hamiltonian                       ... done (   0.0 sec)
Diagonalizing the Hamiltonian                      ... done (   0.0 sec)
Back transforming the eigenvectors                 ... done (   0.0 sec)
Now organizing SCF variables                       ... done
                      ------------------
                      INITIAL GUESS DONE (   0.2 sec)
                      ------------------
-------------------
DFT GRID GENERATION
-------------------

General Integration Accuracy     IntAcc      ... 4.388
Radial Grid Type                 RadialGrid  ... OptM3 with GC (2021)
Angular Grid (max. ang.)         AngularGrid ... 4 (Lebedev-302)
Angular grid pruning method      GridPruning ... 4 (adaptive)
Weight generation scheme         WeightScheme... Becke
Basis function cutoff            BFCut       ... 1.0000e-11
Integration weight cutoff        WCut        ... 1.0000e-14
Angular grids for H and He will be reduced by one unit
Partially contracted basis set               ... off
Rotationally invariant grid construction     ... off

Total number of grid points                  ...    59040
Total number of batches                      ...      928
Average number of points per batch           ...       63
Average number of grid points per atom       ...     4542
Time for grid setup =    0.400 sec

--------------------
COSX GRID GENERATION
--------------------

GRIDX 1
-------
General Integration Accuracy     IntAcc      ... 3.816
Radial Grid Type                 RadialGrid  ... OptM3 with GC (2021)
Angular Grid (max. ang.)         AngularGrid ... 1 (Lebedev-50)
Angular grid pruning method      GridPruning ... 4 (adaptive)
Weight generation scheme         WeightScheme... Becke
Basis function cutoff            BFCut       ... 1.0000e-11
Integration weight cutoff        WCut        ... 1.0000e-14
Angular grids for H and He will be reduced by one unit
Partially contracted basis set               ... on
Rotationally invariant grid construction     ... off

Total number of grid points                  ...     7421
Total number of batches                      ...      121
Average number of points per batch           ...       61
Average number of grid points per atom       ...      571
UseSFitting                                  ... on

GRIDX 2
-------
General Integration Accuracy     IntAcc      ... 4.020
Radial Grid Type                 RadialGrid  ... OptM3 with GC (2021)
Angular Grid (max. ang.)         AngularGrid ... 2 (Lebedev-110)
Angular grid pruning method      GridPruning ... 4 (adaptive)
Weight generation scheme         WeightScheme... Becke
Basis function cutoff            BFCut       ... 1.0000e-11
Integration weight cutoff        WCut        ... 1.0000e-14
Angular grids for H and He will be reduced by one unit
Partially contracted basis set               ... on
Rotationally invariant grid construction     ... off

Total number of grid points                  ...    17584
Total number of batches                      ...      282
Average number of points per batch           ...       62
Average number of grid points per atom       ...     1353
UseSFitting                                  ... on

GRIDX 3
-------
General Integration Accuracy     IntAcc      ... 4.338
Radial Grid Type                 RadialGrid  ... OptM3 with GC (2021)
Angular Grid (max. ang.)         AngularGrid ... 3 (Lebedev-194)
Angular grid pruning method      GridPruning ... 4 (adaptive)
Weight generation scheme         WeightScheme... Becke
Basis function cutoff            BFCut       ... 1.0000e-11
Integration weight cutoff        WCut        ... 1.0000e-14
Angular grids for H and He will be reduced by one unit
Partially contracted basis set               ... on
Rotationally invariant grid construction     ... off

Total number of grid points                  ...    39541
Total number of batches                      ...      625
Average number of points per batch           ...       63
Average number of grid points per atom       ...     3042
UseSFitting                                  ... on

Time for X-Grid setup             =    0.370 sec

--------------
SCF ITERATIONS
--------------
ITER       Energy         Delta-E        Max-DP      RMS-DP      [F,P]     Damp
               ***  Starting incremental Fock matrix formation  ***
  0   -228.3377196983   0.000000000000 0.19630613  0.00248938  0.2300083 0.7000
  1   -228.4533299478  -0.115610249463 0.18024067  0.00218734  0.1292660 0.7000
                               ***Turning on DIIS***
  2   -228.5107930782  -0.057463130458 0.30974288  0.00455125  0.0624775 0.0000
  3   -228.5985819934  -0.087788915136 0.15397699  0.00157731  0.0527670 0.0000
  4   -228.6146646240  -0.016082630666 0.03940689  0.00043995  0.0092137 0.0000
                      *** Initiating the SOSCF procedure ***
                           *** Shutting down DIIS ***
                      *** Re-Reading the Fockian *** 
                      *** Removing any level shift *** 
ITER      Energy       Delta-E        Grad      Rot      Max-DP    RMS-DP
  5   -228.61510364  -0.0004390125  0.000637  0.000637  0.008423  0.000117
               *** Restarting incremental Fock matrix formation ***
  6   -228.61512364  -0.0000200070  0.000326  0.000856  0.008446  0.000097
  7   -228.61513382  -0.0000101771  0.000220  0.000975  0.002785  0.000065
  8   -228.61513661  -0.0000027918  0.000056  0.000130  0.001444  0.000022
  9   -228.61513686  -0.0000002502  0.000030  0.000041  0.000527  0.000008
 10   -228.61513691  -0.0000000430  0.000011  0.000024  0.001269  0.000008
 11   -228.61513691  -0.0000000080  0.000003  0.000011  0.001003  0.000007
                  ***Gradient check signals convergence***
              ***Rediagonalizing the Fockian in SOSCF/NRSCF***

               *****************************************************
               *                     SUCCESS                       *
               *           SCF CONVERGED AFTER  12 CYCLES          *
               *****************************************************

Old exchange energy                            =    -10.503597851 Eh
New exchange energy                            =    -10.503594847 Eh
Exchange energy change after final integration =      0.000003004 Eh
Total energy after final integration           =   -228.615133909 Eh
Final COS-X integration done in                =     3.209 sec

----------------
TOTAL SCF ENERGY
----------------

Total Energy       :         -228.61513391 Eh           -6220.93406 eV

Components:
Nuclear Repulsion  :          184.13663507 Eh            5010.61257 eV
Electronic Energy  :         -412.75176897 Eh          -11231.54663 eV
One Electron Energy:         -672.57881980 Eh          -18301.80013 eV
Two Electron Energy:          259.82705082 Eh            7070.25350 eV
Max COSX asymmetry :            0.00000096 Eh               0.00003 eV

Virial components:
Potential Energy   :         -456.75793941 Eh          -12429.01541 eV
Kinetic Energy     :          228.14280551 Eh            6208.08135 eV
Virial Ratio       :            2.00207032


DFT components:
N(Alpha)           :       20.000038783143 electrons
N(Beta)            :       20.000038783143 electrons
N(Total)           :       40.000077566287 electrons
E(XC)              :      -22.735261513304 Eh       
DFET-embed. en.    :        0.000000000000 Eh       

---------------
SCF CONVERGENCE
---------------

  Last Energy change         ...    1.0955e-09  Tolerance :   1.0000e-08
  Last MAX-Density change    ...    6.6613e-16  Tolerance :   1.0000e-07
  Last RMS-Density change    ...    1.7000e-17  Tolerance :   5.0000e-09
  Last Orbital Gradient      ...    1.0428e-06  Tolerance :   1.0000e-05
  Last Orbital Rotation      ...    2.4694e-06  Tolerance :   1.0000e-05

             **** THE GBW FILE WAS UPDATED (C1_pos.gbw) ****
             **** DENSITY C1_pos.scfp WAS UPDATED ****
             **** ENERGY FILE WAS UPDATED (C1_pos.en.tmp) ****
             **** THE GBW FILE WAS UPDATED (C1_pos.gbw) ****
             **** DENSITY C1_pos.scfp WAS UPDATED ****
----------------
ORBITAL ENERGIES
----------------

  NO   OCC          E(Eh)            E(eV) 
   0   2.0000     -14.426779      -392.5726 
   1   2.0000     -14.423049      -392.4711 
   2   2.0000     -10.323564      -280.9185 
   3   2.0000     -10.238989      -278.6171 
   4   2.0000     -10.199326      -277.5378 
   5   2.0000      -1.088848       -29.6291 
   6   2.0000      -0.994880       -27.0721 
   7   2.0000      -0.868111       -23.6225 
   8   2.0000      -0.766697       -20.8629 
   9   2.0000      -0.693584       -18.8734 
  10   2.0000      -0.645244       -17.5580 
  11   2.0000      -0.609342       -16.5810 
  12   2.0000      -0.567934       -15.4543 
  13   2.0000      -0.537954       -14.6385 
  14   2.0000      -0.502009       -13.6604 
  15   2.0000      -0.474640       -12.9156 
  16   2.0000      -0.454606       -12.3705 
  17   2.0000      -0.432793       -11.7769 
  18   2.0000      -0.370858       -10.0915 
  19   2.0000      -0.245232        -6.6731 
  20   0.0000       0.061522         1.6741 
  21   0.0000       0.090600         2.4654 
  22   0.0000       0.095615         2.6018 
  23   0.0000       0.115679         3.1478 
  24   0.0000       0.124889         3.3984 
  25   0.0000       0.135099         3.6762 
  26   0.0000       0.143492         3.9046 
  27   0.0000       0.155958         4.2438 
  28   0.0000       0.175333         4.7711 
  29   0.0000       0.189939         5.1685 
  30   0.0000       0.190828         5.1927 
  31   0.0000       0.198626         5.4049 
  32   0.0000       0.216566         5.8930 
  33   0.0000       0.221199         6.0191 
  34   0.0000       0.227268         6.1843 
  35   0.0000       0.231820         6.3081 
  36   0.0000       0.243033         6.6133 
  37   0.0000       0.257033         6.9942 
  38   0.0000       0.270235         7.3535 
  39   0.0000       0.273662         7.4467 
  40   0.0000       0.291115         7.9216 
  41   0.0000       0.298340         8.1183 
  42   0.0000       0.312625         8.5070 
  43   0.0000       0.319273         8.6879 
  44   0.0000       0.322662         8.7801 
  45   0.0000       0.326364         8.8808 
  46   0.0000       0.338468         9.2102 
  47   0.0000       0.342086         9.3086 
  48   0.0000       0.348181         9.4745 
  49   0.0000       0.356573         9.7028 
  50   0.0000       0.360513         9.8101 
  51   0.0000       0.367585        10.0025 
  52   0.0000       0.371962        10.1216 
  53   0.0000       0.385188        10.4815 
  54   0.0000       0.387524        10.5451 
  55   0.0000       0.402187        10.9441 
  56   0.0000       0.407568        11.0905 
  57   0.0000       0.425794        11.5865 
  58   0.0000       0.431387        11.7386 
  59   0.0000       0.443753        12.0751 
  60   0.0000       0.448964        12.2169 
  61   0.0000       0.454656        12.3718 
  62   0.0000       0.459537        12.5046 
  63   0.0000       0.471307        12.8249 
  64   0.0000       0.481793        13.1103 
  65   0.0000       0.485315        13.2061 
  66   0.0000       0.493900        13.4397 
  67   0.0000       0.504412        13.7258 
  68   0.0000       0.517906        14.0929 
  69   0.0000       0.519646        14.1403 
  70   0.0000       0.520962        14.1761 
  71   0.0000       0.534274        14.5383 
  72   0.0000       0.535984        14.5849 
  73   0.0000       0.548811        14.9339 
  74   0.0000       0.553731        15.0678 
  75   0.0000       0.566236        15.4081 
  76   0.0000       0.574026        15.6200 
  77   0.0000       0.578826        15.7506 
  78   0.0000       0.598346        16.2818 
  79   0.0000       0.605155        16.4671 
  80   0.0000       0.610887        16.6231 
  81   0.0000       0.614287        16.7156 
  82   0.0000       0.627066        17.0633 
  83   0.0000       0.638883        17.3849 
  84   0.0000       0.646011        17.5789 
  85   0.0000       0.668735        18.1972 
  86   0.0000       0.691007        18.8033 
  87   0.0000       0.703706        19.1488 
  88   0.0000       0.708807        19.2876 
  89   0.0000       0.727991        19.8097 
  90   0.0000       0.747242        20.3335 
  91   0.0000       0.762507        20.7489 
  92   0.0000       0.773362        21.0443 
  93   0.0000       0.776507        21.1298 
  94   0.0000       0.791431        21.5359 
  95   0.0000       0.813119        22.1261 
  96   0.0000       0.817103        22.2345 
  97   0.0000       0.826490        22.4899 
  98   0.0000       0.832626        22.6569 
  99   0.0000       0.835237        22.7280 
 100   0.0000       0.855177        23.2706 
 101   0.0000       0.860074        23.4038 
 102   0.0000       0.873642        23.7730 
 103   0.0000       0.899019        24.4636 
 104   0.0000       0.906399        24.6644 
 105   0.0000       0.915273        24.9059 
 106   0.0000       0.927123        25.2283 
 107   0.0000       0.945157        25.7190 
 108   0.0000       0.959118        26.0989 
 109   0.0000       0.973222        26.4827 
 110   0.0000       0.995143        27.0792 
 111   0.0000       1.019596        27.7446 
 112   0.0000       1.045359        28.4457 
 113   0.0000       1.062962        28.9247 
 114   0.0000       1.094148        29.7733 
 115   0.0000       1.109064        30.1792 
 116   0.0000       1.130796        30.7705 
 117   0.0000       1.186931        32.2980 
 118   0.0000       1.198325        32.6081 
 119   0.0000       1.247361        33.9424 
 120   0.0000       1.271456        34.5981 
 121   0.0000       1.274582        34.6831 
 122   0.0000       1.341828        36.5130 
 123   0.0000       1.367558        37.2131 
 124   0.0000       1.382012        37.6065 
 125   0.0000       1.443361        39.2758 
 126   0.0000       1.452248        39.5177 
 127   0.0000       1.463477        39.8232 
 128   0.0000       1.490578        40.5607 
 129   0.0000       1.531863        41.6841 
 130   0.0000       1.591048        43.2946 
 131   0.0000       1.607587        43.7447 
 132   0.0000       1.620971        44.1089 
 133   0.0000       1.674519        45.5660 
 134   0.0000       1.718329        46.7581 
 135   0.0000       1.761092        47.9217 
 136   0.0000       1.775484        48.3134 
 137   0.0000       1.814247        49.3682 
 138   0.0000       1.846198        50.2376 
 139   0.0000       1.873848        50.9900 
 140   0.0000       1.890546        51.4444 
 141   0.0000       1.899989        51.7013 
 142   0.0000       1.919859        52.2420 
 143   0.0000       1.938432        52.7474 
 144   0.0000       1.956624        53.2424 
 145   0.0000       1.965160        53.4747 
 146   0.0000       1.980211        53.8843 
 147   0.0000       1.996636        54.3312 
 148   0.0000       2.021937        55.0197 
 149   0.0000       2.047544        55.7165 
 150   0.0000       2.075042        56.4648 
 151   0.0000       2.093078        56.9555 
 152   0.0000       2.141849        58.2827 
 153   0.0000       2.177013        59.2395 
 154   0.0000       2.200716        59.8845 
 155   0.0000       2.222976        60.4903 
 156   0.0000       2.268986        61.7422 
 157   0.0000       2.303242        62.6744 
 158   0.0000       2.335718        63.5581 
 159   0.0000       2.352000        64.0012 
 160   0.0000       2.406230        65.4768 
 161   0.0000       2.417582        65.7858 
 162   0.0000       2.432384        66.1885 
 163   0.0000       2.464052        67.0503 
 164   0.0000       2.497077        67.9489 
 165   0.0000       2.524461        68.6941 
 166   0.0000       2.595732        70.6334 
 167   0.0000       2.603528        70.8456 
 168   0.0000       2.637800        71.7782 
 169   0.0000       2.651812        72.1595 
 170   0.0000       2.665442        72.5304 
 171   0.0000       2.709436        73.7275 
 172   0.0000       2.722506        74.0831 
 173   0.0000       2.752561        74.9010 
 174   0.0000       2.792129        75.9777 
 175   0.0000       2.852893        77.6312 
 176   0.0000       2.858714        77.7896 
 177   0.0000       2.891980        78.6948 
 178   0.0000       2.908173        79.1354 
 179   0.0000       2.917096        79.3782 
 180   0.0000       2.954221        80.3884 
 181   0.0000       2.975879        80.9778 
 182   0.0000       3.005619        81.7871 
 183   0.0000       3.019822        82.1735 
 184   0.0000       3.057756        83.2058 
 185   0.0000       3.066319        83.4388 
 186   0.0000       3.128881        85.1412 
 187   0.0000       3.163192        86.0748 
 188   0.0000       3.189536        86.7917 
 189   0.0000       3.228794        87.8600 
 190   0.0000       3.259129        88.6854 
 191   0.0000       3.267362        88.9094 
 192   0.0000       3.319413        90.3258 
 193   0.0000       3.322949        90.4220 
 194   0.0000       3.342186        90.9455 
 195   0.0000       3.364322        91.5479 
 196   0.0000       3.380691        91.9933 
 197   0.0000       3.435195        93.4764 
 198   0.0000       3.438995        93.5798 
 199   0.0000       3.465499        94.3010 
 200   0.0000       3.472554        94.4930 
 201   0.0000       3.509458        95.4972 
 202   0.0000       3.545400        96.4753 
 203   0.0000       3.556944        96.7894 
 204   0.0000       3.603487        98.0559 
 205   0.0000       3.642954        99.1298 
 206   0.0000       3.679611       100.1273 
 207   0.0000       3.717590       101.1608 
 208   0.0000       3.772475       102.6543 
 209   0.0000       3.799744       103.3963 
 210   0.0000       3.869563       105.2962 
 211   0.0000       3.893995       105.9610 
 212   0.0000       4.018234       109.3417 
 213   0.0000       4.046915       110.1222 
 214   0.0000       4.083268       111.1114 
 215   0.0000       4.107651       111.7749 
 216   0.0000       4.159483       113.1853 
 217   0.0000       4.252022       115.7034 
 218   0.0000       4.276993       116.3829 
 219   0.0000       4.338241       118.0495 
 220   0.0000       4.369726       118.9063 
 221   0.0000       4.410062       120.0039 
 222   0.0000       4.522991       123.0768 
 223   0.0000       4.574262       124.4720 
 224   0.0000       4.638567       126.2218 
 225   0.0000       4.681164       127.3809 
 226   0.0000       4.739747       128.9751 
 227   0.0000       4.801754       130.6624 
 228   0.0000       4.887708       133.0013 
 229   0.0000       4.922734       133.9544 
 230   0.0000       4.936044       134.3166 
 231   0.0000       4.972295       135.3030 
 232   0.0000       4.996750       135.9685 
 233   0.0000       5.003599       136.1548 
 234   0.0000       5.061868       137.7404 
 235   0.0000       5.074664       138.0886 
 236   0.0000       5.116016       139.2139 
 237   0.0000       5.139226       139.8455 
 238   0.0000       5.239301       142.5686 
 239   0.0000       5.274726       143.5326 
 240   0.0000       5.324895       144.8978 
 241   0.0000       5.367748       146.0639 
 242   0.0000       5.419502       147.4721 
 243   0.0000       5.525259       150.3500 
 244   0.0000       5.564086       151.4065 
 245   0.0000       5.604309       152.5010 
 246   0.0000       5.641937       153.5249 
 247   0.0000       5.688733       154.7983 
 248   0.0000       5.802506       157.8942 
 249   0.0000       6.093735       165.8189 
 250   0.0000       6.136038       166.9701 
 251   0.0000       6.278314       170.8416 
 252   0.0000      22.743288       618.8763 
 253   0.0000      23.043898       627.0563 
 254   0.0000      23.621260       642.7672 
 255   0.0000      32.365948       880.7222 
 256   0.0000      32.634179       888.0212 

                    ********************************
                    * MULLIKEN POPULATION ANALYSIS *
                    ********************************

-----------------------
MULLIKEN ATOMIC CHARGES
-----------------------
   0 C :   -0.940330
   1 C :   -0.669655
   2 C :    0.567565
   3 N :   -0.436557
   4 N :   -0.500846
   5 H :    0.251057
   6 H :    0.222859
   7 H :    0.353270
   8 H :    0.217442
   9 H :    0.183615
  10 H :    0.286591
  11 H :    0.216121
  12 H :    0.248868
Sum of atomic charges:   -0.0000000

--------------------------------
MULLIKEN REDUCED ORBITAL CHARGES
--------------------------------
  0 C s       :     3.411098  s :     3.411098
      pz      :     1.036018  p :     3.452032
      px      :     1.227782
      py      :     1.188232
      dz2     :     0.001198  d :     0.073852
      dxz     :     0.006720
      dyz     :     0.006677
      dx2y2   :     0.034922
      dxy     :     0.024334
      f0      :     0.000891  f :     0.003349
      f+1     :     0.000622
      f-1     :     0.000904
      f+2     :     0.000282
      f-2     :     0.000321
      f+3     :     0.000067
      f-3     :     0.000261
  1 C s       :     3.460871  s :     3.460871
      pz      :     0.880396  p :     3.207735
      px      :     0.953157
      py      :     1.374182
      dz2     :     0.010698  d :    -0.006048
      dxz     :    -0.025354
      dyz     :     0.008764
      dx2y2   :    -0.006821
      dxy     :     0.006665
      f0      :     0.001816  f :     0.007097
      f+1     :     0.001112
      f-1     :     0.001230
      f+2     :     0.001154
      f-2     :     0.000766
      f+3     :     0.000371
      f-3     :     0.000648
  2 C s       :     3.151011  s :     3.151011
      pz      :     0.607489  p :     2.047787
      px      :     0.647571
      py      :     0.792726
      dz2     :     0.048172  d :     0.214625
      dxz     :     0.022855
      dyz     :     0.064562
      dx2y2   :     0.006460
      dxy     :     0.072577
      f0      :     0.003748  f :     0.019013
      f+1     :     0.001778
      f-1     :     0.002087
      f+2     :     0.003593
      f-2     :     0.002596
      f+3     :     0.002901
      f-3     :     0.002309
  3 N s       :     3.469252  s :     3.469252
      pz      :     1.449887  p :     3.911755
      px      :     1.076306
      py      :     1.385563
      dz2     :     0.007849  d :     0.052229
      dxz     :     0.007815
      dyz     :     0.004830
      dx2y2   :     0.012298
      dxy     :     0.019438
      f0      :     0.000406  f :     0.003321
      f+1     :     0.000229
      f-1     :     0.000501
      f+2     :     0.000455
      f-2     :     0.000730
      f+3     :     0.000499
      f-3     :     0.000501
  4 N s       :     3.564148  s :     3.564148
      pz      :     1.354444  p :     3.889754
      px      :     1.198751
      py      :     1.336560
      dz2     :     0.014324  d :     0.044022
      dxz     :     0.009357
      dyz     :     0.005026
      dx2y2   :     0.005744
      dxy     :     0.009571
      f0      :     0.000613  f :     0.002922
      f+1     :     0.000088
      f-1     :     0.000484
      f+2     :     0.000478
      f-2     :     0.000728
      f+3     :     0.000074
      f-3     :     0.000457
  5 H s       :     0.701352  s :     0.701352
      pz      :     0.004953  p :     0.047590
      px      :     0.024061
      py      :     0.018577
  6 H s       :     0.726206  s :     0.726206
      pz      :     0.015418  p :     0.050935
      px      :     0.014573
      py      :     0.020944
  7 H s       :     0.604464  s :     0.604464
      pz      :     0.014658  p :     0.042266
      px      :     0.011398
      py      :     0.016210
  8 H s       :     0.752033  s :     0.752033
      pz      :     0.000660  p :     0.030525
      px      :     0.002214
      py      :     0.027651
  9 H s       :     0.766273  s :     0.766273
      pz      :     0.019920  p :     0.050112
      px      :     0.013002
      py      :     0.017190
 10 H s       :     0.656549  s :     0.656549
      pz      :     0.015129  p :     0.056860
      px      :     0.040669
      py      :     0.001062
 11 H s       :     0.704836  s :     0.704836
      pz      :     0.027909  p :     0.079043
      px      :     0.022240
      py      :     0.028894
 12 H s       :     0.671127  s :     0.671127
      pz      :     0.036515  p :     0.080005
      px      :     0.028351
      py      :     0.015139


                     *******************************
                     * LOEWDIN POPULATION ANALYSIS *
                     *******************************

----------------------
LOEWDIN ATOMIC CHARGES
----------------------
   0 C :   -0.133463
   1 C :   -0.175050
   2 C :   -0.560827
   3 N :    0.117182
   4 N :    0.104718
   5 H :    0.108206
   6 H :    0.098078
   7 H :    0.052324
   8 H :    0.104946
   9 H :    0.106524
  10 H :    0.048961
  11 H :    0.067009
  12 H :    0.061393

-------------------------------
LOEWDIN REDUCED ORBITAL CHARGES
-------------------------------
  0 C s       :     2.711688  s :     2.711688
      pz      :     0.965364  p :     2.878685
      px      :     0.951606
      py      :     0.961715
      dz2     :     0.101378  d :     0.510961
      dxz     :     0.113388
      dyz     :     0.187729
      dx2y2   :     0.067959
      dxy     :     0.040506
      f0      :     0.006999  f :     0.032128
      f+1     :     0.006196
      f-1     :     0.005962
      f+2     :     0.003309
      f-2     :     0.005201
      f+3     :     0.001394
      f-3     :     0.003068
  1 C s       :     2.661892  s :     2.661892
      pz      :     0.925835  p :     2.777273
      px      :     0.918748
      py      :     0.932691
      dz2     :     0.215772  d :     0.689452
      dxz     :     0.177917
      dyz     :     0.162937
      dx2y2   :     0.080468
      dxy     :     0.052358
      f0      :     0.010224  f :     0.046433
      f+1     :     0.009468
      f-1     :     0.007938
      f+2     :     0.007171
      f-2     :     0.006732
      f+3     :     0.001830
      f-3     :     0.003071
  2 C s       :     2.597654  s :     2.597654
      pz      :     0.887817  p :     2.525919
      px      :     0.876847
      py      :     0.761255
      dz2     :     0.287393  d :     1.317629
      dxz     :     0.319230
      dyz     :     0.218497
      dx2y2   :     0.233061
      dxy     :     0.259448
      f0      :     0.022518  f :     0.119625
      f+1     :     0.016058
      f-1     :     0.013573
      f+2     :     0.019367
      f-2     :     0.014553
      f+3     :     0.018661
      f-3     :     0.014895
  3 N s       :     2.897191  s :     2.897191
      pz      :     1.228272  p :     3.574515
      px      :     1.117759
      py      :     1.228484
      dz2     :     0.042350  d :     0.398591
      dxz     :     0.112446
      dyz     :     0.037772
      dx2y2   :     0.080398
      dxy     :     0.125625
      f0      :     0.001573  f :     0.012520
      f+1     :     0.001385
      f-1     :     0.001133
      f+2     :     0.001654
      f-2     :     0.001878
      f+3     :     0.002554
      f-3     :     0.002344
  4 N s       :     2.923271  s :     2.923271
      pz      :     1.269507  p :     3.580311
      px      :     1.106746
      py      :     1.204059
      dz2     :     0.101255  d :     0.378992
      dxz     :     0.070820
      dyz     :     0.074350
      dx2y2   :     0.041996
      dxy     :     0.090570
      f0      :     0.003230  f :     0.012708
      f+1     :     0.001115
      f-1     :     0.001783
      f+2     :     0.002010
      f-2     :     0.002160
      f+3     :     0.000581
      f-3     :     0.001828
  5 H s       :     0.626352  s :     0.626352
      pz      :     0.078366  p :     0.265442
      px      :     0.099421
      py      :     0.087655
  6 H s       :     0.632632  s :     0.632632
      pz      :     0.084653  p :     0.269291
      px      :     0.096831
      py      :     0.087807
  7 H s       :     0.705592  s :     0.705592
      pz      :     0.061197  p :     0.242084
      px      :     0.091935
      py      :     0.088952
  8 H s       :     0.615176  s :     0.615176
      pz      :     0.127367  p :     0.279878
      px      :     0.062716
      py      :     0.089795
  9 H s       :     0.634061  s :     0.634061
      pz      :     0.084876  p :     0.259415
      px      :     0.081299
      py      :     0.093239
 10 H s       :     0.704094  s :     0.704094
      pz      :     0.074159  p :     0.246945
      px      :     0.106678
      py      :     0.066109
 11 H s       :     0.712858  s :     0.712858
      pz      :     0.062816  p :     0.220134
      px      :     0.056364
      py      :     0.100954
 12 H s       :     0.714047  s :     0.714047
      pz      :     0.074179  p :     0.224561
      px      :     0.071959
      py      :     0.078422


                      *****************************
                      * MAYER POPULATION ANALYSIS *
                      *****************************

  NA   - Mulliken gross atomic population
  ZA   - Total nuclear charge
  QA   - Mulliken gross atomic charge
  VA   - Mayer's total valence
  BVA  - Mayer's bonded valence
  FA   - Mayer's free valence

  ATOM       NA         ZA         QA         VA         BVA        FA
  0 C      6.9403     6.0000    -0.9403     3.7242     3.7242    -0.0000
  1 C      6.6697     6.0000    -0.6697     3.0901     3.0901    -0.0000
  2 C      5.4324     6.0000     0.5676     3.3587     3.3587     0.0000
  3 N      7.4366     7.0000    -0.4366     3.1387     3.1387    -0.0000
  4 N      7.5008     7.0000    -0.5008     3.0562     3.0562     0.0000
  5 H      0.7489     1.0000     0.2511     0.9350     0.9350    -0.0000
  6 H      0.7771     1.0000     0.2229     0.9656     0.9656     0.0000
  7 H      0.6467     1.0000     0.3533     0.8446     0.8446    -0.0000
  8 H      0.7826     1.0000     0.2174     0.9536     0.9536    -0.0000
  9 H      0.8164     1.0000     0.1836     0.9988     0.9988    -0.0000
 10 H      0.7134     1.0000     0.2866     1.0148     1.0148    -0.0000
 11 H      0.7839     1.0000     0.2161     1.0909     1.0909    -0.0000
 12 H      0.7511     1.0000     0.2489     1.0788     1.0788    -0.0000

  Mayer bond orders larger than 0.100000
B(  0-C ,  1-C ) :   0.7284 B(  0-C , 10-H ) :   0.9467 B(  0-C , 11-H ) :   1.0002 
B(  0-C , 12-H ) :   1.0352 B(  1-C ,  2-C ) :   1.3794 B(  1-C ,  3-N ) :   0.1102 
B(  1-C ,  7-H ) :   0.9890 B(  2-C ,  3-N ) :   1.0037 B(  2-C ,  4-N ) :   1.1122 
B(  2-C ,  7-H ) :  -0.1536 B(  3-N ,  8-H ) :   0.9326 B(  3-N ,  9-H ) :   1.0109 
B(  4-N ,  5-H ) :   0.9184 B(  4-N ,  6-H ) :   0.9361 

-------
TIMINGS
-------

Total SCF time: 0 days 0 hours 0 min 22 sec 

Total time                  ....      22.981 sec
Sum of individual times     ....      22.568 sec  ( 98.2%)

Fock matrix formation       ....      21.165 sec  ( 92.1%)
  Split-RI-J                ....       1.264 sec  (  6.0% of F)
  Chain of spheres X        ....      17.541 sec  ( 82.9% of F)
  XC integration            ....       2.246 sec  ( 10.6% of F)
    Basis function eval.    ....       0.529 sec  ( 23.6% of XC)
    Density eval.           ....       0.503 sec  ( 22.4% of XC)
    XC-Functional eval.     ....       0.106 sec  (  4.7% of XC)
    XC-Potential eval.      ....       0.746 sec  ( 33.2% of XC)
Diagonalization             ....       0.159 sec  (  0.7%)
Density matrix formation    ....       0.018 sec  (  0.1%)
Population analysis         ....       0.024 sec  (  0.1%)
Initial guess               ....       0.133 sec  (  0.6%)
Orbital Transformation      ....       0.000 sec  (  0.0%)
Orbital Orthonormalization  ....       0.000 sec  (  0.0%)
DIIS solution               ....       0.085 sec  (  0.4%)
SOSCF solution              ....       0.140 sec  (  0.6%)
Grid generation             ....       0.844 sec  (  3.7%)

Maximum memory used throughout the entire SCF-calculation: 72.0 MB


-------------------------------------------------------------------------------
                          DFT DISPERSION CORRECTION                            
                                                                               
                              DFTD3 V3.1  Rev 1                                
                              USING zero damping                               
-------------------------------------------------------------------------------
The omegaB97X-D3 functional is recognized. Fit by Chai et al.
Active option DFTDOPT                   ...         3   

molecular C6(AA) [au] = 1311.681289 


            DFT-D V3
 parameters
 s6 scaling factor         :     1.0000 
 rs6 scaling factor        :     1.2810 
 s8 scaling factor         :     1.0000 
 rs8 scaling factor        :     1.0940 
 Damping factor alpha6     :    14.0000 
 Damping factor alpha8     :    16.0000 
 ad hoc parameters k1-k3   :    16.0000     1.3333    -4.0000 

 Edisp/kcal,au: -1.520453224399  -0.002422996186 
 E6   /kcal   :  -0.637359640 
 E8   /kcal   :  -0.883093585 
 % E8         :  58.080943938 

-------------------------   ----------------
Dispersion correction           -0.002422996
-------------------------   ----------------


-------------------------   --------------------
FINAL SINGLE POINT ENERGY      -228.617556905016
-------------------------   --------------------


                            ***************************************
                            *     ORCA property calculations      *
                            ***************************************

                                    ---------------------
                                    Active property flags
                                    ---------------------
   (+) Dipole Moment


------------------------------------------------------------------------------
                       ORCA ELECTRIC PROPERTIES CALCULATION
------------------------------------------------------------------------------

Dipole Moment Calculation                       ... on
Quadrupole Moment Calculation                   ... off
Polarizability Calculation                      ... off
GBWName                                         ... C1_pos.gbw
Electron density file                           ... C1_pos.scfp
The origin for moment calculation is the CENTER OF MASS  = ( 3.798521, -5.006202 -8.220475)

-------------
DIPOLE MOMENT
-------------
                                X             Y             Z
Electronic contribution:     -0.29667       0.06542      -3.43256
Nuclear contribution   :     -0.47056       0.83150       3.15332
                        -----------------------------------------
Total Dipole Moment    :     -0.76723       0.89692      -0.27924
                        -----------------------------------------
Magnitude (a.u.)       :      1.21289
Magnitude (Debye)      :      3.08291



--------------------
Rotational spectrum 
--------------------
 
Rotational constants in cm-1:     0.307275     0.134774     0.099280 
Rotational constants in MHz :  9211.860934  4040.421317  2976.324646 

 Dipole components along the rotational axes: 
x,y,z [a.u.] :    -0.615018     0.381252    -0.973391 
x,y,z [Debye]:    -1.563252     0.969065    -2.474164 

 

Timings for individual modules:

Sum of individual times         ...       24.072 sec (=   0.401 min)
GTO integral calculation        ...        0.674 sec (=   0.011 min)   2.8 %
SCF iterations                  ...       23.398 sec (=   0.390 min)  97.2 %
                             ****ORCA TERMINATED NORMALLY****
TOTAL RUN TIME: 0 days 0 hours 0 minutes 24 seconds 671 msec
