
                                        *****************
                                        * O   R   C   A *
                                        *****************

                                            #,                                       
                                            ###                                      
                                            ####                                     
                                            #####                                    
                                            ######                                   
                                           ########,                                 
                                     ,,################,,,,,                         
                               ,,#################################,,                 
                          ,,##########################################,,             
                       ,#########################################, ''#####,          
                    ,#############################################,,   '####,        
                  ,##################################################,,,,####,       
                ,###########''''           ''''###############################       
              ,#####''   ,,,,##########,,,,          '''####'''          '####       
            ,##' ,,,,###########################,,,                        '##       
           ' ,,###''''                  '''############,,,                           
         ,,##''                                '''############,,,,        ,,,,,,###''
      ,#''                                            '''#######################'''  
     '                                                          ''''####''''         
             ,#######,   #######,   ,#######,      ##                                
            ,#'     '#,  ##    ##  ,#'     '#,    #''#        ######   ,####,        
            ##       ##  ##   ,#'  ##            #'  '#       #        #'  '#        
            ##       ##  #######   ##           ,######,      #####,   #    #        
            '#,     ,#'  ##    ##  '#,     ,#' ,#      #,         ##   #,  ,#        
             '#######'   ##     ##  '#######'  #'      '#     #####' # '####'        



                  #######################################################
                  #                        -***-                        #
                  #          Department of theory and spectroscopy      #
                  #    Directorship and core code : Frank Neese         #
                  #        Max Planck Institute fuer Kohlenforschung    #
                  #                Kaiser Wilhelm Platz 1               #
                  #                 D-45470 Muelheim/Ruhr               #
                  #                      Germany                        #
                  #                                                     #
                  #                  All rights reserved                #
                  #                        -***-                        #
                  #######################################################


                         Program Version 5.0.0 -  RELEASE  -
                                (SVN: $Rev: 19529$)
                ($Date: 2021-06-28 11:36:33 +0200 (Mo, 28 Jun 2021) $)


 With contributions from (in alphabetic order):
   Daniel Aravena         : Magnetic Suceptibility
   Michael Atanasov       : Ab Initio Ligand Field Theory (pilot matlab implementation)
   Alexander A. Auer      : GIAO ZORA, VPT2 properties, NMR spectrum
   Ute Becker             : Parallelization
   Giovanni Bistoni       : ED, misc. LED, open-shell LED, HFLD
   Martin Brehm           : Molecular dynamics
   Dmytro Bykov           : SCF Hessian
   Vijay G. Chilkuri      : MRCI spin determinant printing, contributions to CSF-ICE
   Dipayan Datta          : RHF DLPNO-CCSD density
   Achintya Kumar Dutta   : EOM-CC, STEOM-CC
   Dmitry Ganyushin       : Spin-Orbit,Spin-Spin,Magnetic field MRCI
   Miquel Garcia          : C-PCM Hessian, Gaussian charge scheme
   Yang Guo               : DLPNO-NEVPT2, F12-NEVPT2, CIM, IAO-localization
   Andreas Hansen         : Spin unrestricted coupled pair/coupled cluster methods
   Benjamin Helmich-Paris : MC-RPA, TRAH-SCF, COSX integrals
   Lee Huntington         : MR-EOM, pCC
   Robert Izsak           : Overlap fitted RIJCOSX, COSX-SCS-MP3, EOM
   Marcus Kettner         : VPT2
   Christian Kollmar      : KDIIS, OOCD, Brueckner-CCSD(T), CCSD density, CASPT2, CASPT2-K
   Simone Kossmann        : Meta GGA functionals, TD-DFT gradient, OOMP2, MP2 Hessian
   Martin Krupicka        : Initial AUTO-CI
   Lucas Lang             : DCDCAS
   Marvin Lechner         : AUTO-CI (C++ implementation), FIC-MRCC
   Dagmar Lenk            : GEPOL surface, SMD
   Dimitrios Liakos       : Extrapolation schemes; Compound Job, initial MDCI parallelization
   Dimitrios Manganas     : Further ROCIS development; embedding schemes
   Dimitrios Pantazis     : SARC Basis sets
   Anastasios Papadopoulos: AUTO-CI, single reference methods and gradients
   Taras Petrenko         : DFT Hessian,TD-DFT gradient, ASA, ECA, R-Raman, ABS, FL, XAS/XES, NRVS
   Peter Pinski           : DLPNO-MP2, DLPNO-MP2 Gradient
   Christoph Reimann      : Effective Core Potentials
   Marius Retegan         : Local ZFS, SOC
   Christoph Riplinger    : Optimizer, TS searches, QM/MM, DLPNO-CCSD(T), (RO)-DLPNO pert. Triples
   Tobias Risthaus        : Range-separated hybrids, TD-DFT gradient, RPA, STAB
   Michael Roemelt        : Original ROCIS implementation
   Masaaki Saitow         : Open-shell DLPNO-CCSD energy and density
   Barbara Sandhoefer     : DKH picture change effects
   Avijit Sen             : IP-ROCIS
   Kantharuban Sivalingam : CASSCF convergence, NEVPT2, FIC-MRCI
   Bernardo de Souza      : ESD, SOC TD-DFT
   Georgi Stoychev        : AutoAux, RI-MP2 NMR
   Willem Van den Heuvel  : Paramagnetic NMR
   Boris Wezisla          : Elementary symmetry handling
   Frank Wennmohs         : Technical directorship


 We gratefully acknowledge several colleagues who have allowed us to
 interface, adapt or use parts of their codes:
   Stefan Grimme, W. Hujo, H. Kruse, P. Pracht,  : VdW corrections, initial TS optimization,
                  C. Bannwarth, S. Ehlert          DFT functionals, gCP, sTDA/sTD-DF
   Ed Valeev, F. Pavosevic, A. Kumar             : LibInt (2-el integral package), F12 methods
   Garnet Chan, S. Sharma, J. Yang, R. Olivares  : DMRG
   Ulf Ekstrom                                   : XCFun DFT Library
   Mihaly Kallay                                 : mrcc  (arbitrary order and MRCC methods)
   Jiri Pittner, Ondrej Demel                    : Mk-CCSD
   Frank Weinhold                                : gennbo (NPA and NBO analysis)
   Christopher J. Cramer and Donald G. Truhlar   : smd solvation model
   Lars Goerigk                                  : TD-DFT with DH, B97 family of functionals
   V. Asgeirsson, H. Jonsson                     : NEB implementation
   FAccTs GmbH                                   : IRC, NEB, NEB-TS, DLPNO-Multilevel, CI-OPT
                                                   MM, QMMM, 2- and 3-layer-ONIOM, Crystal-QMMM,
                                                   LR-CPCM, SF, NACMEs, symmetry and pop. for TD-DFT,
                                                   nearIR, NL-DFT gradient (VV10), updates on ESD,
                                                   ML-optimized integration grids
   S Lehtola, MJT Oliveira, MAL Marques          : LibXC Library
   Liviu Ungur et al                             : ANISO software


 Your calculation uses the libint2 library for the computation of 2-el integrals
 For citations please refer to: http://libint.valeyev.net

 Your ORCA version has been built with support for libXC version: 5.1.0
 For citations please refer to: https://tddft.org/programs/libxc/

 This ORCA versions uses:
   CBLAS   interface :  Fast vector & matrix operations
   LAPACKE interface :  Fast linear algebra routines
   SCALAPACK package :  Parallel linear algebra routines
   Shared memory     :  Shared parallel matrices
   BLAS/LAPACK       :  OpenBLAS 0.3.15  USE64BITINT DYNAMIC_ARCH NO_AFFINITY Haswell SINGLE_THREADED
        Core in use  :  Haswell
   Copyright (c) 2011-2014, The OpenBLAS Project




***************************************
The coordinates will be read from file: D2.xyz
***************************************


Your calculation utilizes the atom-pairwise dispersion correction
with the zero-damping scheme (D30)
Cite in your paper:
S.Grimme, J.Antony, S.Ehrlich and H.Krieg, J.Chem.Phys., 132, (2010), 154104 
   

XCFun DFT library Copyright 2009-2010 Ulf Ekstrom and contributors.
See http://admol.org/xcfun for more information.
This is free software; see the source code for copying conditions.
There is ABSOLUTELY NO WARRANTY; not even for MERCHANTABILITY or FITNESS FOR A PARTICULAR PURPOSE.
For details see the documentation.
Scientific users of this library should cite U. Ekstrom, L. Visscher, R. Bast, A. J. Thorvaldsen and K. Ruud;
J.Chem.Theor.Comp. 2010, DOI: 10.1021/ct100117s
XCFun Version 0.99 

================================================================================

----- Orbital basis set information -----
Your calculation utilizes the basis: def2-SVPD
   F. Weigend and R. Ahlrichs, Phys. Chem. Chem. Phys. 7, 3297 (2005).
   D. Rappoport and F. Furche, J. Chem. Phys. 133 134105 (2010).

----- AuxJ basis set information -----
Your calculation utilizes the auxiliary basis: def2/J
   F. Weigend, Phys. Chem. Chem. Phys. 8, 1057 (2006).

================================================================================
                                        WARNINGS
                       Please study these warnings very carefully!
================================================================================


INFO   : the flag for use of the SHARK integral package has been found!

================================================================================
                                       INPUT FILE
================================================================================
NAME = new_SVPD_D2_wb97.com
|  1> !wB97X-D3 RIJCOSX def2-SVPD def2/J TightSCF xyzfile                                                                                         
|  2> 
|  3> *xyzfile 0 1 D2.xyz
|  4> 
|  5> %MaxCore 64000
|  6> 
|  7> %pal nprocs 18                                                                                                                                                  
|  8> end  
|  9> 
| 10> %scf
| 11>   MaxIter 150
| 12> end
| 13> 
| 14> 
| 15>                          ****END OF INPUT****
================================================================================

                       ****************************
                       * Single Point Calculation *
                       ****************************

---------------------------------
CARTESIAN COORDINATES (ANGSTROEM)
---------------------------------
  C      1.635557   -1.670396   -5.292109
  C      0.338484   -1.500907   -4.505398
  N      2.484511   -0.507410   -5.140392
  C     -0.684873   -0.528026   -5.099889
  C     -0.290406    0.951335   -5.153423
  H      0.607991    1.070692   -5.764412
  C     -0.055168    1.619420   -3.788577
  H     -1.080912    1.483775   -5.689436
  H      0.045006    0.862302   -3.003015
  H     -0.922936    2.230329   -3.517028
  C      1.223022    2.469865   -3.756911
  H      1.114701    3.258074   -4.532999
  H      1.237732    3.011242   -2.792157
  F      2.353815    1.712032   -3.934477
  H      1.398337   -1.829239   -6.352591
  H      2.155864   -2.565398   -4.932091
  C      3.451149   -0.149530   -5.952589
  C      3.922667    1.089559   -5.850711
  N      3.966162   -1.006183   -6.867880
  H      3.521391   -1.906467   -6.995270
  H      4.444824   -0.623472   -7.670348
  H      2.251995    0.240804   -4.498792
  H      3.464277    1.640782   -5.136392
  H      4.834470    1.313745   -6.224653
  H     -0.937999   -0.869056   -6.110838
  H     -1.604638   -0.622496   -4.513132
  H      0.594887   -1.211578   -3.482312
  H     -0.126530   -2.487656   -4.434176

----------------------------
CARTESIAN COORDINATES (A.U.)
----------------------------
  NO LB      ZA    FRAG     MASS         X           Y           Z
   0 C     6.0000    0    12.011    3.090755   -3.156591  -10.000637
   1 C     6.0000    0    12.011    0.639642   -2.836304   -8.513969
   2 N     7.0000    0    14.007    4.695045   -0.958866   -9.713933
   3 C     6.0000    0    12.011   -1.294222   -0.997824   -9.637394
   4 C     6.0000    0    12.011   -0.548788    1.797763   -9.738559
   5 H     1.0000    0     1.008    1.148937    2.023315  -10.893161
   6 C     6.0000    0    12.011   -0.104252    3.060259   -7.159373
   7 H     1.0000    0     1.008   -2.042628    2.803928  -10.751477
   8 H     1.0000    0     1.008    0.085049    1.629515   -5.674875
   9 H     1.0000    0     1.008   -1.744097    4.214711   -6.646220
  10 C     6.0000    0    12.011    2.311176    4.667369   -7.099534
  11 H     1.0000    0     1.008    2.106480    6.156868   -8.566127
  12 H     1.0000    0     1.008    2.338974    5.690423   -5.276413
  13 F     9.0000    0    18.998    4.448065    3.235272   -7.435084
  14 H     1.0000    0     1.008    2.642475   -3.456761  -12.004657
  15 H     1.0000    0     1.008    4.073993   -4.847900   -9.320301
  16 C     6.0000    0    12.011    6.521727   -0.282570  -11.248764
  17 C     6.0000    0    12.011    7.412767    2.058969  -11.056241
  18 N     7.0000    0    14.007    7.494960   -1.901411  -12.978412
  19 H     1.0000    0     1.008    6.654464   -3.602700  -13.219144
  20 H     1.0000    0     1.008    8.399500   -1.178191  -14.494857
  21 H     1.0000    0     1.008    4.255654    0.455053   -8.501485
  22 H     1.0000    0     1.008    6.546536    3.100628   -9.706375
  23 H     1.0000    0     1.008    9.135824    2.482619  -11.762890
  24 H     1.0000    0     1.008   -1.772561   -1.642279  -11.547810
  25 H     1.0000    0     1.008   -3.032327   -1.176347   -8.528583
  26 H     1.0000    0     1.008    1.124173   -2.289551   -6.580616
  27 H     1.0000    0     1.008   -0.239107   -4.700989   -8.379377

--------------------------------
INTERNAL COORDINATES (ANGSTROEM)
--------------------------------
 C      0   0   0     0.000000000000     0.00000000     0.00000000
 C      1   0   0     1.526446564606     0.00000000     0.00000000
 N      1   2   0     1.447852215851   110.79649503     0.00000000
 C      2   1   3     1.532050126827   115.98355805    73.88134336
 C      4   2   1     1.531985209839   117.05035103   294.25093978
 H      5   4   2     1.093010368020   109.67131612    60.27178293
 C      5   4   2     1.537686181312   115.33587299   296.99032406
 H      5   4   2     1.093481368076   107.52852158   174.49482797
 H      7   5   4     1.095613895338   110.49711467    14.75911837
 H      7   5   4     1.095432023380   109.94643100   257.77435548
 C      7   5   4     1.535587476479   112.72226713   134.38342113
 H     11   7   5     1.111449288059   107.29161220    59.92231464
 H     11   7   5     1.106370663614   107.46061474   172.68128646
 F     11   7   5     1.372782654881   112.16331516   295.99152082
 H      1   2   3     1.098237559984   109.28005509   238.48583558
 H      1   2   3     1.096066912761   108.95054944   121.23115729
 C      3   1   2     1.312300492796   125.88136429   201.13080389
 C     17   3   1     1.329680483842   117.89920394   164.56315122
 N     17   3   1     1.355304613286   121.70234033   344.31591677
 H     19  17   3     1.012205623696   118.69874526     7.01882245
 H     19  17   3     1.009722845945   118.50832590   158.08572771
 H      3   1   2     1.012688751903   121.68392847     6.65839441
 H     18  17   3     1.012036768540   113.64200219   359.66432921
 H     18  17   3     1.010680773111   119.88584993   160.18207126
 H      4   2   1     1.096536331544   108.32744596    58.07038410
 H      4   2   1     1.095069540724   107.35765807   171.97123094
 H      2   1   3     1.093690758198   108.19667119   308.99661974
 H      2   1   3     1.093153226019   107.14667354   194.96774393

---------------------------
INTERNAL COORDINATES (A.U.)
---------------------------
 C      0   0   0     0.000000000000     0.00000000     0.00000000
 C      1   0   0     2.884565965171     0.00000000     0.00000000
 N      1   2   0     2.736044170349   110.79649503     0.00000000
 C      2   1   3     2.895155163142   115.98355805    73.88134336
 C      4   2   1     2.895032487814   117.05035103   294.25093978
 H      5   4   2     2.065490257094   109.67131612    60.27178293
 C      5   4   2     2.905805762595   115.33587299   296.99032406
 H      5   4   2     2.066380318209   107.52852158   174.49482797
 H      7   5   4     2.070410210708   110.49711467    14.75911837
 H      7   5   4     2.070066522516   109.94643100   257.77435548
 C      7   5   4     2.901839785224   112.72226713   134.38342113
 H     11   7   5     2.100334766174   107.29161220    59.92231464
 H     11   7   5     2.090737556835   107.46061474   172.68128646
 F     11   7   5     2.594183259122   112.16331516   295.99152082
 H      1   2   3     2.075368218356   109.28005509   238.48583558
 H      1   2   3     2.071266289571   108.95054944   121.23115729
 C      3   1   2     2.479888536794   125.88136429   201.13080389
 C     17   3   1     2.512731960081   117.89920394   164.56315122
 N     17   3   1     2.561154547150   121.70234033   344.31591677
 H     19  17   3     1.912791420000   118.69874526     7.01882245
 H     19  17   3     1.908099650000   118.50832590   158.08572771
 H      3   1   2     1.913704400000   121.68392847     6.65839441
 H     18  17   3     1.912472330000   113.64200219   359.66432921
 H     18  17   3     1.909909870000   119.88584993   160.18207126
 H      4   2   1     2.072153362513   108.32744596    58.07038410
 H      4   2   1     2.069381529567   107.35765807   171.97123094
 H      2   1   3     2.066776008195   108.19667119   308.99661974
 H      2   1   3     2.065760219588   107.14667354   194.96774393

---------------------
BASIS SET INFORMATION
---------------------
There are 4 groups of distinct atoms

 Group   1 Type C   : 8s4p2d contracted to 4s2p2d pattern {5111/31/11}
 Group   2 Type N   : 8s4p2d contracted to 4s2p2d pattern {5111/31/11}
 Group   3 Type H   : 4s2p contracted to 2s2p pattern {31/11}
 Group   4 Type F   : 8s5p2d contracted to 4s3p2d pattern {5111/311/11}

Atom   0C    basis set group =>   1
Atom   1C    basis set group =>   1
Atom   2N    basis set group =>   2
Atom   3C    basis set group =>   1
Atom   4C    basis set group =>   1
Atom   5H    basis set group =>   3
Atom   6C    basis set group =>   1
Atom   7H    basis set group =>   3
Atom   8H    basis set group =>   3
Atom   9H    basis set group =>   3
Atom  10C    basis set group =>   1
Atom  11H    basis set group =>   3
Atom  12H    basis set group =>   3
Atom  13F    basis set group =>   4
Atom  14H    basis set group =>   3
Atom  15H    basis set group =>   3
Atom  16C    basis set group =>   1
Atom  17C    basis set group =>   1
Atom  18N    basis set group =>   2
Atom  19H    basis set group =>   3
Atom  20H    basis set group =>   3
Atom  21H    basis set group =>   3
Atom  22H    basis set group =>   3
Atom  23H    basis set group =>   3
Atom  24H    basis set group =>   3
Atom  25H    basis set group =>   3
Atom  26H    basis set group =>   3
Atom  27H    basis set group =>   3
---------------------------------
AUXILIARY/J BASIS SET INFORMATION
---------------------------------
There are 4 groups of distinct atoms

 Group   1 Type C   : 12s5p4d2f1g contracted to 6s4p3d1f1g pattern {711111/2111/211/2/1}
 Group   2 Type N   : 12s5p4d2f1g contracted to 6s4p3d1f1g pattern {711111/2111/211/2/1}
 Group   3 Type H   : 5s2p1d contracted to 3s1p1d pattern {311/2/1}
 Group   4 Type F   : 12s5p4d2f1g contracted to 6s4p3d1f1g pattern {711111/2111/211/2/1}

Atom   0C    basis set group =>   1
Atom   1C    basis set group =>   1
Atom   2N    basis set group =>   2
Atom   3C    basis set group =>   1
Atom   4C    basis set group =>   1
Atom   5H    basis set group =>   3
Atom   6C    basis set group =>   1
Atom   7H    basis set group =>   3
Atom   8H    basis set group =>   3
Atom   9H    basis set group =>   3
Atom  10C    basis set group =>   1
Atom  11H    basis set group =>   3
Atom  12H    basis set group =>   3
Atom  13F    basis set group =>   4
Atom  14H    basis set group =>   3
Atom  15H    basis set group =>   3
Atom  16C    basis set group =>   1
Atom  17C    basis set group =>   1
Atom  18N    basis set group =>   2
Atom  19H    basis set group =>   3
Atom  20H    basis set group =>   3
Atom  21H    basis set group =>   3
Atom  22H    basis set group =>   3
Atom  23H    basis set group =>   3
Atom  24H    basis set group =>   3
Atom  25H    basis set group =>   3
Atom  26H    basis set group =>   3
Atom  27H    basis set group =>   3


           ************************************************************
           *        Program running with 18 parallel MPI-processes    *
           *              working on a common directory               *
           ************************************************************
------------------------------------------------------------------------------
                           ORCA GTO INTEGRAL CALCULATION
                           -- RI-GTO INTEGRALS CHOSEN --
------------------------------------------------------------------------------
------------------------------------------------------------------------------
                   ___                                                        
                  /   \      - P O W E R E D   B Y -                         
                 /     \                                                     
                 |  |  |   _    _      __       _____    __    __             
                 |  |  |  | |  | |    /  \     |  _  \  |  |  /  |          
                  \  \/   | |  | |   /    \    | | | |  |  | /  /          
                 / \  \   | |__| |  /  /\  \   | |_| |  |  |/  /          
                |  |  |   |  __  | /  /__\  \  |    /   |      \           
                |  |  |   | |  | | |   __   |  |    \   |  |\   \          
                \     /   | |  | | |  |  |  |  | |\  \  |  | \   \       
                 \___/    |_|  |_| |__|  |__|  |_| \__\ |__|  \__/        
                                                                              
                      - O R C A' S   B I G   F R I E N D -                    
                                      &                                       
                       - I N T E G R A L  F E E D E R -                       
                                                                              
 v1 FN, 2020, v2 2021                                                         
------------------------------------------------------------------------------


Reading SHARK input file new_SVPD_D2_wb97.SHARKINP.tmp ... ok
----------------------
SHARK INTEGRAL PACKAGE
----------------------

Number of atoms                             ...     28
Number of basis functions                   ...    359
Number of shells                            ...    157
Maximum angular momentum                    ...      2
Integral batch strategy                     ... SHARK/LIBINT Hybrid
RI-J (if used) integral strategy            ... SPLIT-RIJ (Revised 2003 algorithm where possible)
Printlevel                                  ...      1
Contraction scheme used                     ... SEGMENTED contraction
Coulomb Range Separation                    ... NOT USED
Exchange Range Separation                   ... Long Range
   Mu parameter                             ...  0.250000
   Scaling (regular/separated)              ...  0.195728  0.804272
Finite Nucleus Model                        ... NOT USED
Auxiliary Coulomb fitting basis             ... AVAILABLE
   # of basis functions in Aux-J            ...    726
   # of shells in Aux-J                     ...    250
   Maximum angular momentum in Aux-J        ...      4
Auxiliary J/K fitting basis                 ... NOT available
Auxiliary Correlation fitting basis         ... NOT available
Auxiliary 'external' fitting basis          ... NOT available
Integral threshold                          ...     2.500000e-11
Primitive cut-off                           ...     2.500000e-12
Primitive pair pre-selection threshold      ...     2.500000e-12

Calculating pre-screening integrals         ... done (  0.1 sec) Dimension = 157
Organizing shell pair data                  ... done (  0.1 sec)
Shell pair information
Total number of shell pairs                 ...     12403
Shell pairs after pre-screening             ...     11744
Total number of primitive shell pairs       ...     33347
Primitive shell pairs kept                  ...     24775
          la=0 lb=0:   2908 shell pairs
          la=1 lb=0:   4192 shell pairs
          la=1 lb=1:   1567 shell pairs
          la=2 lb=0:   1635 shell pairs
          la=2 lb=1:   1195 shell pairs
          la=2 lb=2:    247 shell pairs

Calculating one electron integrals          ... done (  0.0 sec)
Calculating RI/J V-Matrix + Cholesky decomp.... done (  0.1 sec)
Calculating Nuclear repulsion               ... done (  0.0 sec) ENN=    694.622436692108 Eh

SHARK setup successfully completed in   0.5 seconds

Maximum memory used throughout the entire GTOINT-calculation: 19.0 MB


           ************************************************************
           *        Program running with 18 parallel MPI-processes    *
           *              working on a common directory               *
           ************************************************************
-------------------------------------------------------------------------------
                                 ORCA SCF
-------------------------------------------------------------------------------

------------
SCF SETTINGS
------------
Hamiltonian:
 Density Functional     Method          .... DFT(GTOs)
 Exchange Functional    Exchange        .... WB97X-D3
 Correlation Functional Correlation     .... WB97X-D3
 Gradients option       PostSCFGGA      .... off
 Hybrid DFT is turned on
   Fraction HF Exchange ScalHFX         ....  0.195728
   Scaling of DF-GGA-X  ScalDFX         ....  0.000000
   Scaling of DF-GGA-C  ScalDFC         ....  1.000000
   Scaling of DF-LDA-C  ScalLDAC        ....  1.000000
   Perturbative correction              ....  0.000000
   Density functional embedding theory  .... OFF
 Long-range corrected/Screened/Range-Separated Hybrid DFT is turned on
   Amount of maximum screened exact exchange              ....  0.804272
   Range separation parameter mu (erf(mu*r12)/r12)        ....  0.250000
 RI-approximation to the Coulomb term is turned on
   Number of AuxJ basis functions       .... 726
   RIJ-COSX (HFX calculated with COS-X)).... on


General Settings:
 Integral files         IntName         .... new_SVPD_D2_wb97
 Hartree-Fock type      HFTyp           .... RHF
 Total Charge           Charge          ....    0
 Multiplicity           Mult            ....    1
 Number of Electrons    NEL             ....   88
 Basis Dimension        Dim             ....  359
 Nuclear Repulsion      ENuc            ....    694.6224366921 Eh

Convergence Acceleration:
 DIIS                   CNVDIIS         .... on
   Start iteration      DIISMaxIt       ....    12
   Startup error        DIISStart       ....  0.200000
   # of expansion vecs  DIISMaxEq       ....     5
   Bias factor          DIISBfac        ....   1.050
   Max. coefficient     DIISMaxC        ....  10.000
 Trust-Rad. Augm. Hess. CNVTRAH         .... auto
   Auto Start mean grad. ratio tolernc. ....  1.125000
   Auto Start start iteration           ....    20
   Auto Start num. interpolation iter.  ....    10
   Max. Number of Micro iterations      ....    16
   Max. Number of Macro iterations      .... Maxiter - #DIIS iter
   Number of Davidson start vectors     ....     2
   Converg. threshold I  (grad. norm)   ....   1.000e-05
   Converg. threshold II (energy diff.) ....   1.000e-08
   Grad. Scal. Fac. for Micro threshold ....   0.100
   Minimum threshold for Micro iter.    ....   0.010
   NR start threshold (gradient norm)   ....   0.001
   Initial trust radius                 ....   0.400
   Minimum AH scaling param. (alpha)    ....   1.000
   Maximum AH scaling param. (alpha)    .... 1000.000
   Orbital update algorithm             .... Taylor
   White noise on init. David. guess    .... on
   Maximum white noise                  ....   0.010
   Quad. conv. algorithm                .... NR
 SOSCF                  CNVSOSCF        .... on
   Start iteration      SOSCFMaxIt      ....   150
   Startup grad/error   SOSCFStart      ....  0.003300
 Level Shifting         CNVShift        .... on
   Level shift para.    LevelShift      ....    0.2500
   Turn off err/grad.   ShiftErr        ....    0.0010
 Zerner damping         CNVZerner       .... off
 Static damping         CNVDamp         .... on
   Fraction old density DampFac         ....    0.7000
   Max. Damping (<1)    DampMax         ....    0.9800
   Min. Damping (>=0)   DampMin         ....    0.0000
   Turn off err/grad.   DampErr         ....    0.1000
 Fernandez-Rico         CNVRico         .... off

SCF Procedure:
 Maximum # iterations   MaxIter         ....   150
 SCF integral mode      SCFMode         .... Direct
   Integral package                     .... SHARK and LIBINT hybrid scheme
 Reset frequency        DirectResetFreq ....    20
 Integral Threshold     Thresh          ....  2.500e-11 Eh
 Primitive CutOff       TCut            ....  2.500e-12 Eh

Convergence Tolerance:
 Convergence Check Mode ConvCheckMode   .... Total+1el-Energy
 Convergence forced     ConvForced      .... 0
 Energy Change          TolE            ....  1.000e-08 Eh
 1-El. energy change                    ....  1.000e-05 Eh
 Orbital Gradient       TolG            ....  1.000e-05
 Orbital Rotation angle TolX            ....  1.000e-05
 DIIS Error             TolErr          ....  5.000e-07


Diagonalization of the overlap matrix:
Smallest eigenvalue                        ... 1.723e-05
Time for diagonalization                   ...    0.026 sec
Threshold for overlap eigenvalues          ... 1.000e-08
Number of eigenvalues below threshold      ... 0
Time for construction of square roots      ...    0.050 sec
Total time needed                          ...    0.078 sec

Time for model grid setup =    0.163 sec

------------------------------
INITIAL GUESS: MODEL POTENTIAL
------------------------------
Loading Hartree-Fock densities                     ... done
Calculating cut-offs                               ... done
Initializing the effective Hamiltonian             ... done
Setting up the integral package (SHARK)            ... done
Starting the Coulomb interaction                   ... done (   0.1 sec)
Reading the grid                                   ... done
Mapping shells                                     ... done
Starting the XC term evaluation                    ... done (   0.1 sec)
  promolecular density results
     # of electrons  =     87.989158745
     EX              =    -69.148690157
     EC              =     -2.940939143
     EX+EC           =    -72.089629300
Transforming the Hamiltonian                       ... done (   0.0 sec)
Diagonalizing the Hamiltonian                      ... done (   0.0 sec)
Back transforming the eigenvectors                 ... done (   0.0 sec)
Now organizing SCF variables                       ... done
                      ------------------
                      INITIAL GUESS DONE (   0.5 sec)
                      ------------------
-------------------
DFT GRID GENERATION
-------------------

General Integration Accuracy     IntAcc      ... 4.388
Radial Grid Type                 RadialGrid  ... OptM3 with GC (2021)
Angular Grid (max. ang.)         AngularGrid ... 4 (Lebedev-302)
Angular grid pruning method      GridPruning ... 4 (adaptive)
Weight generation scheme         WeightScheme... Becke
Basis function cutoff            BFCut       ... 1.0000e-11
Integration weight cutoff        WCut        ... 1.0000e-14
Angular grids for H and He will be reduced by one unit
Partially contracted basis set               ... off
Rotationally invariant grid construction     ... off

Total number of grid points                  ...   122904
Total number of batches                      ...     1937
Average number of points per batch           ...       63
Average number of grid points per atom       ...     4389
Time for grid setup =    0.838 sec

--------------------
COSX GRID GENERATION
--------------------

GRIDX 1
-------
General Integration Accuracy     IntAcc      ... 3.816
Radial Grid Type                 RadialGrid  ... OptM3 with GC (2021)
Angular Grid (max. ang.)         AngularGrid ... 1 (Lebedev-50)
Angular grid pruning method      GridPruning ... 4 (adaptive)
Weight generation scheme         WeightScheme... Becke
Basis function cutoff            BFCut       ... 1.0000e-11
Integration weight cutoff        WCut        ... 1.0000e-14
Angular grids for H and He will be reduced by one unit
Partially contracted basis set               ... on
Rotationally invariant grid construction     ... off

Total number of grid points                  ...    15348
Total number of batches                      ...      256
Average number of points per batch           ...       59
Average number of grid points per atom       ...      548
UseSFitting                                  ... on

GRIDX 2
-------
General Integration Accuracy     IntAcc      ... 4.020
Radial Grid Type                 RadialGrid  ... OptM3 with GC (2021)
Angular Grid (max. ang.)         AngularGrid ... 2 (Lebedev-110)
Angular grid pruning method      GridPruning ... 4 (adaptive)
Weight generation scheme         WeightScheme... Becke
Basis function cutoff            BFCut       ... 1.0000e-11
Integration weight cutoff        WCut        ... 1.0000e-14
Angular grids for H and He will be reduced by one unit
Partially contracted basis set               ... on
Rotationally invariant grid construction     ... off

Total number of grid points                  ...    33471
Total number of batches                      ...      538
Average number of points per batch           ...       62
Average number of grid points per atom       ...     1195
UseSFitting                                  ... on

GRIDX 3
-------
General Integration Accuracy     IntAcc      ... 4.338
Radial Grid Type                 RadialGrid  ... OptM3 with GC (2021)
Angular Grid (max. ang.)         AngularGrid ... 3 (Lebedev-194)
Angular grid pruning method      GridPruning ... 4 (adaptive)
Weight generation scheme         WeightScheme... Becke
Basis function cutoff            BFCut       ... 1.0000e-11
Integration weight cutoff        WCut        ... 1.0000e-14
Angular grids for H and He will be reduced by one unit
Partially contracted basis set               ... on
Rotationally invariant grid construction     ... off

Total number of grid points                  ...    75525
Total number of batches                      ...     1195
Average number of points per batch           ...       63
Average number of grid points per atom       ...     2697
UseSFitting                                  ... on

Time for X-Grid setup             =    0.787 sec

--------------
SCF ITERATIONS
--------------
ITER       Energy         Delta-E        Max-DP      RMS-DP      [F,P]     Damp
               ***  Starting incremental Fock matrix formation  ***
  0   -523.5145503920   0.000000000000 0.25674223  0.00319714  0.2306711 0.7000
  1   -523.6580898953  -0.143539503279 0.18943467  0.00227872  0.1391789 0.7000
                               ***Turning on DIIS***
  2   -523.7330059849  -0.074916089567 0.42636986  0.00484911  0.0712766 0.0000
  3   -523.8525417816  -0.119535796728 0.13972901  0.00173475  0.0574969 0.0000
  4   -523.8710368468  -0.018495065230 0.03022569  0.00036177  0.0089034 0.0000
                      *** Initiating the SOSCF procedure ***
                           *** Shutting down DIIS ***
                      *** Re-Reading the Fockian *** 
                      *** Removing any level shift *** 
ITER      Energy       Delta-E        Grad      Rot      Max-DP    RMS-DP
  5   -523.87145892  -0.0004220750  0.000866  0.000866  0.011728  0.000129
               *** Restarting incremental Fock matrix formation ***
  6   -523.87144655   0.0000123726  0.000372  0.000950  0.009935  0.000139
  7   -523.87146098  -0.0000144277  0.000320  0.001163  0.006769  0.000083
  8   -523.87146584  -0.0000048668  0.000048  0.000076  0.002823  0.000031
  9   -523.87146620  -0.0000003567  0.000027  0.000038  0.000737  0.000009
 10   -523.87146629  -0.0000000907  0.000013  0.000042  0.000603  0.000006
                  ***Gradient check signals convergence***
              ***Rediagonalizing the Fockian in SOSCF/NRSCF***

               *****************************************************
               *                     SUCCESS                       *
               *           SCF CONVERGED AFTER  11 CYCLES          *
               *****************************************************

Old exchange energy                            =    -23.303411697 Eh
New exchange energy                            =    -23.303395500 Eh
Exchange energy change after final integration =      0.000016197 Eh
Total energy after final integration           =   -523.871450096 Eh
Final COS-X integration done in                =     7.809 sec

----------------
TOTAL SCF ENERGY
----------------

Total Energy       :         -523.87145010 Eh          -14255.26688 eV

Components:
Nuclear Repulsion  :          694.62243669 Eh           18901.63744 eV
Electronic Energy  :        -1218.49388679 Eh          -33156.90432 eV
One Electron Energy:        -2089.96213296 Eh          -56870.76089 eV
Two Electron Energy:          871.46824617 Eh           23713.85657 eV
Max COSX asymmetry :            0.00001191 Eh               0.00032 eV

Virial components:
Potential Energy   :        -1042.62798708 Eh          -28371.34990 eV
Kinetic Energy     :          518.75653698 Eh           14116.08302 eV
Virial Ratio       :            2.00985995


DFT components:
N(Alpha)           :       44.000110502075 electrons
N(Beta)            :       44.000110502075 electrons
N(Total)           :       88.000221004150 electrons
E(XC)              :      -50.752688119123 Eh       
DFET-embed. en.    :        0.000000000000 Eh       

---------------
SCF CONVERGENCE
---------------

  Last Energy change         ...   -1.4263e-09  Tolerance :   1.0000e-08
  Last MAX-Density change    ...    6.2172e-15  Tolerance :   1.0000e-07
  Last RMS-Density change    ...    4.2051e-17  Tolerance :   5.0000e-09
  Last Orbital Gradient      ...    1.7784e-06  Tolerance :   1.0000e-05
  Last Orbital Rotation      ...    9.5322e-06  Tolerance :   1.0000e-05

             **** THE GBW FILE WAS UPDATED (new_SVPD_D2_wb97.gbw) ****
             **** DENSITY new_SVPD_D2_wb97.scfp WAS UPDATED ****
             **** ENERGY FILE WAS UPDATED (new_SVPD_D2_wb97.en.tmp) ****
             **** THE GBW FILE WAS UPDATED (new_SVPD_D2_wb97.gbw) ****
             **** DENSITY new_SVPD_D2_wb97.scfp WAS UPDATED ****
----------------
ORBITAL ENERGIES
----------------

  NO   OCC          E(Eh)            E(eV) 
   0   2.0000     -24.818583      -675.3480 
   1   2.0000     -14.422375      -392.4528 
   2   2.0000     -14.408996      -392.0887 
   3   2.0000     -10.382906      -282.5332 
   4   2.0000     -10.319205      -280.7998 
   5   2.0000     -10.316359      -280.7224 
   6   2.0000     -10.305693      -280.4322 
   7   2.0000     -10.294279      -280.1216 
   8   2.0000     -10.293967      -280.1131 
   9   2.0000     -10.291981      -280.0590 
  10   2.0000     -10.170924      -276.7649 
  11   2.0000      -1.336471       -36.3672 
  12   2.0000      -1.063007       -28.9259 
  13   2.0000      -0.977166       -26.5900 
  14   2.0000      -0.931046       -25.3350 
  15   2.0000      -0.887982       -24.1632 
  16   2.0000      -0.847673       -23.0663 
  17   2.0000      -0.793572       -21.5942 
  18   2.0000      -0.759330       -20.6624 
  19   2.0000      -0.729217       -19.8430 
  20   2.0000      -0.690438       -18.7878 
  21   2.0000      -0.673335       -18.3224 
  22   2.0000      -0.650070       -17.6893 
  23   2.0000      -0.622877       -16.9493 
  24   2.0000      -0.614513       -16.7217 
  25   2.0000      -0.608029       -16.5453 
  26   2.0000      -0.588137       -16.0040 
  27   2.0000      -0.576392       -15.6844 
  28   2.0000      -0.551627       -15.0105 
  29   2.0000      -0.542230       -14.7548 
  30   2.0000      -0.523491       -14.2449 
  31   2.0000      -0.510968       -13.9041 
  32   2.0000      -0.498429       -13.5629 
  33   2.0000      -0.480075       -13.0635 
  34   2.0000      -0.467213       -12.7135 
  35   2.0000      -0.460530       -12.5316 
  36   2.0000      -0.449810       -12.2399 
  37   2.0000      -0.444563       -12.0972 
  38   2.0000      -0.427722       -11.6389 
  39   2.0000      -0.418103       -11.3772 
  40   2.0000      -0.416732       -11.3398 
  41   2.0000      -0.413049       -11.2396 
  42   2.0000      -0.334127        -9.0921 
  43   2.0000      -0.230353        -6.2682 
  44   0.0000       0.085846         2.3360 
  45   0.0000       0.096003         2.6124 
  46   0.0000       0.105126         2.8606 
  47   0.0000       0.109420         2.9775 
  48   0.0000       0.127998         3.4830 
  49   0.0000       0.130835         3.5602 
  50   0.0000       0.139202         3.7879 
  51   0.0000       0.143333         3.9003 
  52   0.0000       0.150349         4.0912 
  53   0.0000       0.161709         4.4003 
  54   0.0000       0.169405         4.6098 
  55   0.0000       0.170064         4.6277 
  56   0.0000       0.173385         4.7180 
  57   0.0000       0.183833         5.0023 
  58   0.0000       0.189021         5.1435 
  59   0.0000       0.196298         5.3415 
  60   0.0000       0.208102         5.6628 
  61   0.0000       0.214834         5.8459 
  62   0.0000       0.219564         5.9746 
  63   0.0000       0.226162         6.1542 
  64   0.0000       0.233627         6.3573 
  65   0.0000       0.242363         6.5950 
  66   0.0000       0.247776         6.7423 
  67   0.0000       0.252540         6.8720 
  68   0.0000       0.254862         6.9351 
  69   0.0000       0.260874         7.0987 
  70   0.0000       0.269479         7.3329 
  71   0.0000       0.273936         7.4542 
  72   0.0000       0.283338         7.7100 
  73   0.0000       0.284697         7.7470 
  74   0.0000       0.293776         7.9941 
  75   0.0000       0.303266         8.2523 
  76   0.0000       0.309982         8.4350 
  77   0.0000       0.315349         8.5811 
  78   0.0000       0.319439         8.6924 
  79   0.0000       0.329056         8.9541 
  80   0.0000       0.334531         9.1030 
  81   0.0000       0.339003         9.2247 
  82   0.0000       0.341034         9.2800 
  83   0.0000       0.351651         9.5689 
  84   0.0000       0.353830         9.6282 
  85   0.0000       0.357968         9.7408 
  86   0.0000       0.359682         9.7875 
  87   0.0000       0.368404        10.0248 
  88   0.0000       0.371088        10.0978 
  89   0.0000       0.378403        10.2969 
  90   0.0000       0.382489        10.4080 
  91   0.0000       0.387340        10.5400 
  92   0.0000       0.392750        10.6873 
  93   0.0000       0.399384        10.8678 
  94   0.0000       0.400729        10.9044 
  95   0.0000       0.412705        11.2303 
  96   0.0000       0.417637        11.3645 
  97   0.0000       0.419343        11.4109 
  98   0.0000       0.422614        11.4999 
  99   0.0000       0.425156        11.5691 
 100   0.0000       0.431987        11.7550 
 101   0.0000       0.434810        11.8318 
 102   0.0000       0.437905        11.9160 
 103   0.0000       0.439946        11.9715 
 104   0.0000       0.447313        12.1720 
 105   0.0000       0.453272        12.3342 
 106   0.0000       0.458480        12.4759 
 107   0.0000       0.459770        12.5110 
 108   0.0000       0.466160        12.6849 
 109   0.0000       0.467923        12.7328 
 110   0.0000       0.474852        12.9214 
 111   0.0000       0.479637        13.0516 
 112   0.0000       0.484197        13.1757 
 113   0.0000       0.488115        13.2823 
 114   0.0000       0.488214        13.2850 
 115   0.0000       0.500924        13.6308 
 116   0.0000       0.507730        13.8160 
 117   0.0000       0.514803        14.0085 
 118   0.0000       0.518590        14.1116 
 119   0.0000       0.521523        14.1914 
 120   0.0000       0.525329        14.2949 
 121   0.0000       0.532260        14.4835 
 122   0.0000       0.538235        14.6461 
 123   0.0000       0.541891        14.7456 
 124   0.0000       0.543126        14.7792 
 125   0.0000       0.549212        14.9448 
 126   0.0000       0.557192        15.1620 
 127   0.0000       0.561813        15.2877 
 128   0.0000       0.563960        15.3461 
 129   0.0000       0.567753        15.4493 
 130   0.0000       0.572856        15.5882 
 131   0.0000       0.578030        15.7290 
 132   0.0000       0.581086        15.8122 
 133   0.0000       0.583779        15.8854 
 134   0.0000       0.592323        16.1179 
 135   0.0000       0.594530        16.1780 
 136   0.0000       0.599467        16.3123 
 137   0.0000       0.606227        16.4963 
 138   0.0000       0.617373        16.7996 
 139   0.0000       0.618366        16.8266 
 140   0.0000       0.624932        17.0053 
 141   0.0000       0.627018        17.0620 
 142   0.0000       0.635657        17.2971 
 143   0.0000       0.637339        17.3429 
 144   0.0000       0.643773        17.5179 
 145   0.0000       0.647258        17.6128 
 146   0.0000       0.655376        17.8337 
 147   0.0000       0.662140        18.0178 
 148   0.0000       0.667468        18.1627 
 149   0.0000       0.672433        18.2978 
 150   0.0000       0.674451        18.3528 
 151   0.0000       0.676758        18.4155 
 152   0.0000       0.681808        18.5529 
 153   0.0000       0.695794        18.9335 
 154   0.0000       0.701589        19.0912 
 155   0.0000       0.707287        19.2463 
 156   0.0000       0.721160        19.6238 
 157   0.0000       0.721307        19.6278 
 158   0.0000       0.726511        19.7694 
 159   0.0000       0.731066        19.8933 
 160   0.0000       0.740931        20.1618 
 161   0.0000       0.752776        20.4841 
 162   0.0000       0.758008        20.6264 
 163   0.0000       0.767165        20.8756 
 164   0.0000       0.771256        20.9869 
 165   0.0000       0.778162        21.1749 
 166   0.0000       0.782855        21.3026 
 167   0.0000       0.789657        21.4876 
 168   0.0000       0.800020        21.7697 
 169   0.0000       0.806992        21.9594 
 170   0.0000       0.814313        22.1586 
 171   0.0000       0.815456        22.1897 
 172   0.0000       0.824071        22.4241 
 173   0.0000       0.831935        22.6381 
 174   0.0000       0.843785        22.9606 
 175   0.0000       0.849488        23.1157 
 176   0.0000       0.861467        23.4417 
 177   0.0000       0.871872        23.7248 
 178   0.0000       0.884486        24.0681 
 179   0.0000       0.900782        24.5115 
 180   0.0000       0.910893        24.7867 
 181   0.0000       0.924154        25.1475 
 182   0.0000       0.925360        25.1803 
 183   0.0000       0.928063        25.2539 
 184   0.0000       0.944315        25.6961 
 185   0.0000       0.961124        26.1535 
 186   0.0000       0.964523        26.2460 
 187   0.0000       0.987430        26.8693 
 188   0.0000       1.005521        27.3616 
 189   0.0000       1.019705        27.7476 
 190   0.0000       1.030389        28.0383 
 191   0.0000       1.048814        28.5397 
 192   0.0000       1.057098        28.7651 
 193   0.0000       1.072015        29.1710 
 194   0.0000       1.078519        29.3480 
 195   0.0000       1.086997        29.5787 
 196   0.0000       1.091437        29.6995 
 197   0.0000       1.101517        29.9738 
 198   0.0000       1.115938        30.3662 
 199   0.0000       1.120338        30.4859 
 200   0.0000       1.124647        30.6032 
 201   0.0000       1.129525        30.7359 
 202   0.0000       1.137185        30.9444 
 203   0.0000       1.158791        31.5323 
 204   0.0000       1.166948        31.7543 
 205   0.0000       1.170822        31.8597 
 206   0.0000       1.184460        32.2308 
 207   0.0000       1.190809        32.4036 
 208   0.0000       1.194283        32.4981 
 209   0.0000       1.204699        32.7815 
 210   0.0000       1.209781        32.9198 
 211   0.0000       1.229252        33.4496 
 212   0.0000       1.230185        33.4750 
 213   0.0000       1.239000        33.7149 
 214   0.0000       1.257958        34.2308 
 215   0.0000       1.263043        34.3692 
 216   0.0000       1.271555        34.6008 
 217   0.0000       1.286031        34.9947 
 218   0.0000       1.295243        35.2454 
 219   0.0000       1.309835        35.6424 
 220   0.0000       1.334641        36.3174 
 221   0.0000       1.346456        36.6389 
 222   0.0000       1.364235        37.1227 
 223   0.0000       1.371522        37.3210 
 224   0.0000       1.390812        37.8459 
 225   0.0000       1.397303        38.0225 
 226   0.0000       1.405942        38.2576 
 227   0.0000       1.412463        38.4351 
 228   0.0000       1.435410        39.0595 
 229   0.0000       1.446185        39.3527 
 230   0.0000       1.456411        39.6310 
 231   0.0000       1.466007        39.8921 
 232   0.0000       1.501117        40.8475 
 233   0.0000       1.521420        41.3999 
 234   0.0000       1.531205        41.6662 
 235   0.0000       1.552677        42.2505 
 236   0.0000       1.588398        43.2225 
 237   0.0000       1.609300        43.7913 
 238   0.0000       1.616929        43.9989 
 239   0.0000       1.636796        44.5395 
 240   0.0000       1.663933        45.2779 
 241   0.0000       1.674802        45.5737 
 242   0.0000       1.711925        46.5838 
 243   0.0000       1.722927        46.8832 
 244   0.0000       1.743355        47.4391 
 245   0.0000       1.757037        47.8114 
 246   0.0000       1.767177        48.0873 
 247   0.0000       1.777016        48.3551 
 248   0.0000       1.783089        48.5203 
 249   0.0000       1.804378        49.0996 
 250   0.0000       1.806503        49.1575 
 251   0.0000       1.823901        49.6309 
 252   0.0000       1.837247        49.9940 
 253   0.0000       1.856967        50.5306 
 254   0.0000       1.871044        50.9137 
 255   0.0000       1.888456        51.3875 
 256   0.0000       1.901522        51.7430 
 257   0.0000       1.912321        52.0369 
 258   0.0000       1.914861        52.1060 
 259   0.0000       1.920976        52.2724 
 260   0.0000       1.955892        53.2225 
 261   0.0000       1.970868        53.6300 
 262   0.0000       1.993172        54.2370 
 263   0.0000       2.009336        54.6768 
 264   0.0000       2.018094        54.9151 
 265   0.0000       2.021382        55.0046 
 266   0.0000       2.040810        55.5333 
 267   0.0000       2.043043        55.5940 
 268   0.0000       2.061314        56.0912 
 269   0.0000       2.062928        56.1351 
 270   0.0000       2.067851        56.2691 
 271   0.0000       2.094795        57.0023 
 272   0.0000       2.098129        57.0930 
 273   0.0000       2.109233        57.3952 
 274   0.0000       2.116832        57.6019 
 275   0.0000       2.128001        57.9058 
 276   0.0000       2.128153        57.9100 
 277   0.0000       2.149388        58.4878 
 278   0.0000       2.165471        58.9255 
 279   0.0000       2.171036        59.0769 
 280   0.0000       2.187309        59.5197 
 281   0.0000       2.188752        59.5590 
 282   0.0000       2.192130        59.6509 
 283   0.0000       2.214535        60.2605 
 284   0.0000       2.223597        60.5071 
 285   0.0000       2.234375        60.8004 
 286   0.0000       2.242195        61.0132 
 287   0.0000       2.247407        61.1551 
 288   0.0000       2.260496        61.5112 
 289   0.0000       2.278305        61.9958 
 290   0.0000       2.292918        62.3935 
 291   0.0000       2.314909        62.9919 
 292   0.0000       2.316164        63.0260 
 293   0.0000       2.329082        63.3775 
 294   0.0000       2.354073        64.0576 
 295   0.0000       2.363730        64.3204 
 296   0.0000       2.372215        64.5512 
 297   0.0000       2.385716        64.9186 
 298   0.0000       2.409223        65.5583 
 299   0.0000       2.426503        66.0285 
 300   0.0000       2.446226        66.5652 
 301   0.0000       2.475369        67.3582 
 302   0.0000       2.487471        67.6875 
 303   0.0000       2.499918        68.0262 
 304   0.0000       2.521304        68.6082 
 305   0.0000       2.535444        68.9929 
 306   0.0000       2.549770        69.3828 
 307   0.0000       2.567247        69.8584 
 308   0.0000       2.581086        70.2349 
 309   0.0000       2.597303        70.6762 
 310   0.0000       2.614363        71.1404 
 311   0.0000       2.628352        71.5211 
 312   0.0000       2.653206        72.1974 
 313   0.0000       2.663439        72.4759 
 314   0.0000       2.668052        72.6014 
 315   0.0000       2.683001        73.0082 
 316   0.0000       2.708926        73.7136 
 317   0.0000       2.722334        74.0785 
 318   0.0000       2.731959        74.3404 
 319   0.0000       2.734869        74.4196 
 320   0.0000       2.751621        74.8754 
 321   0.0000       2.774584        75.5003 
 322   0.0000       2.781147        75.6789 
 323   0.0000       2.813096        76.5482 
 324   0.0000       2.826116        76.9025 
 325   0.0000       2.866757        78.0084 
 326   0.0000       2.882526        78.4375 
 327   0.0000       2.896593        78.8203 
 328   0.0000       2.906912        79.1011 
 329   0.0000       2.934418        79.8496 
 330   0.0000       2.984792        81.2203 
 331   0.0000       2.994363        81.4808 
 332   0.0000       3.028837        82.4188 
 333   0.0000       3.051632        83.0391 
 334   0.0000       3.085486        83.9603 
 335   0.0000       3.129153        85.1486 
 336   0.0000       3.169403        86.2438 
 337   0.0000       3.171986        86.3141 
 338   0.0000       3.212502        87.4166 
 339   0.0000       3.229105        87.8684 
 340   0.0000       3.248814        88.4047 
 341   0.0000       3.271971        89.0348 
 342   0.0000       3.282776        89.3289 
 343   0.0000       3.308773        90.0363 
 344   0.0000       3.314670        90.1968 
 345   0.0000       3.363416        91.5232 
 346   0.0000       3.385964        92.1368 
 347   0.0000       3.396182        92.4148 
 348   0.0000       3.439265        93.5872 
 349   0.0000       3.453190        93.9661 
 350   0.0000       3.531045        96.0846 
 351   0.0000       3.573683        97.2448 
 352   0.0000       3.637577        98.9835 
 353   0.0000       3.666101        99.7597 
 354   0.0000       3.749904       102.0401 
 355   0.0000       3.794984       103.2668 
 356   0.0000       3.874864       105.4404 
 357   0.0000       3.970501       108.0428 
 358   0.0000       4.092829       111.3715 

                    ********************************
                    * MULLIKEN POPULATION ANALYSIS *
                    ********************************

-----------------------
MULLIKEN ATOMIC CHARGES
-----------------------
   0 C :    0.662512
   1 C :    0.130129
   2 N :   -0.130051
   3 C :    0.178752
   4 C :    0.048179
   5 H :    0.111423
   6 C :   -0.051928
   7 H :   -0.260657
   8 H :   -0.046215
   9 H :   -0.135163
  10 C :    0.934560
  11 H :   -0.034030
  12 H :   -0.045596
  13 F :   -0.799590
  14 H :   -0.031151
  15 H :   -0.221253
  16 C :    0.657222
  17 C :    0.690826
  18 N :   -0.060887
  19 H :   -0.071594
  20 H :   -0.061575
  21 H :   -0.459932
  22 H :   -0.270803
  23 H :   -0.571623
  24 H :    0.103528
  25 H :   -0.104264
  26 H :   -0.010478
  27 H :   -0.150337
Sum of atomic charges:    0.0000000

--------------------------------
MULLIKEN REDUCED ORBITAL CHARGES
--------------------------------
  0 C s       :     2.723708  s :     2.723708
      pz      :     0.872588  p :     2.484163
      px      :     0.807282
      py      :     0.804293
      dz2     :     0.035104  d :     0.129617
      dxz     :     0.066778
      dyz     :    -0.032519
      dx2y2   :    -0.029713
      dxy     :     0.089967
  1 C s       :     2.584658  s :     2.584658
      pz      :     1.019090  p :     2.804103
      px      :     0.930683
      py      :     0.854331
      dz2     :     0.180922  d :     0.481111
      dxz     :     0.046377
      dyz     :     0.007807
      dx2y2   :     0.117922
      dxy     :     0.128083
  2 N s       :     3.139739  s :     3.139739
      pz      :     1.297737  p :     3.721494
      px      :     1.256643
      py      :     1.167114
      dz2     :     0.053262  d :     0.268819
      dxz     :     0.038983
      dyz     :     0.020583
      dx2y2   :     0.083289
      dxy     :     0.072701
  3 C s       :     2.636391  s :     2.636391
      pz      :     0.854599  p :     2.741550
      px      :     0.953471
      py      :     0.933480
      dz2     :     0.060129  d :     0.443307
      dxz     :     0.087450
      dyz     :     0.099500
      dx2y2   :     0.152331
      dxy     :     0.043897
  4 C s       :     2.692230  s :     2.692230
      pz      :     0.974939  p :     2.784375
      px      :     0.887357
      py      :     0.922080
      dz2     :     0.070621  d :     0.475216
      dxz     :     0.053967
      dyz     :     0.169035
      dx2y2   :     0.013260
      dxy     :     0.168333
  5 H s       :     0.862316  s :     0.862316
      pz      :     0.055534  p :     0.026261
      px      :    -0.019176
      py      :    -0.010097
  6 C s       :     2.813422  s :     2.813422
      pz      :     1.052969  p :     2.878528
      px      :     0.885602
      py      :     0.939957
      dz2     :     0.050020  d :     0.359978
      dxz     :     0.154421
      dyz     :     0.077221
      dx2y2   :     0.068217
      dxy     :     0.010099
  7 H s       :     1.250291  s :     1.250291
      pz      :    -0.002443  p :     0.010366
      px      :     0.002170
      py      :     0.010638
  8 H s       :     1.025051  s :     1.025051
      pz      :     0.041770  p :     0.021164
      px      :    -0.043700
      py      :     0.023094
  9 H s       :     1.115615  s :     1.115615
      pz      :    -0.001735  p :     0.019547
      px      :     0.035193
      py      :    -0.013911
 10 C s       :     2.553956  s :     2.553956
      pz      :     0.817263  p :     2.335485
      px      :     0.687259
      py      :     0.830963
      dz2     :     0.003219  d :     0.175999
      dxz     :     0.039178
      dyz     :     0.034031
      dx2y2   :     0.081690
      dxy     :     0.017881
 11 H s       :     1.016359  s :     1.016359
      pz      :    -0.001120  p :     0.017671
      px      :    -0.008127
      py      :     0.026918
 12 H s       :     1.054969  s :     1.054969
      pz      :     0.016282  p :    -0.009373
      px      :    -0.019627
      py      :    -0.006029
 13 F s       :     4.286154  s :     4.286154
      pz      :     1.972440  p :     5.454837
      px      :     1.688491
      py      :     1.793906
      dz2     :     0.005159  d :     0.058600
      dxz     :     0.012226
      dyz     :     0.012701
      dx2y2   :     0.011671
      dxy     :     0.016842
 14 H s       :     1.015960  s :     1.015960
      pz      :     0.061744  p :     0.015190
      px      :    -0.040645
      py      :    -0.005908
 15 H s       :     1.199741  s :     1.199741
      pz      :    -0.038322  p :     0.021513
      px      :     0.021449
      py      :     0.038386
 16 C s       :     2.773654  s :     2.773654
      pz      :     0.743311  p :     2.334591
      px      :     0.894819
      py      :     0.696461
      dz2     :     0.017227  d :     0.234534
      dxz     :    -0.031210
      dyz     :     0.111444
      dx2y2   :     0.002089
      dxy     :     0.134984
 17 C s       :     2.531648  s :     2.531648
      pz      :     0.866899  p :     2.635153
      px      :     0.697296
      py      :     1.070959
      dz2     :     0.008837  d :     0.142373
      dxz     :     0.017891
      dyz     :     0.055168
      dx2y2   :     0.047169
      dxy     :     0.013309
 18 N s       :     3.354510  s :     3.354510
      pz      :     1.200339  p :     3.713597
      px      :     1.435430
      py      :     1.077828
      dz2     :    -0.000358  d :    -0.007220
      dxz     :     0.000541
      dyz     :    -0.009104
      dx2y2   :     0.008473
      dxy     :    -0.006773
 19 H s       :     1.046642  s :     1.046642
      pz      :     0.019672  p :     0.024952
      px      :    -0.000525
      py      :     0.005805
 20 H s       :     1.015912  s :     1.015912
      pz      :     0.015645  p :     0.045663
      px      :     0.048392
      py      :    -0.018373
 21 H s       :     1.491169  s :     1.491169
      pz      :     0.101386  p :    -0.031236
      px      :    -0.086661
      py      :    -0.045961
 22 H s       :     1.219474  s :     1.219474
      pz      :    -0.015544  p :     0.051330
      px      :     0.039293
      py      :     0.027581
 23 H s       :     1.514953  s :     1.514953
      pz      :    -0.003360  p :     0.056669
      px      :     0.049469
      py      :     0.010560
 24 H s       :     0.905777  s :     0.905777
      pz      :     0.021091  p :    -0.009305
      px      :    -0.019724
      py      :    -0.010672
 25 H s       :     1.099046  s :     1.099046
      pz      :    -0.021070  p :     0.005218
      px      :     0.047874
      py      :    -0.021586
 26 H s       :     0.986394  s :     0.986394
      pz      :     0.044872  p :     0.024084
      px      :    -0.009990
      py      :    -0.010798
 27 H s       :     1.139132  s :     1.139132
      pz      :    -0.018059  p :     0.011206
      px      :    -0.020846
      py      :     0.050110


                     *******************************
                     * LOEWDIN POPULATION ANALYSIS *
                     *******************************

----------------------
LOEWDIN ATOMIC CHARGES
----------------------
   0 C :    0.045032
   1 C :   -0.025534
   2 N :   -0.004261
   3 C :   -0.027539
   4 C :   -0.021686
   5 H :    0.011706
   6 C :   -0.003474
   7 H :    0.020587
   8 H :    0.015506
   9 H :    0.030766
  10 C :    0.163143
  11 H :    0.050791
  12 H :    0.038743
  13 F :   -0.221966
  14 H :    0.020875
  15 H :    0.019037
  16 C :   -0.208102
  17 C :    0.156160
  18 N :    0.191652
  19 H :   -0.028823
  20 H :    0.002509
  21 H :   -0.058178
  22 H :   -0.153812
  23 H :   -0.097955
  24 H :    0.025134
  25 H :    0.022439
  26 H :    0.014729
  27 H :    0.022521

-------------------------------
LOEWDIN REDUCED ORBITAL CHARGES
-------------------------------
  0 C s       :     2.663594  s :     2.663594
      pz      :     0.898351  p :     2.594190
      px      :     0.856120
      py      :     0.839719
      dz2     :     0.143823  d :     0.697184
      dxz     :     0.128178
      dyz     :     0.093805
      dx2y2   :     0.153512
      dxy     :     0.177866
  1 C s       :     2.683007  s :     2.683007
      pz      :     0.907682  p :     2.690148
      px      :     0.885622
      py      :     0.896843
      dz2     :     0.161662  d :     0.652380
      dxz     :     0.132413
      dyz     :     0.065760
      dx2y2   :     0.136181
      dxy     :     0.156364
  2 N s       :     2.880068  s :     2.880068
      pz      :     1.203872  p :     3.490666
      px      :     1.175998
      py      :     1.110797
      dz2     :     0.097906  d :     0.633526
      dxz     :     0.105730
      dyz     :     0.127891
      dx2y2   :     0.155426
      dxy     :     0.146574
  3 C s       :     2.683812  s :     2.683812
      pz      :     0.906866  p :     2.689977
      px      :     0.896000
      py      :     0.887112
      dz2     :     0.100858  d :     0.653750
      dxz     :     0.104649
      dyz     :     0.132802
      dx2y2   :     0.172113
      dxy     :     0.143327
  4 C s       :     2.677730  s :     2.677730
      pz      :     0.892110  p :     2.689950
      px      :     0.911546
      py      :     0.886294
      dz2     :     0.116748  d :     0.654007
      dxz     :     0.127452
      dyz     :     0.172057
      dx2y2   :     0.102835
      dxy     :     0.134915
  5 H s       :     0.703991  s :     0.703991
      pz      :     0.083451  p :     0.284303
      px      :     0.128709
      py      :     0.072142
  6 C s       :     2.687141  s :     2.687141
      pz      :     0.912312  p :     2.696825
      px      :     0.886781
      py      :     0.897731
      dz2     :     0.129269  d :     0.619509
      dxz     :     0.134710
      dyz     :     0.152600
      dx2y2   :     0.072934
      dxy     :     0.129996
  7 H s       :     0.731461  s :     0.731461
      pz      :     0.075824  p :     0.247952
      px      :     0.096803
      py      :     0.075325
  8 H s       :     0.715384  s :     0.715384
      pz      :     0.088101  p :     0.269110
      px      :     0.067313
      py      :     0.113696
  9 H s       :     0.727237  s :     0.727237
      pz      :     0.068305  p :     0.241997
      px      :     0.093659
      py      :     0.080033
 10 C s       :     2.667652  s :     2.667652
      pz      :     0.915773  p :     2.478971
      px      :     0.730687
      py      :     0.832511
      dz2     :     0.085674  d :     0.690234
      dxz     :     0.103342
      dyz     :     0.152812
      dx2y2   :     0.177826
      dxy     :     0.170582
 11 H s       :     0.727018  s :     0.727018
      pz      :     0.099781  p :     0.222191
      px      :     0.042929
      py      :     0.079481
 12 H s       :     0.735281  s :     0.735281
      pz      :     0.114675  p :     0.225975
      px      :     0.045314
      py      :     0.065987
 13 F s       :     3.592530  s :     3.592530
      pz      :     1.875976  p :     5.294505
      px      :     1.663418
      py      :     1.755110
      dz2     :     0.034307  d :     0.334931
      dxz     :     0.086824
      dyz     :     0.048148
      dx2y2   :     0.103833
      dxy     :     0.061819
 14 H s       :     0.728708  s :     0.728708
      pz      :     0.121077  p :     0.250417
      px      :     0.073246
      py      :     0.056094
 15 H s       :     0.743240  s :     0.743240
      pz      :     0.071348  p :     0.237724
      px      :     0.072677
      py      :     0.093699
 16 C s       :     2.627220  s :     2.627220
      pz      :     0.786486  p :     2.496627
      px      :     0.800239
      py      :     0.909901
      dz2     :     0.201392  d :     1.084255
      dxz     :     0.159248
      dyz     :     0.262536
      dx2y2   :     0.223371
      dxy     :     0.237708
 17 C s       :     2.715167  s :     2.715167
      pz      :     0.940396  p :     2.793177
      px      :     0.929018
      py      :     0.923762
      dz2     :     0.035979  d :     0.335497
      dxz     :     0.048713
      dyz     :     0.078048
      dx2y2   :     0.090731
      dxy     :     0.082027
 18 N s       :     2.937073  s :     2.937073
      pz      :     1.158448  p :     3.540000
      px      :     1.281396
      py      :     1.100157
      dz2     :     0.079071  d :     0.331274
      dxz     :     0.058225
      dyz     :     0.073948
      dx2y2   :     0.062816
      dxy     :     0.057213
 19 H s       :     0.658928  s :     0.658928
      pz      :     0.092474  p :     0.369896
      px      :     0.142291
      py      :     0.135131
 20 H s       :     0.657394  s :     0.657394
      pz      :     0.129714  p :     0.340097
      px      :     0.119981
      py      :     0.090403
 21 H s       :     0.580252  s :     0.580252
      pz      :     0.150659  p :     0.477926
      px      :     0.110337
      py      :     0.216930
 22 H s       :     0.702081  s :     0.702081
      pz      :     0.193591  p :     0.451731
      px      :     0.151543
      py      :     0.106598
 23 H s       :     0.775993  s :     0.775993
      pz      :     0.116517  p :     0.321962
      px      :     0.126019
      py      :     0.079426
 24 H s       :     0.726425  s :     0.726425
      pz      :     0.115364  p :     0.248441
      px      :     0.068296
      py      :     0.064782
 25 H s       :     0.729103  s :     0.729103
      pz      :     0.085651  p :     0.248459
      px      :     0.102080
      py      :     0.060729
 26 H s       :     0.719673  s :     0.719673
      pz      :     0.111787  p :     0.265598
      px      :     0.065663
      py      :     0.088148
 27 H s       :     0.728044  s :     0.728044
      pz      :     0.064805  p :     0.249435
      px      :     0.074007
      py      :     0.110623


                      *****************************
                      * MAYER POPULATION ANALYSIS *
                      *****************************

  NA   - Mulliken gross atomic population
  ZA   - Total nuclear charge
  QA   - Mulliken gross atomic charge
  VA   - Mayer's total valence
  BVA  - Mayer's bonded valence
  FA   - Mayer's free valence

  ATOM       NA         ZA         QA         VA         BVA        FA
  0 C      5.3375     6.0000     0.6625     3.9943     3.9943     0.0000
  1 C      5.8699     6.0000     0.1301     4.5718     4.5718     0.0000
  2 N      7.1301     7.0000    -0.1301     4.0940     4.0940     0.0000
  3 C      5.8212     6.0000     0.1788     4.5704     4.5704     0.0000
  4 C      5.9518     6.0000     0.0482     4.9364     4.9364     0.0000
  5 H      0.8886     1.0000     0.1114     1.0131     1.0131     0.0000
  6 C      6.0519     6.0000    -0.0519     4.8046     4.8046     0.0000
  7 H      1.2607     1.0000    -0.2607     1.0307     1.0307     0.0000
  8 H      1.0462     1.0000    -0.0462     1.0553     1.0553     0.0000
  9 H      1.1352     1.0000    -0.1352     1.0017     1.0017     0.0000
 10 C      5.0654     6.0000     0.9346     3.6561     3.6561     0.0000
 11 H      1.0340     1.0000    -0.0340     1.0401     1.0401     0.0000
 12 H      1.0456     1.0000    -0.0456     0.9528     0.9528     0.0000
 13 F      9.7996     9.0000    -0.7996     1.3146     1.3146    -0.0000
 14 H      1.0312     1.0000    -0.0312     1.0100     1.0100     0.0000
 15 H      1.2213     1.0000    -0.2213     1.0195     1.0195     0.0000
 16 C      5.3428     6.0000     0.6572     3.6862     3.6862     0.0000
 17 C      5.3092     6.0000     0.6908     3.3726     3.3726     0.0000
 18 N      7.0609     7.0000    -0.0609     3.5355     3.5355     0.0000
 19 H      1.0716     1.0000    -0.0716     0.8795     0.8795     0.0000
 20 H      1.0616     1.0000    -0.0616     0.9209     0.9209     0.0000
 21 H      1.4599     1.0000    -0.4599     0.3724     0.3724     0.0000
 22 H      1.2708     1.0000    -0.2708     0.9403     0.9403    -0.0000
 23 H      1.5716     1.0000    -0.5716     0.8489     0.8489     0.0000
 24 H      0.8965     1.0000     0.1035     0.9993     0.9993    -0.0000
 25 H      1.1043     1.0000    -0.1043     1.0957     1.0957     0.0000
 26 H      1.0105     1.0000    -0.0105     1.0842     1.0842    -0.0000
 27 H      1.1503     1.0000    -0.1503     1.1100     1.1100     0.0000

  Mayer bond orders larger than 0.100000
B(  0-C ,  1-C ) :   1.2002 B(  0-C ,  2-N ) :   0.9068 B(  0-C , 14-H ) :   0.7710 
B(  0-C , 15-H ) :   0.8856 B(  0-C , 21-H ) :  -0.1795 B(  0-C , 26-H ) :   0.1322 
B(  0-C , 27-H ) :   0.1898 B(  1-C ,  3-C ) :   1.2069 B(  1-C , 24-H ) :   0.1527 
B(  1-C , 25-H ) :   0.1851 B(  1-C , 26-H ) :   0.7874 B(  1-C , 27-H ) :   0.8060 
B(  2-N , 14-H ) :   0.3175 B(  2-N , 15-H ) :   0.1897 B(  2-N , 16-C ) :   1.0198 
B(  2-N , 17-C ) :   0.3345 B(  2-N , 18-N ) :   0.1281 B(  2-N , 21-H ) :   1.0270 
B(  3-C ,  4-C ) :   1.2836 B(  3-C ,  5-H ) :   0.1317 B(  3-C ,  7-H ) :   0.1219 
B(  3-C , 24-H ) :   0.6884 B(  3-C , 25-H ) :   0.8572 B(  3-C , 26-H ) :   0.1458 
B(  3-C , 27-H ) :   0.1370 B(  4-C ,  5-H ) :   0.8513 B(  4-C ,  6-C ) :   1.1806 
B(  4-C ,  7-H ) :   0.8627 B(  4-C ,  8-H ) :   0.1206 B(  4-C ,  9-H ) :   0.1603 
B(  4-C , 24-H ) :   0.2097 B(  4-C , 25-H ) :   0.1257 B(  6-C ,  8-H ) :   0.8916 
B(  6-C ,  9-H ) :   0.9344 B(  6-C , 10-C ) :   1.1476 B(  6-C , 12-H ) :   0.1612 
B(  6-C , 13-F ) :   0.1347 B( 10-C , 11-H ) :   0.8583 B( 10-C , 12-H ) :   0.8248 
B( 10-C , 13-F ) :   0.6577 B( 11-H , 13-F ) :   0.1964 B( 13-F , 22-H ) :   0.2010 
B( 16-C , 17-C ) :   1.6396 B( 16-C , 18-N ) :   0.7883 B( 16-C , 20-H ) :  -0.1247 
B( 16-C , 21-H ) :  -0.3510 B( 16-C , 22-H ) :   0.3007 B( 16-C , 23-H ) :   0.3798 
B( 17-C , 18-N ) :   0.3033 B( 17-C , 22-H ) :   0.5515 B( 17-C , 23-H ) :   0.4770 
B( 18-N , 19-H ) :   0.9968 B( 18-N , 20-H ) :   1.1946 B( 19-H , 20-H ) :  -0.1459 
B( 21-H , 22-H ) :  -0.1136 

-------
TIMINGS
-------

Total SCF time: 0 days 0 hours 1 min 1 sec 

Total time                  ....      61.407 sec
Sum of individual times     ....      60.854 sec  ( 99.1%)

Fock matrix formation       ....      58.176 sec  ( 94.7%)
  Split-RI-J                ....       2.917 sec  (  5.0% of F)
  Chain of spheres X        ....      50.222 sec  ( 86.3% of F)
  XC integration            ....       4.895 sec  (  8.4% of F)
    Basis function eval.    ....       0.808 sec  ( 16.5% of XC)
    Density eval.           ....       0.906 sec  ( 18.5% of XC)
    XC-Functional eval.     ....       0.135 sec  (  2.8% of XC)
    XC-Potential eval.      ....       1.024 sec  ( 20.9% of XC)
Diagonalization             ....       0.232 sec  (  0.4%)
Density matrix formation    ....       0.021 sec  (  0.0%)
Population analysis         ....       0.030 sec  (  0.0%)
Initial guess               ....       0.288 sec  (  0.5%)
Orbital Transformation      ....       0.000 sec  (  0.0%)
Orbital Orthonormalization  ....       0.000 sec  (  0.0%)
DIIS solution               ....       0.121 sec  (  0.2%)
SOSCF solution              ....       0.198 sec  (  0.3%)
Grid generation             ....       1.787 sec  (  2.9%)

Maximum memory used throughout the entire SCF-calculation: 74.6 MB


-------------------------------------------------------------------------------
                          DFT DISPERSION CORRECTION                            
                                                                               
                              DFTD3 V3.1  Rev 1                                
                              USING zero damping                               
-------------------------------------------------------------------------------
The omegaB97X-D3 functional is recognized. Fit by Chai et al.
Active option DFTDOPT                   ...         3   

molecular C6(AA) [au] = 5752.508575 


            DFT-D V3
 parameters
 s6 scaling factor         :     1.0000 
 rs6 scaling factor        :     1.2810 
 s8 scaling factor         :     1.0000 
 rs8 scaling factor        :     1.0940 
 Damping factor alpha6     :    14.0000 
 Damping factor alpha8     :    16.0000 
 ad hoc parameters k1-k3   :    16.0000     1.3333    -4.0000 

 Edisp/kcal,au: -7.446226259244  -0.011866315606 
 E6   /kcal   :  -3.283304188 
 E8   /kcal   :  -4.162922072 
 % E8         :  55.906467606 

-------------------------   ----------------
Dispersion correction           -0.011866316
-------------------------   ----------------


-------------------------   --------------------
FINAL SINGLE POINT ENERGY      -523.883316411233
-------------------------   --------------------


                            ***************************************
                            *     ORCA property calculations      *
                            ***************************************

                                    ---------------------
                                    Active property flags
                                    ---------------------
   (+) Dipole Moment


------------------------------------------------------------------------------
                       ORCA ELECTRIC PROPERTIES CALCULATION
------------------------------------------------------------------------------

Dipole Moment Calculation                       ... on
Quadrupole Moment Calculation                   ... off
Polarizability Calculation                      ... off
GBWName                                         ... new_SVPD_D2_wb97.gbw
Electron density file                           ... new_SVPD_D2_wb97.scfp
The origin for moment calculation is the CENTER OF MASS  = ( 3.193992,  0.492322 -9.464323)

-------------
DIPOLE MOMENT
-------------
                                X             Y             Z
Electronic contribution:      6.32930       2.46023       1.71990
Nuclear contribution   :     -7.85451      -2.70006      -1.48294
                        -----------------------------------------
Total Dipole Moment    :     -1.52521      -0.23983       0.23696
                        -----------------------------------------
Magnitude (a.u.)       :      1.56203
Magnitude (Debye)      :      3.97037



--------------------
Rotational spectrum 
--------------------
 
Rotational constants in cm-1:     0.044065     0.029250     0.019826 
Rotational constants in MHz :  1321.026981   876.903192   594.367265 

 Dipole components along the rotational axes: 
x,y,z [a.u.] :     1.258894    -0.907312    -0.178638 
x,y,z [Debye]:     3.199855    -2.306204    -0.454062 

 

Timings for individual modules:

Sum of individual times         ...       63.277 sec (=   1.055 min)
GTO integral calculation        ...        1.357 sec (=   0.023 min)   2.1 %
SCF iterations                  ...       61.921 sec (=   1.032 min)  97.9 %
                             ****ORCA TERMINATED NORMALLY****
TOTAL RUN TIME: 0 days 0 hours 1 minutes 3 seconds 869 msec
