
                                        *****************
                                        * O   R   C   A *
                                        *****************

                                            #,                                       
                                            ###                                      
                                            ####                                     
                                            #####                                    
                                            ######                                   
                                           ########,                                 
                                     ,,################,,,,,                         
                               ,,#################################,,                 
                          ,,##########################################,,             
                       ,#########################################, ''#####,          
                    ,#############################################,,   '####,        
                  ,##################################################,,,,####,       
                ,###########''''           ''''###############################       
              ,#####''   ,,,,##########,,,,          '''####'''          '####       
            ,##' ,,,,###########################,,,                        '##       
           ' ,,###''''                  '''############,,,                           
         ,,##''                                '''############,,,,        ,,,,,,###''
      ,#''                                            '''#######################'''  
     '                                                          ''''####''''         
             ,#######,   #######,   ,#######,      ##                                
            ,#'     '#,  ##    ##  ,#'     '#,    #''#        ######   ,####,        
            ##       ##  ##   ,#'  ##            #'  '#       #        #'  '#        
            ##       ##  #######   ##           ,######,      #####,   #    #        
            '#,     ,#'  ##    ##  '#,     ,#' ,#      #,         ##   #,  ,#        
             '#######'   ##     ##  '#######'  #'      '#     #####' # '####'        



                  #######################################################
                  #                        -***-                        #
                  #          Department of theory and spectroscopy      #
                  #    Directorship and core code : Frank Neese         #
                  #        Max Planck Institute fuer Kohlenforschung    #
                  #                Kaiser Wilhelm Platz 1               #
                  #                 D-45470 Muelheim/Ruhr               #
                  #                      Germany                        #
                  #                                                     #
                  #                  All rights reserved                #
                  #                        -***-                        #
                  #######################################################


                         Program Version 5.0.0 -  RELEASE  -
                                (SVN: $Rev: 19529$)
                ($Date: 2021-06-28 11:36:33 +0200 (Mo, 28 Jun 2021) $)


 With contributions from (in alphabetic order):
   Daniel Aravena         : Magnetic Suceptibility
   Michael Atanasov       : Ab Initio Ligand Field Theory (pilot matlab implementation)
   Alexander A. Auer      : GIAO ZORA, VPT2 properties, NMR spectrum
   Ute Becker             : Parallelization
   Giovanni Bistoni       : ED, misc. LED, open-shell LED, HFLD
   Martin Brehm           : Molecular dynamics
   Dmytro Bykov           : SCF Hessian
   Vijay G. Chilkuri      : MRCI spin determinant printing, contributions to CSF-ICE
   Dipayan Datta          : RHF DLPNO-CCSD density
   Achintya Kumar Dutta   : EOM-CC, STEOM-CC
   Dmitry Ganyushin       : Spin-Orbit,Spin-Spin,Magnetic field MRCI
   Miquel Garcia          : C-PCM Hessian, Gaussian charge scheme
   Yang Guo               : DLPNO-NEVPT2, F12-NEVPT2, CIM, IAO-localization
   Andreas Hansen         : Spin unrestricted coupled pair/coupled cluster methods
   Benjamin Helmich-Paris : MC-RPA, TRAH-SCF, COSX integrals
   Lee Huntington         : MR-EOM, pCC
   Robert Izsak           : Overlap fitted RIJCOSX, COSX-SCS-MP3, EOM
   Marcus Kettner         : VPT2
   Christian Kollmar      : KDIIS, OOCD, Brueckner-CCSD(T), CCSD density, CASPT2, CASPT2-K
   Simone Kossmann        : Meta GGA functionals, TD-DFT gradient, OOMP2, MP2 Hessian
   Martin Krupicka        : Initial AUTO-CI
   Lucas Lang             : DCDCAS
   Marvin Lechner         : AUTO-CI (C++ implementation), FIC-MRCC
   Dagmar Lenk            : GEPOL surface, SMD
   Dimitrios Liakos       : Extrapolation schemes; Compound Job, initial MDCI parallelization
   Dimitrios Manganas     : Further ROCIS development; embedding schemes
   Dimitrios Pantazis     : SARC Basis sets
   Anastasios Papadopoulos: AUTO-CI, single reference methods and gradients
   Taras Petrenko         : DFT Hessian,TD-DFT gradient, ASA, ECA, R-Raman, ABS, FL, XAS/XES, NRVS
   Peter Pinski           : DLPNO-MP2, DLPNO-MP2 Gradient
   Christoph Reimann      : Effective Core Potentials
   Marius Retegan         : Local ZFS, SOC
   Christoph Riplinger    : Optimizer, TS searches, QM/MM, DLPNO-CCSD(T), (RO)-DLPNO pert. Triples
   Tobias Risthaus        : Range-separated hybrids, TD-DFT gradient, RPA, STAB
   Michael Roemelt        : Original ROCIS implementation
   Masaaki Saitow         : Open-shell DLPNO-CCSD energy and density
   Barbara Sandhoefer     : DKH picture change effects
   Avijit Sen             : IP-ROCIS
   Kantharuban Sivalingam : CASSCF convergence, NEVPT2, FIC-MRCI
   Bernardo de Souza      : ESD, SOC TD-DFT
   Georgi Stoychev        : AutoAux, RI-MP2 NMR
   Willem Van den Heuvel  : Paramagnetic NMR
   Boris Wezisla          : Elementary symmetry handling
   Frank Wennmohs         : Technical directorship


 We gratefully acknowledge several colleagues who have allowed us to
 interface, adapt or use parts of their codes:
   Stefan Grimme, W. Hujo, H. Kruse, P. Pracht,  : VdW corrections, initial TS optimization,
                  C. Bannwarth, S. Ehlert          DFT functionals, gCP, sTDA/sTD-DF
   Ed Valeev, F. Pavosevic, A. Kumar             : LibInt (2-el integral package), F12 methods
   Garnet Chan, S. Sharma, J. Yang, R. Olivares  : DMRG
   Ulf Ekstrom                                   : XCFun DFT Library
   Mihaly Kallay                                 : mrcc  (arbitrary order and MRCC methods)
   Jiri Pittner, Ondrej Demel                    : Mk-CCSD
   Frank Weinhold                                : gennbo (NPA and NBO analysis)
   Christopher J. Cramer and Donald G. Truhlar   : smd solvation model
   Lars Goerigk                                  : TD-DFT with DH, B97 family of functionals
   V. Asgeirsson, H. Jonsson                     : NEB implementation
   FAccTs GmbH                                   : IRC, NEB, NEB-TS, DLPNO-Multilevel, CI-OPT
                                                   MM, QMMM, 2- and 3-layer-ONIOM, Crystal-QMMM,
                                                   LR-CPCM, SF, NACMEs, symmetry and pop. for TD-DFT,
                                                   nearIR, NL-DFT gradient (VV10), updates on ESD,
                                                   ML-optimized integration grids
   S Lehtola, MJT Oliveira, MAL Marques          : LibXC Library
   Liviu Ungur et al                             : ANISO software


 Your calculation uses the libint2 library for the computation of 2-el integrals
 For citations please refer to: http://libint.valeyev.net

 Your ORCA version has been built with support for libXC version: 5.1.0
 For citations please refer to: https://tddft.org/programs/libxc/

 This ORCA versions uses:
   CBLAS   interface :  Fast vector & matrix operations
   LAPACKE interface :  Fast linear algebra routines
   SCALAPACK package :  Parallel linear algebra routines
   Shared memory     :  Shared parallel matrices
   BLAS/LAPACK       :  OpenBLAS 0.3.15  USE64BITINT DYNAMIC_ARCH NO_AFFINITY Haswell SINGLE_THREADED
        Core in use  :  Haswell
   Copyright (c) 2011-2014, The OpenBLAS Project


Your calculation utilizes the atom-pairwise dispersion correction
with the Becke-Johnson damping scheme (D3BJ)
Cite in your paper:
S.Grimme, S.Ehrlich, L.Goerigk, J Comput Chem, (2011), 32, 1456–1465 
S.Grimme, J.Antony, S.Ehrlich and H.Krieg, J.Chem.Phys., 132, (2010), 154104 
   

================================================================================

----- Orbital basis set information -----
Your calculation utilizes the basis: def2-SVPD
   F. Weigend and R. Ahlrichs, Phys. Chem. Chem. Phys. 7, 3297 (2005).
   D. Rappoport and F. Furche, J. Chem. Phys. 133 134105 (2010).

----- AuxJ basis set information -----
Your calculation utilizes the auxiliary basis: def2/J
   F. Weigend, Phys. Chem. Chem. Phys. 8, 1057 (2006).

================================================================================
                                        WARNINGS
                       Please study these warnings very carefully!
================================================================================



WARNING: Found flag for RIJCOSX approximation but no HF exchange needed!
  ===> : RIJCOSX  will be disabled and Split-RI-J is turned on

INFO   : the flag for use of the SHARK integral package has been found!

================================================================================
                                       INPUT FILE
================================================================================
NAME = 18Feb_SVPD_BLYP_A_wt_wb97_typm1_neg.com
|  1> !BLYP D3BJ RIJCOSX def2-SVPD def2/J TightSCF 
|  2> *xyz -1 1 
|  3> C         -0.25875        1.00432       -5.40983
|  4> C          0.39596       -0.37070       -5.33994
|  5> O         -0.32633       -1.39040       -5.49128
|  6> O          1.61941       -0.40073       -5.03683
|  7> H         -1.28979        0.89539       -5.67439
|  8> H          0.23798        1.59877       -6.14792
|  9> H         -0.18395        1.48386       -4.45623
| 10> *
| 11> %MaxCore 64000
| 12> 
| 13> %pal nprocs 4
| 14> end  
| 15> 
| 16> %scf
| 17>   MaxIter 150
| 18> end
| 19> 
| 20> 
| 21>                          ****END OF INPUT****
================================================================================

                       ****************************
                       * Single Point Calculation *
                       ****************************

---------------------------------
CARTESIAN COORDINATES (ANGSTROEM)
---------------------------------
  C     -0.258750    1.004320   -5.409830
  C      0.395960   -0.370700   -5.339940
  O     -0.326330   -1.390400   -5.491280
  O      1.619410   -0.400730   -5.036830
  H     -1.289790    0.895390   -5.674390
  H      0.237980    1.598770   -6.147920
  H     -0.183950    1.483860   -4.456230

----------------------------
CARTESIAN COORDINATES (A.U.)
----------------------------
  NO LB      ZA    FRAG     MASS         X           Y           Z
   0 C     6.0000    0    12.011   -0.488967    1.897890  -10.223097
   1 C     6.0000    0    12.011    0.748256   -0.700521  -10.091024
   2 O     8.0000    0    15.999   -0.616674   -2.627475  -10.377015
   3 O     8.0000    0    15.999    3.060241   -0.757270   -9.518229
   4 H     1.0000    0     1.008   -2.437350    1.692042  -10.723043
   5 H     1.0000    0     1.008    0.449717    3.021237  -11.617885
   6 H     1.0000    0     1.008   -0.347615    2.804089   -8.421054

--------------------------------
INTERNAL COORDINATES (ANGSTROEM)
--------------------------------
 C      0   0   0     0.000000000000     0.00000000     0.00000000
 C      1   0   0     1.524535928275     0.00000000     0.00000000
 O      2   1   0     1.258727424703   118.60144394     0.00000000
 O      2   1   3     1.260796325938   116.69439283   184.92929309
 H      1   2   3     1.070000570140   109.47084551   355.07066416
 H      1   2   3     1.069994553024   109.47134250   235.07073777
 H      1   2   3     1.070003089528   109.47140545   115.07105870

---------------------------
INTERNAL COORDINATES (A.U.)
---------------------------
 C      0   0   0     0.000000000000     0.00000000     0.00000000
 C      1   0   0     2.880955385762     0.00000000     0.00000000
 O      2   1   0     2.378650109945   118.60144394     0.00000000
 O      2   1   3     2.382559766678   116.69439283   184.92929309
 H      1   2   3     2.022008040704   109.47084551   355.07066416
 H      1   2   3     2.021996670002   109.47134250   235.07073777
 H      1   2   3     2.022012801658   109.47140545   115.07105870

---------------------
BASIS SET INFORMATION
---------------------
There are 3 groups of distinct atoms

 Group   1 Type C   : 8s4p2d contracted to 4s2p2d pattern {5111/31/11}
 Group   2 Type O   : 8s5p2d contracted to 4s3p2d pattern {5111/311/11}
 Group   3 Type H   : 4s2p contracted to 2s2p pattern {31/11}

Atom   0C    basis set group =>   1
Atom   1C    basis set group =>   1
Atom   2O    basis set group =>   2
Atom   3O    basis set group =>   2
Atom   4H    basis set group =>   3
Atom   5H    basis set group =>   3
Atom   6H    basis set group =>   3
---------------------------------
AUXILIARY/J BASIS SET INFORMATION
---------------------------------
There are 3 groups of distinct atoms

 Group   1 Type C   : 12s5p4d2f1g contracted to 6s4p3d1f1g pattern {711111/2111/211/2/1}
 Group   2 Type O   : 12s5p4d2f1g contracted to 6s4p3d1f1g pattern {711111/2111/211/2/1}
 Group   3 Type H   : 5s2p1d contracted to 3s1p1d pattern {311/2/1}

Atom   0C    basis set group =>   1
Atom   1C    basis set group =>   1
Atom   2O    basis set group =>   2
Atom   3O    basis set group =>   2
Atom   4H    basis set group =>   3
Atom   5H    basis set group =>   3
Atom   6H    basis set group =>   3


           ************************************************************
           *        Program running with 4 parallel MPI-processes     *
           *              working on a common directory               *
           ************************************************************
------------------------------------------------------------------------------
                           ORCA GTO INTEGRAL CALCULATION
                           -- RI-GTO INTEGRALS CHOSEN --
------------------------------------------------------------------------------
------------------------------------------------------------------------------
                   ___                                                        
                  /   \      - P O W E R E D   B Y -                         
                 /     \                                                     
                 |  |  |   _    _      __       _____    __    __             
                 |  |  |  | |  | |    /  \     |  _  \  |  |  /  |          
                  \  \/   | |  | |   /    \    | | | |  |  | /  /          
                 / \  \   | |__| |  /  /\  \   | |_| |  |  |/  /          
                |  |  |   |  __  | /  /__\  \  |    /   |      \           
                |  |  |   | |  | | |   __   |  |    \   |  |\   \          
                \     /   | |  | | |  |  |  |  | |\  \  |  | \   \       
                 \___/    |_|  |_| |__|  |__|  |_| \__\ |__|  \__/        
                                                                              
                      - O R C A' S   B I G   F R I E N D -                    
                                      &                                       
                       - I N T E G R A L  F E E D E R -                       
                                                                              
 v1 FN, 2020, v2 2021                                                         
------------------------------------------------------------------------------


Reading SHARK input file 18Feb_SVPD_BLYP_A_wt_wb97_typm1_neg.SHARKINP.tmp ... ok
----------------------
SHARK INTEGRAL PACKAGE
----------------------

Number of atoms                             ...      7
Number of basis functions                   ...    110
Number of shells                            ...     46
Maximum angular momentum                    ...      2
Integral batch strategy                     ... SHARK/LIBINT Hybrid
RI-J (if used) integral strategy            ... SPLIT-RIJ (Revised 2003 algorithm where possible)
Printlevel                                  ...      1
Contraction scheme used                     ... SEGMENTED contraction
Coulomb Range Separation                    ... NOT USED
Exchange Range Separation                   ... NOT USED
Finite Nucleus Model                        ... NOT USED
Auxiliary Coulomb fitting basis             ... AVAILABLE
   # of basis functions in Aux-J            ...    229
   # of shells in Aux-J                     ...     75
   Maximum angular momentum in Aux-J        ...      4
Auxiliary J/K fitting basis                 ... NOT available
Auxiliary Correlation fitting basis         ... NOT available
Auxiliary 'external' fitting basis          ... NOT available
Integral threshold                          ...     2.500000e-11
Primitive cut-off                           ...     2.500000e-12
Primitive pair pre-selection threshold      ...     2.500000e-12

Calculating pre-screening integrals         ... done (  0.0 sec) Dimension = 46
Organizing shell pair data                  ... done (  0.0 sec)
Shell pair information
Total number of shell pairs                 ...      1081
Shell pairs after pre-screening             ...      1078
Total number of primitive shell pairs       ...      2987
Primitive shell pairs kept                  ...      2626
          la=0 lb=0:    250 shell pairs
          la=1 lb=0:    352 shell pairs
          la=1 lb=1:    136 shell pairs
          la=2 lb=0:    176 shell pairs
          la=2 lb=1:    128 shell pairs
          la=2 lb=2:     36 shell pairs

Calculating one electron integrals          ... done (  0.0 sec)
Calculating RI/J V-Matrix + Cholesky decomp.... done (  0.0 sec)
Calculating Nuclear repulsion               ... done (  0.0 sec) ENN=    112.493091662527 Eh

SHARK setup successfully completed in   0.1 seconds

Maximum memory used throughout the entire GTOINT-calculation: 8.8 MB


           ************************************************************
           *        Program running with 4 parallel MPI-processes     *
           *              working on a common directory               *
           ************************************************************
-------------------------------------------------------------------------------
                                 ORCA SCF
-------------------------------------------------------------------------------

------------
SCF SETTINGS
------------
Hamiltonian:
 Density Functional     Method          .... DFT(GTOs)
 Exchange Functional    Exchange        .... B88
   X-Alpha parameter    XAlpha          ....  0.666667
   Becke's b parameter  XBeta           ....  0.004200
 Correlation Functional Correlation     .... LYP
 Gradients option       PostSCFGGA      .... off
   Density functional embedding theory  .... OFF
   NL short-range parameter             ....  4.000000
 RI-approximation to the Coulomb term is turned on
   Number of AuxJ basis functions       .... 229


General Settings:
 Integral files         IntName         .... 18Feb_SVPD_BLYP_A_wt_wb97_typm1_neg
 Hartree-Fock type      HFTyp           .... RHF
 Total Charge           Charge          ....   -1
 Multiplicity           Mult            ....    1
 Number of Electrons    NEL             ....   32
 Basis Dimension        Dim             ....  110
 Nuclear Repulsion      ENuc            ....    112.4930916625 Eh

Convergence Acceleration:
 DIIS                   CNVDIIS         .... on
   Start iteration      DIISMaxIt       ....    12
   Startup error        DIISStart       ....  0.200000
   # of expansion vecs  DIISMaxEq       ....     5
   Bias factor          DIISBfac        ....   1.050
   Max. coefficient     DIISMaxC        ....  10.000
 Trust-Rad. Augm. Hess. CNVTRAH         .... auto
   Auto Start mean grad. ratio tolernc. ....  1.125000
   Auto Start start iteration           ....    20
   Auto Start num. interpolation iter.  ....    10
   Max. Number of Micro iterations      ....    16
   Max. Number of Macro iterations      .... Maxiter - #DIIS iter
   Number of Davidson start vectors     ....     2
   Converg. threshold I  (grad. norm)   ....   1.000e-05
   Converg. threshold II (energy diff.) ....   1.000e-08
   Grad. Scal. Fac. for Micro threshold ....   0.100
   Minimum threshold for Micro iter.    ....   0.010
   NR start threshold (gradient norm)   ....   0.001
   Initial trust radius                 ....   0.400
   Minimum AH scaling param. (alpha)    ....   1.000
   Maximum AH scaling param. (alpha)    .... 1000.000
   Orbital update algorithm             .... Taylor
   White noise on init. David. guess    .... on
   Maximum white noise                  ....   0.010
   Quad. conv. algorithm                .... NR
 SOSCF                  CNVSOSCF        .... on
   Start iteration      SOSCFMaxIt      ....   150
   Startup grad/error   SOSCFStart      ....  0.003300
 Level Shifting         CNVShift        .... on
   Level shift para.    LevelShift      ....    0.2500
   Turn off err/grad.   ShiftErr        ....    0.0010
 Zerner damping         CNVZerner       .... off
 Static damping         CNVDamp         .... on
   Fraction old density DampFac         ....    0.7000
   Max. Damping (<1)    DampMax         ....    0.9800
   Min. Damping (>=0)   DampMin         ....    0.0000
   Turn off err/grad.   DampErr         ....    0.1000
 Fernandez-Rico         CNVRico         .... off

SCF Procedure:
 Maximum # iterations   MaxIter         ....   150
 SCF integral mode      SCFMode         .... Direct
   Integral package                     .... SHARK and LIBINT hybrid scheme
 Reset frequency        DirectResetFreq ....    20
 Integral Threshold     Thresh          ....  2.500e-11 Eh
 Primitive CutOff       TCut            ....  2.500e-12 Eh

Convergence Tolerance:
 Convergence Check Mode ConvCheckMode   .... Total+1el-Energy
 Convergence forced     ConvForced      .... 0
 Energy Change          TolE            ....  1.000e-08 Eh
 1-El. energy change                    ....  1.000e-05 Eh
 Orbital Gradient       TolG            ....  1.000e-05
 Orbital Rotation angle TolX            ....  1.000e-05
 DIIS Error             TolErr          ....  5.000e-07


Diagonalization of the overlap matrix:
Smallest eigenvalue                        ... 1.589e-04
Time for diagonalization                   ...    0.004 sec
Threshold for overlap eigenvalues          ... 1.000e-08
Number of eigenvalues below threshold      ... 0
Time for construction of square roots      ...    0.003 sec
Total time needed                          ...    0.008 sec

Time for model grid setup =    0.045 sec

------------------------------
INITIAL GUESS: MODEL POTENTIAL
------------------------------
Loading Hartree-Fock densities                     ... done
Calculating cut-offs                               ... done
Initializing the effective Hamiltonian             ... done
Setting up the integral package (SHARK)            ... done
Starting the Coulomb interaction                   ... done (   0.0 sec)
Reading the grid                                   ... done
Mapping shells                                     ... done
Starting the XC term evaluation                    ... done (   0.0 sec)
  promolecular density results
     # of electrons  =     30.999115963
     EX              =    -27.512426421
     EC              =     -1.067013479
     EX+EC           =    -28.579439901
Transforming the Hamiltonian                       ... done (   0.0 sec)
Diagonalizing the Hamiltonian                      ... done (   0.0 sec)
Back transforming the eigenvectors                 ... done (   0.0 sec)
Now organizing SCF variables                       ... done
                      ------------------
                      INITIAL GUESS DONE (   0.1 sec)
                      ------------------
-------------------
DFT GRID GENERATION
-------------------

General Integration Accuracy     IntAcc      ... 4.388
Radial Grid Type                 RadialGrid  ... OptM3 with GC (2021)
Angular Grid (max. ang.)         AngularGrid ... 4 (Lebedev-302)
Angular grid pruning method      GridPruning ... 4 (adaptive)
Weight generation scheme         WeightScheme... Becke
Basis function cutoff            BFCut       ... 1.0000e-11
Integration weight cutoff        WCut        ... 1.0000e-14
Angular grids for H and He will be reduced by one unit
Partially contracted basis set               ... off
Rotationally invariant grid construction     ... off

Total number of grid points                  ...    35414
Total number of batches                      ...      557
Average number of points per batch           ...       63
Average number of grid points per atom       ...     5059
Time for grid setup =    0.229 sec

--------------
SCF ITERATIONS
--------------
ITER       Energy         Delta-E        Max-DP      RMS-DP      [F,P]     Damp
               ***  Starting incremental Fock matrix formation  ***
  0   -228.0421743230   0.000000000000 0.25206283  0.00657445  0.2993227 0.7000
  1   -228.1877403588  -0.145566035805 0.41800371  0.00686635  0.0973613 0.7000
                               ***Turning on DIIS***
  2   -228.2245047803  -0.036764421557 0.78952629  0.01333445  0.0335629 0.0000
  3   -228.3007875096  -0.076282729316 0.40374600  0.00560557  0.0644117 0.0000
  4   -228.3147759618  -0.013988452170 0.22562981  0.00322389  0.0255645 0.0000
  5   -228.3175574237  -0.002781461910 0.12440143  0.00183394  0.0050256 0.0000
                      *** Initiating the SOSCF procedure ***
                           *** Shutting down DIIS ***
                      *** Re-Reading the Fockian *** 
                      *** Removing any level shift *** 
ITER      Energy       Delta-E        Grad      Rot      Max-DP    RMS-DP
  6   -228.31770410  -0.0001466750  0.000649  0.000649  0.066197  0.001001
               *** Restarting incremental Fock matrix formation ***
  7   -228.31772202  -0.0000179209  0.000281  0.001855  0.069454  0.001088
  8   -228.31772466  -0.0000026446  0.000293  0.000996  0.030541  0.000485
  9   -228.31772436   0.0000003084  0.000422  0.000834  0.026812  0.000424
 10   -228.31772593  -0.0000015693  0.000177  0.000598  0.017587  0.000281
 11   -228.31772588   0.0000000403  0.000167  0.000554  0.016760  0.000265
 12   -228.31772661  -0.0000007298  0.000095  0.000189  0.004779  0.000078
 13   -228.31772655   0.0000000647  0.000080  0.000205  0.006081  0.000098
 14   -228.31772676  -0.0000002070  0.000004  0.000023  0.000657  0.000010
                  ***Gradient check signals convergence***
              ***Rediagonalizing the Fockian in SOSCF/NRSCF***

               *****************************************************
               *                     SUCCESS                       *
               *           SCF CONVERGED AFTER  15 CYCLES          *
               *****************************************************


----------------
TOTAL SCF ENERGY
----------------

Total Energy       :         -228.31772676 Eh           -6212.84120 eV

Components:
Nuclear Repulsion  :          112.49309166 Eh            3061.09265 eV
Electronic Energy  :         -340.81081842 Eh           -9273.93385 eV
One Electron Energy:         -541.71088403 Eh          -14740.70256 eV
Two Electron Energy:          200.90006561 Eh            5466.76871 eV

Virial components:
Potential Energy   :         -454.77447487 Eh          -12375.04260 eV
Kinetic Energy     :          226.45674811 Eh            6162.20140 eV
Virial Ratio       :            2.00821781


DFT components:
N(Alpha)           :       16.000261448018 electrons
N(Beta)            :       16.000261448018 electrons
N(Total)           :       32.000522896035 electrons
E(X)               :      -28.176714537984 Eh       
E(C)               :       -1.103376835055 Eh       
E(XC)              :      -29.280091373039 Eh       
DFET-embed. en.    :        0.000000000000 Eh       

---------------
SCF CONVERGENCE
---------------

  Last Energy change         ...   -1.0575e-09  Tolerance :   1.0000e-08
  Last MAX-Density change    ...    5.2494e-05  Tolerance :   1.0000e-07
  Last RMS-Density change    ...    8.7564e-07  Tolerance :   5.0000e-09
  Last Orbital Gradient      ...    1.8500e-06  Tolerance :   1.0000e-05
  Last Orbital Rotation      ...    2.7723e-06  Tolerance :   1.0000e-05

             **** THE GBW FILE WAS UPDATED (18Feb_SVPD_BLYP_A_wt_wb97_typm1_neg.gbw) ****
             **** DENSITY 18Feb_SVPD_BLYP_A_wt_wb97_typm1_neg.scfp WAS UPDATED ****
             **** ENERGY FILE WAS UPDATED (18Feb_SVPD_BLYP_A_wt_wb97_typm1_neg.en.tmp) ****
             **** THE GBW FILE WAS UPDATED (18Feb_SVPD_BLYP_A_wt_wb97_typm1_neg.gbw) ****
             **** DENSITY 18Feb_SVPD_BLYP_A_wt_wb97_typm1_neg.scfp WAS UPDATED ****
----------------
ORBITAL ENERGIES
----------------

  NO   OCC          E(Eh)            E(eV) 
   0   2.0000     -18.529559      -504.2149 
   1   2.0000     -18.527081      -504.1475 
   2   2.0000      -9.802207      -266.7316 
   3   2.0000      -9.736544      -264.9448 
   4   2.0000      -0.713005       -19.4018 
   5   2.0000      -0.624443       -16.9920 
   6   2.0000      -0.464053       -12.6275 
   7   2.0000      -0.242008        -6.5854 
   8   2.0000      -0.209518        -5.7013 
   9   2.0000      -0.193985        -5.2786 
  10   2.0000      -0.165397        -4.5007 
  11   2.0000      -0.129822        -3.5326 
  12   2.0000      -0.116583        -3.1724 
  13   2.0000      -0.006405        -0.1743 
  14   2.0000       0.004151         0.1130 
  15   2.0000       0.024777         0.6742 
  16   0.0000       0.155006         4.2179 
  17   0.0000       0.197123         5.3640 
  18   0.0000       0.200725         5.4620 
  19   0.0000       0.223605         6.0846 
  20   0.0000       0.241877         6.5818 
  21   0.0000       0.246525         6.7083 
  22   0.0000       0.249608         6.7922 
  23   0.0000       0.266224         7.2443 
  24   0.0000       0.268511         7.3065 
  25   0.0000       0.283872         7.7245 
  26   0.0000       0.313048         8.5185 
  27   0.0000       0.323517         8.8033 
  28   0.0000       0.332636         9.0515 
  29   0.0000       0.346033         9.4160 
  30   0.0000       0.392670        10.6851 
  31   0.0000       0.412963        11.2373 
  32   0.0000       0.429854        11.6969 
  33   0.0000       0.442592        12.0435 
  34   0.0000       0.472371        12.8539 
  35   0.0000       0.477618        12.9967 
  36   0.0000       0.488060        13.2808 
  37   0.0000       0.497880        13.5480 
  38   0.0000       0.506664        13.7870 
  39   0.0000       0.524567        14.2742 
  40   0.0000       0.543286        14.7836 
  41   0.0000       0.558075        15.1860 
  42   0.0000       0.569678        15.5017 
  43   0.0000       0.587839        15.9959 
  44   0.0000       0.607476        16.5303 
  45   0.0000       0.622153        16.9297 
  46   0.0000       0.628642        17.1062 
  47   0.0000       0.665217        18.1015 
  48   0.0000       0.677219        18.4281 
  49   0.0000       0.678831        18.4719 
  50   0.0000       0.684166        18.6171 
  51   0.0000       0.717192        19.5158 
  52   0.0000       0.736501        20.0412 
  53   0.0000       0.767232        20.8774 
  54   0.0000       0.781450        21.2643 
  55   0.0000       0.793420        21.5901 
  56   0.0000       0.823873        22.4187 
  57   0.0000       0.849196        23.1078 
  58   0.0000       0.853527        23.2256 
  59   0.0000       0.860365        23.4117 
  60   0.0000       0.863783        23.5047 
  61   0.0000       0.947012        25.7695 
  62   0.0000       0.957234        26.0477 
  63   0.0000       0.987752        26.8781 
  64   0.0000       1.035111        28.1668 
  65   0.0000       1.096526        29.8380 
  66   0.0000       1.101437        29.9716 
  67   0.0000       1.126932        30.6654 
  68   0.0000       1.167025        31.7564 
  69   0.0000       1.169727        31.8299 
  70   0.0000       1.215432        33.0736 
  71   0.0000       1.312149        35.7054 
  72   0.0000       1.373268        37.3685 
  73   0.0000       1.629138        44.3311 
  74   0.0000       1.633527        44.4505 
  75   0.0000       1.649129        44.8751 
  76   0.0000       1.665624        45.3239 
  77   0.0000       1.689617        45.9768 
  78   0.0000       1.746453        47.5234 
  79   0.0000       1.782290        48.4986 
  80   0.0000       1.787656        48.6446 
  81   0.0000       1.848052        50.2880 
  82   0.0000       1.872174        50.9444 
  83   0.0000       1.958616        53.2966 
  84   0.0000       2.060782        56.0767 
  85   0.0000       2.076808        56.5128 
  86   0.0000       2.098176        57.0943 
  87   0.0000       2.112180        57.4753 
  88   0.0000       2.129537        57.9476 
  89   0.0000       2.206752        60.0488 
  90   0.0000       2.315983        63.0211 
  91   0.0000       2.341524        63.7161 
  92   0.0000       2.385914        64.9240 
  93   0.0000       2.476644        67.3929 
  94   0.0000       2.626727        71.4769 
  95   0.0000       2.701882        73.5220 
  96   0.0000       2.708631        73.7056 
  97   0.0000       2.983802        81.1934 
  98   0.0000       3.006563        81.8127 
  99   0.0000       3.007896        81.8490 
 100   0.0000       3.020949        82.2042 
 101   0.0000       3.083885        83.9168 
 102   0.0000       3.153949        85.8233 
 103   0.0000       3.159845        85.9838 
 104   0.0000       3.188512        86.7638 
 105   0.0000       3.340556        90.9011 
 106   0.0000       3.414862        92.9231 
 107   0.0000       3.585349        97.5623 
 108   0.0000       3.807742       103.6139 
 109   0.0000       3.928012       106.8866 

                    ********************************
                    * MULLIKEN POPULATION ANALYSIS *
                    ********************************

-----------------------
MULLIKEN ATOMIC CHARGES
-----------------------
   0 C :    0.858730
   1 C :   -0.142484
   2 O :   -0.549452
   3 O :   -0.584043
   4 H :   -0.214317
   5 H :   -0.182488
   6 H :   -0.185946
Sum of atomic charges:   -1.0000000

--------------------------------
MULLIKEN REDUCED ORBITAL CHARGES
--------------------------------
  0 C s       :     2.281843  s :     2.281843
      pz      :     0.881857  p :     2.781596
      px      :     0.846813
      py      :     1.052926
      dz2     :    -0.010511  d :     0.077831
      dxz     :     0.003194
      dyz     :     0.012508
      dx2y2   :     0.045207
      dxy     :     0.027434
  1 C s       :     3.161116  s :     3.161116
      pz      :     0.784782  p :     2.601750
      px      :     0.895328
      py      :     0.921639
      dz2     :     0.041252  d :     0.379617
      dxz     :     0.046345
      dyz     :     0.066291
      dx2y2   :     0.133440
      dxy     :     0.092290
  2 O s       :     3.813645  s :     3.813645
      pz      :     1.587102  p :     4.712707
      px      :     1.671364
      py      :     1.454241
      dz2     :     0.004359  d :     0.023100
      dxz     :     0.003898
      dyz     :     0.005482
      dx2y2   :     0.007799
      dxy     :     0.001563
  3 O s       :     3.836254  s :     3.836254
      pz      :     1.568493  p :     4.727055
      px      :     1.267340
      py      :     1.891223
      dz2     :     0.005062  d :     0.020734
      dxz     :     0.009263
      dyz     :     0.001102
      dx2y2   :     0.001086
      dxy     :     0.004221
  4 H s       :     1.105118  s :     1.105118
      pz      :    -0.006434  p :     0.109198
      px      :     0.081592
      py      :     0.034041
  5 H s       :     1.109515  s :     1.109515
      pz      :     0.033253  p :     0.072973
      px      :     0.026763
      py      :     0.012957
  6 H s       :     1.111897  s :     1.111897
      pz      :     0.079473  p :     0.074049
      px      :    -0.011400
      py      :     0.005976


                     *******************************
                     * LOEWDIN POPULATION ANALYSIS *
                     *******************************

----------------------
LOEWDIN ATOMIC CHARGES
----------------------
   0 C :    0.155220
   1 C :   -0.358361
   2 O :   -0.322221
   3 O :   -0.328524
   4 H :   -0.053985
   5 H :   -0.047576
   6 H :   -0.044554

-------------------------------
LOEWDIN REDUCED ORBITAL CHARGES
-------------------------------
  0 C s       :     2.715980  s :     2.715980
      pz      :     0.918306  p :     2.747509
      px      :     0.912858
      py      :     0.916345
      dz2     :     0.055069  d :     0.381291
      dxz     :     0.037627
      dyz     :     0.100299
      dx2y2   :     0.113255
      dxy     :     0.075041
  1 C s       :     2.682354  s :     2.682354
      pz      :     0.681431  p :     2.464465
      px      :     0.904257
      py      :     0.878777
      dz2     :     0.112223  d :     1.211542
      dxz     :     0.210307
      dyz     :     0.162727
      dx2y2   :     0.362189
      dxy     :     0.364095
  2 O s       :     3.478199  s :     3.478199
      pz      :     1.454762  p :     4.613900
      px      :     1.624342
      py      :     1.534796
      dz2     :     0.027850  d :     0.230122
      dxz     :     0.025460
      dyz     :     0.031634
      dx2y2   :     0.083843
      dxy     :     0.061335
  3 O s       :     3.478933  s :     3.478933
      pz      :     1.453865  p :     4.619262
      px      :     1.447743
      py      :     1.717654
      dz2     :     0.029107  d :     0.230329
      dxz     :     0.055243
      dyz     :     0.007538
      dx2y2   :     0.055186
      dxy     :     0.083255
  4 H s       :     0.749025  s :     0.749025
      pz      :     0.083140  p :     0.304959
      px      :     0.134485
      py      :     0.087335
  5 H s       :     0.748305  s :     0.748305
      pz      :     0.106281  p :     0.299271
      px      :     0.095120
      py      :     0.097870
  6 H s       :     0.746509  s :     0.746509
      pz      :     0.125137  p :     0.298045
      px      :     0.082009
      py      :     0.090899


                      *****************************
                      * MAYER POPULATION ANALYSIS *
                      *****************************

  NA   - Mulliken gross atomic population
  ZA   - Total nuclear charge
  QA   - Mulliken gross atomic charge
  VA   - Mayer's total valence
  BVA  - Mayer's bonded valence
  FA   - Mayer's free valence

  ATOM       NA         ZA         QA         VA         BVA        FA
  0 C      5.1413     6.0000     0.8587     3.6266     3.6266    -0.0000
  1 C      6.1425     6.0000    -0.1425     5.1096     5.1096     0.0000
  2 O      8.5495     8.0000    -0.5495     1.5466     1.5466     0.0000
  3 O      8.5840     8.0000    -0.5840     1.6280     1.6280     0.0000
  4 H      1.2143     1.0000    -0.2143     1.2148     1.2148    -0.0000
  5 H      1.1825     1.0000    -0.1825     1.1093     1.1093    -0.0000
  6 H      1.1859     1.0000    -0.1859     1.1101     1.1101    -0.0000

  Mayer bond orders larger than 0.100000
B(  0-C ,  1-C ) :   1.2159 B(  0-C ,  4-H ) :   0.7904 B(  0-C ,  5-H ) :   0.7331 
B(  0-C ,  6-H ) :   0.7475 B(  1-C ,  2-O ) :   1.5533 B(  1-C ,  3-O ) :   1.5774 
B(  1-C ,  4-H ) :   0.3158 B(  1-C ,  5-H ) :   0.2305 B(  1-C ,  6-H ) :   0.2168 


-------
TIMINGS
-------

Total SCF time: 0 days 0 hours 0 min 2 sec 

Total time                  ....       2.486 sec
Sum of individual times     ....       2.350 sec  ( 94.5%)

Fock matrix formation       ....       1.939 sec  ( 78.0%)
  Split-RI-J                ....       0.426 sec  ( 22.0% of F)
  XC integration            ....       1.478 sec  ( 76.2% of F)
    Basis function eval.    ....       0.508 sec  ( 34.4% of XC)
    Density eval.           ....       0.310 sec  ( 21.0% of XC)
    XC-Functional eval.     ....       0.114 sec  (  7.7% of XC)
    XC-Potential eval.      ....       0.429 sec  ( 29.0% of XC)
Diagonalization             ....       0.027 sec  (  1.1%)
Density matrix formation    ....       0.003 sec  (  0.1%)
Population analysis         ....       0.006 sec  (  0.2%)
Initial guess               ....       0.051 sec  (  2.0%)
Orbital Transformation      ....       0.000 sec  (  0.0%)
Orbital Orthonormalization  ....       0.000 sec  (  0.0%)
DIIS solution               ....       0.022 sec  (  0.9%)
SOSCF solution              ....       0.028 sec  (  1.1%)
Grid generation             ....       0.274 sec  ( 11.0%)

Maximum memory used throughout the entire SCF-calculation: 11.9 MB


-------------------------------------------------------------------------------
                          DFT DISPERSION CORRECTION                            
                                                                               
                              DFTD3 V3.1  Rev 1                                
                          USING Becke-Johnson damping                          
-------------------------------------------------------------------------------
The BLYP functional is recognized
Active option DFTDOPT                   ...         4   

molecular C6(AA) [au] = 468.923269 


            DFT-D V3
 parameters
 s6 scaling factor         :     1.0000 
 a1 scaling factor         :     0.4298 
 s8 scaling factor         :     2.6996 
 a2 scaling factor         :     4.2359 
 ad hoc parameters k1-k3   :    16.0000     1.3333    -4.0000 

 Edisp/kcal,au: -4.840950589352  -0.007714544996 
 E6   /kcal   :  -1.962163681 
 E8   /kcal   :  -2.878786908 
 % E8         :  59.467388794 

-------------------------   ----------------
Dispersion correction           -0.007714545
-------------------------   ----------------


-------------------------   --------------------
FINAL SINGLE POINT ENERGY      -228.325441303108
-------------------------   --------------------


                            ***************************************
                            *     ORCA property calculations      *
                            ***************************************

                                    ---------------------
                                    Active property flags
                                    ---------------------
   (+) Dipole Moment


------------------------------------------------------------------------------
                       ORCA ELECTRIC PROPERTIES CALCULATION
------------------------------------------------------------------------------

Dipole Moment Calculation                       ... on
Quadrupole Moment Calculation                   ... off
Polarizability Calculation                      ... off
GBWName                                         ... 18Feb_SVPD_BLYP_A_wt_wb97_typm1_neg.gbw
Electron density file                           ... 18Feb_SVPD_BLYP_A_wt_wb97_typm1_neg.scfp
The origin for moment calculation is the CENTER OF MASS  = ( 0.675005, -0.545245 -10.048523)

-------------
DIPOLE MOMENT
-------------
                                X             Y             Z
Electronic contribution:      1.55660      -3.29963       0.19345
Nuclear contribution   :     -2.15615       4.52621      -0.30445
                        -----------------------------------------
Total Dipole Moment    :     -0.59954       1.22658      -0.11099
                        -----------------------------------------
Magnitude (a.u.)       :      1.36977
Magnitude (Debye)      :      3.48168



--------------------
Rotational spectrum 
--------------------
 
Rotational constants in cm-1:     0.393591     0.332639     0.186460 
Rotational constants in MHz : 11799.557437  9972.275109  5589.926304 

 Dipole components along the rotational axes: 
x,y,z [a.u.] :    -1.366317    -0.096120    -0.014574 
x,y,z [Debye]:    -3.472901    -0.244318    -0.037045 

 

Timings for individual modules:

Sum of individual times         ...        3.367 sec (=   0.056 min)
GTO integral calculation        ...        0.513 sec (=   0.009 min)  15.2 %
SCF iterations                  ...        2.854 sec (=   0.048 min)  84.8 %
                             ****ORCA TERMINATED NORMALLY****
TOTAL RUN TIME: 0 days 0 hours 0 minutes 3 seconds 939 msec
