
                                        *****************
                                        * O   R   C   A *
                                        *****************

                                            #,                                       
                                            ###                                      
                                            ####                                     
                                            #####                                    
                                            ######                                   
                                           ########,                                 
                                     ,,################,,,,,                         
                               ,,#################################,,                 
                          ,,##########################################,,             
                       ,#########################################, ''#####,          
                    ,#############################################,,   '####,        
                  ,##################################################,,,,####,       
                ,###########''''           ''''###############################       
              ,#####''   ,,,,##########,,,,          '''####'''          '####       
            ,##' ,,,,###########################,,,                        '##       
           ' ,,###''''                  '''############,,,                           
         ,,##''                                '''############,,,,        ,,,,,,###''
      ,#''                                            '''#######################'''  
     '                                                          ''''####''''         
             ,#######,   #######,   ,#######,      ##                                
            ,#'     '#,  ##    ##  ,#'     '#,    #''#        ######   ,####,        
            ##       ##  ##   ,#'  ##            #'  '#       #        #'  '#        
            ##       ##  #######   ##           ,######,      #####,   #    #        
            '#,     ,#'  ##    ##  '#,     ,#' ,#      #,         ##   #,  ,#        
             '#######'   ##     ##  '#######'  #'      '#     #####' # '####'        



                  #######################################################
                  #                        -***-                        #
                  #          Department of theory and spectroscopy      #
                  #    Directorship and core code : Frank Neese         #
                  #        Max Planck Institute fuer Kohlenforschung    #
                  #                Kaiser Wilhelm Platz 1               #
                  #                 D-45470 Muelheim/Ruhr               #
                  #                      Germany                        #
                  #                                                     #
                  #                  All rights reserved                #
                  #                        -***-                        #
                  #######################################################


                         Program Version 5.0.0 -  RELEASE  -
                                (SVN: $Rev: 19529$)
                ($Date: 2021-06-28 11:36:33 +0200 (Mo, 28 Jun 2021) $)


 With contributions from (in alphabetic order):
   Daniel Aravena         : Magnetic Suceptibility
   Michael Atanasov       : Ab Initio Ligand Field Theory (pilot matlab implementation)
   Alexander A. Auer      : GIAO ZORA, VPT2 properties, NMR spectrum
   Ute Becker             : Parallelization
   Giovanni Bistoni       : ED, misc. LED, open-shell LED, HFLD
   Martin Brehm           : Molecular dynamics
   Dmytro Bykov           : SCF Hessian
   Vijay G. Chilkuri      : MRCI spin determinant printing, contributions to CSF-ICE
   Dipayan Datta          : RHF DLPNO-CCSD density
   Achintya Kumar Dutta   : EOM-CC, STEOM-CC
   Dmitry Ganyushin       : Spin-Orbit,Spin-Spin,Magnetic field MRCI
   Miquel Garcia          : C-PCM Hessian, Gaussian charge scheme
   Yang Guo               : DLPNO-NEVPT2, F12-NEVPT2, CIM, IAO-localization
   Andreas Hansen         : Spin unrestricted coupled pair/coupled cluster methods
   Benjamin Helmich-Paris : MC-RPA, TRAH-SCF, COSX integrals
   Lee Huntington         : MR-EOM, pCC
   Robert Izsak           : Overlap fitted RIJCOSX, COSX-SCS-MP3, EOM
   Marcus Kettner         : VPT2
   Christian Kollmar      : KDIIS, OOCD, Brueckner-CCSD(T), CCSD density, CASPT2, CASPT2-K
   Simone Kossmann        : Meta GGA functionals, TD-DFT gradient, OOMP2, MP2 Hessian
   Martin Krupicka        : Initial AUTO-CI
   Lucas Lang             : DCDCAS
   Marvin Lechner         : AUTO-CI (C++ implementation), FIC-MRCC
   Dagmar Lenk            : GEPOL surface, SMD
   Dimitrios Liakos       : Extrapolation schemes; Compound Job, initial MDCI parallelization
   Dimitrios Manganas     : Further ROCIS development; embedding schemes
   Dimitrios Pantazis     : SARC Basis sets
   Anastasios Papadopoulos: AUTO-CI, single reference methods and gradients
   Taras Petrenko         : DFT Hessian,TD-DFT gradient, ASA, ECA, R-Raman, ABS, FL, XAS/XES, NRVS
   Peter Pinski           : DLPNO-MP2, DLPNO-MP2 Gradient
   Christoph Reimann      : Effective Core Potentials
   Marius Retegan         : Local ZFS, SOC
   Christoph Riplinger    : Optimizer, TS searches, QM/MM, DLPNO-CCSD(T), (RO)-DLPNO pert. Triples
   Tobias Risthaus        : Range-separated hybrids, TD-DFT gradient, RPA, STAB
   Michael Roemelt        : Original ROCIS implementation
   Masaaki Saitow         : Open-shell DLPNO-CCSD energy and density
   Barbara Sandhoefer     : DKH picture change effects
   Avijit Sen             : IP-ROCIS
   Kantharuban Sivalingam : CASSCF convergence, NEVPT2, FIC-MRCI
   Bernardo de Souza      : ESD, SOC TD-DFT
   Georgi Stoychev        : AutoAux, RI-MP2 NMR
   Willem Van den Heuvel  : Paramagnetic NMR
   Boris Wezisla          : Elementary symmetry handling
   Frank Wennmohs         : Technical directorship


 We gratefully acknowledge several colleagues who have allowed us to
 interface, adapt or use parts of their codes:
   Stefan Grimme, W. Hujo, H. Kruse, P. Pracht,  : VdW corrections, initial TS optimization,
                  C. Bannwarth, S. Ehlert          DFT functionals, gCP, sTDA/sTD-DF
   Ed Valeev, F. Pavosevic, A. Kumar             : LibInt (2-el integral package), F12 methods
   Garnet Chan, S. Sharma, J. Yang, R. Olivares  : DMRG
   Ulf Ekstrom                                   : XCFun DFT Library
   Mihaly Kallay                                 : mrcc  (arbitrary order and MRCC methods)
   Jiri Pittner, Ondrej Demel                    : Mk-CCSD
   Frank Weinhold                                : gennbo (NPA and NBO analysis)
   Christopher J. Cramer and Donald G. Truhlar   : smd solvation model
   Lars Goerigk                                  : TD-DFT with DH, B97 family of functionals
   V. Asgeirsson, H. Jonsson                     : NEB implementation
   FAccTs GmbH                                   : IRC, NEB, NEB-TS, DLPNO-Multilevel, CI-OPT
                                                   MM, QMMM, 2- and 3-layer-ONIOM, Crystal-QMMM,
                                                   LR-CPCM, SF, NACMEs, symmetry and pop. for TD-DFT,
                                                   nearIR, NL-DFT gradient (VV10), updates on ESD,
                                                   ML-optimized integration grids
   S Lehtola, MJT Oliveira, MAL Marques          : LibXC Library
   Liviu Ungur et al                             : ANISO software


 Your calculation uses the libint2 library for the computation of 2-el integrals
 For citations please refer to: http://libint.valeyev.net

 Your ORCA version has been built with support for libXC version: 5.1.0
 For citations please refer to: https://tddft.org/programs/libxc/

 This ORCA versions uses:
   CBLAS   interface :  Fast vector & matrix operations
   LAPACKE interface :  Fast linear algebra routines
   SCALAPACK package :  Parallel linear algebra routines
   Shared memory     :  Shared parallel matrices
   BLAS/LAPACK       :  OpenBLAS 0.3.15  USE64BITINT DYNAMIC_ARCH NO_AFFINITY Haswell SINGLE_THREADED
        Core in use  :  Haswell
   Copyright (c) 2011-2014, The OpenBLAS Project


Your calculation utilizes the atom-pairwise dispersion correction
with the Becke-Johnson damping scheme (D3BJ)
Cite in your paper:
S.Grimme, S.Ehrlich, L.Goerigk, J Comput Chem, (2011), 32, 1456–1465 
S.Grimme, J.Antony, S.Ehrlich and H.Krieg, J.Chem.Phys., 132, (2010), 154104 
   

================================================================================

----- Orbital basis set information -----
Your calculation utilizes the basis: def2-SVPD
   F. Weigend and R. Ahlrichs, Phys. Chem. Chem. Phys. 7, 3297 (2005).
   D. Rappoport and F. Furche, J. Chem. Phys. 133 134105 (2010).

----- AuxJ basis set information -----
Your calculation utilizes the auxiliary basis: def2/J
   F. Weigend, Phys. Chem. Chem. Phys. 8, 1057 (2006).

================================================================================
                                        WARNINGS
                       Please study these warnings very carefully!
================================================================================


INFO   : the flag for use of the SHARK integral package has been found!

================================================================================
                                       INPUT FILE
================================================================================
NAME = 14Feb_SVPD_PBE0_C3_wt_wb97_typ1_pos.com
|  1> !PBE0 D3BJ RIJCOSX def2-SVPD def2/J TightSCF 
|  2> *xyz 0 1
|  3> C          4.99986       -1.59613       -5.92488
|  4> N          5.28156       -1.97413       -4.53576
|  5> C          3.76678       -2.26611       -6.51175
|  6> C          2.49670       -1.84416       -5.73570
|  7> C          4.79250       -1.36132       -3.45730
|  8> N          3.93990       -0.37492       -3.55736
|  9> C          5.25986       -1.75422       -2.23913
| 10> H          5.92282       -2.52145       -2.18672
| 11> H          4.65468       -1.64040       -1.44202
| 12> H          5.70914       -2.87560       -4.38702
| 13> H          3.33010       -0.31764       -4.36125
| 14> H          3.69849        0.11447       -2.70833
| 15> H          4.84333       -0.51793       -5.94302
| 16> H          5.90170       -1.82250       -6.49647
| 17> H          3.88619       -3.35708       -6.53360
| 18> H          3.68560       -1.92217       -7.54713
| 19> H          1.64155       -2.32499       -6.16281
| 20> H          2.37707       -0.78268       -5.79763
| 21> H          2.59306       -2.13299       -4.70994
| 22> *
| 23> 
| 24> %MaxCore 64000
| 25> 
| 26> %pal nprocs 4
| 27> end  
| 28> 
| 29> %scf
| 30>   MaxIter 150
| 31> end
| 32> 
| 33> 
| 34>                          ****END OF INPUT****
================================================================================

                       ****************************
                       * Single Point Calculation *
                       ****************************

---------------------------------
CARTESIAN COORDINATES (ANGSTROEM)
---------------------------------
  C      4.999860   -1.596130   -5.924880
  N      5.281560   -1.974130   -4.535760
  C      3.766780   -2.266110   -6.511750
  C      2.496700   -1.844160   -5.735700
  C      4.792500   -1.361320   -3.457300
  N      3.939900   -0.374920   -3.557360
  C      5.259860   -1.754220   -2.239130
  H      5.922820   -2.521450   -2.186720
  H      4.654680   -1.640400   -1.442020
  H      5.709140   -2.875600   -4.387020
  H      3.330100   -0.317640   -4.361250
  H      3.698490    0.114470   -2.708330
  H      4.843330   -0.517930   -5.943020
  H      5.901700   -1.822500   -6.496470
  H      3.886190   -3.357080   -6.533600
  H      3.685600   -1.922170   -7.547130
  H      1.641550   -2.324990   -6.162810
  H      2.377070   -0.782680   -5.797630
  H      2.593060   -2.132990   -4.709940

----------------------------
CARTESIAN COORDINATES (A.U.)
----------------------------
  NO LB      ZA    FRAG     MASS         X           Y           Z
   0 C     6.0000    0    12.011    9.448366   -3.016249  -11.196401
   1 N     7.0000    0    14.007    9.980702   -3.730565   -8.571344
   2 C     6.0000    0    12.011    7.118183   -4.282327  -12.305424
   3 C     6.0000    0    12.011    4.718079   -3.484957  -10.838902
   4 C     6.0000    0    12.011    9.056512   -2.572522   -6.533350
   5 N     7.0000    0    14.007    7.445332   -0.708496   -6.722436
   6 C     6.0000    0    12.011    9.939695   -3.314995   -4.231342
   7 H     1.0000    0     1.008   11.192508   -4.764850   -4.132302
   8 H     1.0000    0     1.008    8.796070   -3.099907   -2.725023
   9 H     1.0000    0     1.008   10.788711   -5.434096   -8.290266
  10 H     1.0000    0     1.008    6.292977   -0.600253   -8.241568
  11 H     1.0000    0     1.008    6.989133    0.216317   -5.118002
  12 H     1.0000    0     1.008    9.152567   -0.978746  -11.230680
  13 H     1.0000    0     1.008   11.152597   -3.444026  -12.276549
  14 H     1.0000    0     1.008    7.343835   -6.343962  -12.346715
  15 H     1.0000    0     1.008    6.964775   -3.632375  -14.262009
  16 H     1.0000    0     1.008    3.102080   -4.393594  -11.646023
  17 H     1.0000    0     1.008    4.492011   -1.479051  -10.955933
  18 H     1.0000    0     1.008    4.900173   -4.030767   -8.900497

--------------------------------
INTERNAL COORDINATES (ANGSTROEM)
--------------------------------
 C      0   0   0     0.000000000000     0.00000000     0.00000000
 N      1   0   0     1.466933285600     0.00000000     0.00000000
 C      1   2   0     1.521110082703   114.04948771     0.00000000
 C      3   1   2     1.547061282367   110.60000472    62.81941014
 C      2   1   3     1.333338573394   125.24465126   271.38369046
 N      5   2   1     1.307640517726   121.59821647     3.37662360
 C      5   2   1     1.362620243685   117.69524840   186.46465187
 H      7   5   2     1.015334744112   119.20799220   357.06852641
 H      7   5   2     1.007264700513   117.95745335   207.37675318
 H      2   1   3     1.008759835095   116.82696572    77.45307476
 H      6   5   2     1.010631570109   119.80406451    27.35455603
 H      6   5   2     1.009273650255   117.21677800   187.25423597
 H      1   2   3     1.089654046246   107.35684638   119.90287312
 H      1   2   3     1.091454942084   106.48717401   235.80932251
 H      3   1   2     1.097702924976   110.93137330   298.25148283
 H      3   1   2     1.094027723780   106.66746513   181.39983442
 H      4   3   1     1.070000917523   109.47042451   179.99973760
 H      4   3   1     1.069993669234   109.47079675    59.99999653
 H      4   3   1     1.069996072937   109.47126304   299.99955031

---------------------------
INTERNAL COORDINATES (A.U.)
---------------------------
 C      0   0   0     0.000000000000     0.00000000     0.00000000
 N      1   0   0     2.772102166517     0.00000000     0.00000000
 C      1   2   0     2.874481475855   114.04948771     0.00000000
 C      3   1   2     2.923522136067   110.60000472    62.81941014
 C      2   1   3     2.519644747508   125.24465126   271.38369046
 N      5   2   1     2.471082460122   121.59821647     3.37662360
 C      5   2   1     2.574979085102   117.69524840   186.46465187
 H      7   5   2     1.918704600626   119.20799220   357.06852641
 H      7   5   2     1.903454428336   117.95745335   207.37675318
 H      2   1   3     1.906279823228   116.82696572    77.45307476
 H      6   5   2     1.909816889800   119.80406451    27.35455603
 H      6   5   2     1.907250793166   117.21677800   187.25423597
 H      1   2   3     2.059147728124   107.35684638   119.90287312
 H      1   2   3     2.062550928054   106.48717401   235.80932251
 H      3   1   2     2.074357904608   110.93137330   298.25148283
 H      3   1   2     2.067412780862   106.66746513   181.39983442
 H      4   3   1     2.022008697163   109.47042451   179.99973760
 H      4   3   1     2.021994999881   109.47079675    59.99999653
 H      4   3   1     2.021999542222   109.47126304   299.99955031

---------------------
BASIS SET INFORMATION
---------------------
There are 3 groups of distinct atoms

 Group   1 Type C   : 8s4p2d contracted to 4s2p2d pattern {5111/31/11}
 Group   2 Type N   : 8s4p2d contracted to 4s2p2d pattern {5111/31/11}
 Group   3 Type H   : 4s2p contracted to 2s2p pattern {31/11}

Atom   0C    basis set group =>   1
Atom   1N    basis set group =>   2
Atom   2C    basis set group =>   1
Atom   3C    basis set group =>   1
Atom   4C    basis set group =>   1
Atom   5N    basis set group =>   2
Atom   6C    basis set group =>   1
Atom   7H    basis set group =>   3
Atom   8H    basis set group =>   3
Atom   9H    basis set group =>   3
Atom  10H    basis set group =>   3
Atom  11H    basis set group =>   3
Atom  12H    basis set group =>   3
Atom  13H    basis set group =>   3
Atom  14H    basis set group =>   3
Atom  15H    basis set group =>   3
Atom  16H    basis set group =>   3
Atom  17H    basis set group =>   3
Atom  18H    basis set group =>   3
---------------------------------
AUXILIARY/J BASIS SET INFORMATION
---------------------------------
There are 3 groups of distinct atoms

 Group   1 Type C   : 12s5p4d2f1g contracted to 6s4p3d1f1g pattern {711111/2111/211/2/1}
 Group   2 Type N   : 12s5p4d2f1g contracted to 6s4p3d1f1g pattern {711111/2111/211/2/1}
 Group   3 Type H   : 5s2p1d contracted to 3s1p1d pattern {311/2/1}

Atom   0C    basis set group =>   1
Atom   1N    basis set group =>   2
Atom   2C    basis set group =>   1
Atom   3C    basis set group =>   1
Atom   4C    basis set group =>   1
Atom   5N    basis set group =>   2
Atom   6C    basis set group =>   1
Atom   7H    basis set group =>   3
Atom   8H    basis set group =>   3
Atom   9H    basis set group =>   3
Atom  10H    basis set group =>   3
Atom  11H    basis set group =>   3
Atom  12H    basis set group =>   3
Atom  13H    basis set group =>   3
Atom  14H    basis set group =>   3
Atom  15H    basis set group =>   3
Atom  16H    basis set group =>   3
Atom  17H    basis set group =>   3
Atom  18H    basis set group =>   3


           ************************************************************
           *        Program running with 4 parallel MPI-processes     *
           *              working on a common directory               *
           ************************************************************
------------------------------------------------------------------------------
                           ORCA GTO INTEGRAL CALCULATION
                           -- RI-GTO INTEGRALS CHOSEN --
------------------------------------------------------------------------------
------------------------------------------------------------------------------
                   ___                                                        
                  /   \      - P O W E R E D   B Y -                         
                 /     \                                                     
                 |  |  |   _    _      __       _____    __    __             
                 |  |  |  | |  | |    /  \     |  _  \  |  |  /  |          
                  \  \/   | |  | |   /    \    | | | |  |  | /  /          
                 / \  \   | |__| |  /  /\  \   | |_| |  |  |/  /          
                |  |  |   |  __  | /  /__\  \  |    /   |      \           
                |  |  |   | |  | | |   __   |  |    \   |  |\   \          
                \     /   | |  | | |  |  |  |  | |\  \  |  | \   \       
                 \___/    |_|  |_| |__|  |__|  |_| \__\ |__|  \__/        
                                                                              
                      - O R C A' S   B I G   F R I E N D -                    
                                      &                                       
                       - I N T E G R A L  F E E D E R -                       
                                                                              
 v1 FN, 2020, v2 2021                                                         
------------------------------------------------------------------------------


Reading SHARK input file 14Feb_SVPD_PBE0_C3_wt_wb97_typ1_pos.SHARKINP.tmp ... ok
----------------------
SHARK INTEGRAL PACKAGE
----------------------

Number of atoms                             ...     19
Number of basis functions                   ...    236
Number of shells                            ...    104
Maximum angular momentum                    ...      2
Integral batch strategy                     ... SHARK/LIBINT Hybrid
RI-J (if used) integral strategy            ... SPLIT-RIJ (Revised 2003 algorithm where possible)
Printlevel                                  ...      1
Contraction scheme used                     ... SEGMENTED contraction
Coulomb Range Separation                    ... NOT USED
Exchange Range Separation                   ... NOT USED
Finite Nucleus Model                        ... NOT USED
Auxiliary Coulomb fitting basis             ... AVAILABLE
   # of basis functions in Aux-J            ...    475
   # of shells in Aux-J                     ...    165
   Maximum angular momentum in Aux-J        ...      4
Auxiliary J/K fitting basis                 ... NOT available
Auxiliary Correlation fitting basis         ... NOT available
Auxiliary 'external' fitting basis          ... NOT available
Integral threshold                          ...     2.500000e-11
Primitive cut-off                           ...     2.500000e-12
Primitive pair pre-selection threshold      ...     2.500000e-12

Calculating pre-screening integrals         ... done (  0.1 sec) Dimension = 104
Organizing shell pair data                  ... done (  0.0 sec)
Shell pair information
Total number of shell pairs                 ...      5460
Shell pairs after pre-screening             ...      5344
Total number of primitive shell pairs       ...     14662
Primitive shell pairs kept                  ...     11811
          la=0 lb=0:   1341 shell pairs
          la=1 lb=0:   1930 shell pairs
          la=1 lb=1:    724 shell pairs
          la=2 lb=0:    719 shell pairs
          la=2 lb=1:    525 shell pairs
          la=2 lb=2:    105 shell pairs

Calculating one electron integrals          ... done (  0.0 sec)
Calculating RI/J V-Matrix + Cholesky decomp.... done (  0.0 sec)
Calculating Nuclear repulsion               ... done (  0.0 sec) ENN=    326.708454601633 Eh

SHARK setup successfully completed in   0.2 seconds

Maximum memory used throughout the entire GTOINT-calculation: 10.5 MB


           ************************************************************
           *        Program running with 4 parallel MPI-processes     *
           *              working on a common directory               *
           ************************************************************
-------------------------------------------------------------------------------
                                 ORCA SCF
-------------------------------------------------------------------------------

------------
SCF SETTINGS
------------
Hamiltonian:
 Density Functional     Method          .... DFT(GTOs)
 Exchange Functional    Exchange        .... PBE
   PBE kappa parameter   XKappa         ....  0.804000
   PBE mue parameter    XMuePBE         ....  0.219520
 Correlation Functional Correlation     .... PBE
   PBE beta parameter  CBetaPBE         ....  0.066725
 LDA part of GGA corr.  LDAOpt          .... PW91-LDA
 Gradients option       PostSCFGGA      .... off
 Hybrid DFT is turned on
   Fraction HF Exchange ScalHFX         ....  0.250000
   Scaling of DF-GGA-X  ScalDFX         ....  0.750000
   Scaling of DF-GGA-C  ScalDFC         ....  1.000000
   Scaling of DF-LDA-C  ScalLDAC        ....  1.000000
   Perturbative correction              ....  0.000000
   Density functional embedding theory  .... OFF
   NL short-range parameter             ....  6.900000
 RI-approximation to the Coulomb term is turned on
   Number of AuxJ basis functions       .... 475
   RIJ-COSX (HFX calculated with COS-X)).... on


General Settings:
 Integral files         IntName         .... 14Feb_SVPD_PBE0_C3_wt_wb97_typ1_pos
 Hartree-Fock type      HFTyp           .... RHF
 Total Charge           Charge          ....    0
 Multiplicity           Mult            ....    1
 Number of Electrons    NEL             ....   56
 Basis Dimension        Dim             ....  236
 Nuclear Repulsion      ENuc            ....    326.7084546016 Eh

Convergence Acceleration:
 DIIS                   CNVDIIS         .... on
   Start iteration      DIISMaxIt       ....    12
   Startup error        DIISStart       ....  0.200000
   # of expansion vecs  DIISMaxEq       ....     5
   Bias factor          DIISBfac        ....   1.050
   Max. coefficient     DIISMaxC        ....  10.000
 Trust-Rad. Augm. Hess. CNVTRAH         .... auto
   Auto Start mean grad. ratio tolernc. ....  1.125000
   Auto Start start iteration           ....    20
   Auto Start num. interpolation iter.  ....    10
   Max. Number of Micro iterations      ....    16
   Max. Number of Macro iterations      .... Maxiter - #DIIS iter
   Number of Davidson start vectors     ....     2
   Converg. threshold I  (grad. norm)   ....   1.000e-05
   Converg. threshold II (energy diff.) ....   1.000e-08
   Grad. Scal. Fac. for Micro threshold ....   0.100
   Minimum threshold for Micro iter.    ....   0.010
   NR start threshold (gradient norm)   ....   0.001
   Initial trust radius                 ....   0.400
   Minimum AH scaling param. (alpha)    ....   1.000
   Maximum AH scaling param. (alpha)    .... 1000.000
   Orbital update algorithm             .... Taylor
   White noise on init. David. guess    .... on
   Maximum white noise                  ....   0.010
   Quad. conv. algorithm                .... NR
 SOSCF                  CNVSOSCF        .... on
   Start iteration      SOSCFMaxIt      ....   150
   Startup grad/error   SOSCFStart      ....  0.003300
 Level Shifting         CNVShift        .... on
   Level shift para.    LevelShift      ....    0.2500
   Turn off err/grad.   ShiftErr        ....    0.0010
 Zerner damping         CNVZerner       .... off
 Static damping         CNVDamp         .... on
   Fraction old density DampFac         ....    0.7000
   Max. Damping (<1)    DampMax         ....    0.9800
   Min. Damping (>=0)   DampMin         ....    0.0000
   Turn off err/grad.   DampErr         ....    0.1000
 Fernandez-Rico         CNVRico         .... off

SCF Procedure:
 Maximum # iterations   MaxIter         ....   150
 SCF integral mode      SCFMode         .... Direct
   Integral package                     .... SHARK and LIBINT hybrid scheme
 Reset frequency        DirectResetFreq ....    20
 Integral Threshold     Thresh          ....  2.500e-11 Eh
 Primitive CutOff       TCut            ....  2.500e-12 Eh

Convergence Tolerance:
 Convergence Check Mode ConvCheckMode   .... Total+1el-Energy
 Convergence forced     ConvForced      .... 0
 Energy Change          TolE            ....  1.000e-08 Eh
 1-El. energy change                    ....  1.000e-05 Eh
 Orbital Gradient       TolG            ....  1.000e-05
 Orbital Rotation angle TolX            ....  1.000e-05
 DIIS Error             TolErr          ....  5.000e-07


Diagonalization of the overlap matrix:
Smallest eigenvalue                        ... 4.782e-05
Time for diagonalization                   ...    0.014 sec
Threshold for overlap eigenvalues          ... 1.000e-08
Number of eigenvalues below threshold      ... 0
Time for construction of square roots      ...    0.009 sec
Total time needed                          ...    0.024 sec

Time for model grid setup =    0.123 sec

------------------------------
INITIAL GUESS: MODEL POTENTIAL
------------------------------
Loading Hartree-Fock densities                     ... done
Calculating cut-offs                               ... done
Initializing the effective Hamiltonian             ... done
Setting up the integral package (SHARK)            ... done
Starting the Coulomb interaction                   ... done (   0.1 sec)
Reading the grid                                   ... done
Mapping shells                                     ... done
Starting the XC term evaluation                    ... done (   0.1 sec)
  promolecular density results
     # of electrons  =     55.990601950
     EX              =    -42.295126943
     EC              =     -1.847479741
     EX+EC           =    -44.142606684
Transforming the Hamiltonian                       ... done (   0.0 sec)
Diagonalizing the Hamiltonian                      ... done (   0.0 sec)
Back transforming the eigenvectors                 ... done (   0.0 sec)
Now organizing SCF variables                       ... done
                      ------------------
                      INITIAL GUESS DONE (   0.4 sec)
                      ------------------
-------------------
DFT GRID GENERATION
-------------------

General Integration Accuracy     IntAcc      ... 4.388
Radial Grid Type                 RadialGrid  ... OptM3 with GC (2021)
Angular Grid (max. ang.)         AngularGrid ... 4 (Lebedev-302)
Angular grid pruning method      GridPruning ... 4 (adaptive)
Weight generation scheme         WeightScheme... Becke
Basis function cutoff            BFCut       ... 1.0000e-11
Integration weight cutoff        WCut        ... 1.0000e-14
Angular grids for H and He will be reduced by one unit
Partially contracted basis set               ... off
Rotationally invariant grid construction     ... off

Total number of grid points                  ...    82586
Total number of batches                      ...     1301
Average number of points per batch           ...       63
Average number of grid points per atom       ...     4347
Time for grid setup =    0.509 sec

--------------------
COSX GRID GENERATION
--------------------

GRIDX 1
-------
General Integration Accuracy     IntAcc      ... 3.816
Radial Grid Type                 RadialGrid  ... OptM3 with GC (2021)
Angular Grid (max. ang.)         AngularGrid ... 1 (Lebedev-50)
Angular grid pruning method      GridPruning ... 4 (adaptive)
Weight generation scheme         WeightScheme... Becke
Basis function cutoff            BFCut       ... 1.0000e-11
Integration weight cutoff        WCut        ... 1.0000e-14
Angular grids for H and He will be reduced by one unit
Partially contracted basis set               ... on
Rotationally invariant grid construction     ... off

Total number of grid points                  ...    10310
Total number of batches                      ...      173
Average number of points per batch           ...       59
Average number of grid points per atom       ...      543
UseSFitting                                  ... on

GRIDX 2
-------
General Integration Accuracy     IntAcc      ... 4.020
Radial Grid Type                 RadialGrid  ... OptM3 with GC (2021)
Angular Grid (max. ang.)         AngularGrid ... 2 (Lebedev-110)
Angular grid pruning method      GridPruning ... 4 (adaptive)
Weight generation scheme         WeightScheme... Becke
Basis function cutoff            BFCut       ... 1.0000e-11
Integration weight cutoff        WCut        ... 1.0000e-14
Angular grids for H and He will be reduced by one unit
Partially contracted basis set               ... on
Rotationally invariant grid construction     ... off

Total number of grid points                  ...    22464
Total number of batches                      ...      360
Average number of points per batch           ...       62
Average number of grid points per atom       ...     1182
UseSFitting                                  ... on

GRIDX 3
-------
General Integration Accuracy     IntAcc      ... 4.338
Radial Grid Type                 RadialGrid  ... OptM3 with GC (2021)
Angular Grid (max. ang.)         AngularGrid ... 3 (Lebedev-194)
Angular grid pruning method      GridPruning ... 4 (adaptive)
Weight generation scheme         WeightScheme... Becke
Basis function cutoff            BFCut       ... 1.0000e-11
Integration weight cutoff        WCut        ... 1.0000e-14
Angular grids for H and He will be reduced by one unit
Partially contracted basis set               ... on
Rotationally invariant grid construction     ... off

Total number of grid points                  ...    51239
Total number of batches                      ...      809
Average number of points per batch           ...       63
Average number of grid points per atom       ...     2697
UseSFitting                                  ... on

Time for X-Grid setup             =    0.519 sec

--------------
SCF ITERATIONS
--------------
ITER       Energy         Delta-E        Max-DP      RMS-DP      [F,P]     Damp
               ***  Starting incremental Fock matrix formation  ***
  0   -306.3587273290   0.000000000000 0.18870688  0.00332708  0.2318673 0.7000
  1   -306.4881143935  -0.129387064443 0.15950090  0.00245997  0.1243845 0.7000
                               ***Turning on DIIS***
  2   -306.5440535732  -0.055939179699 0.38609109  0.00510373  0.0489569 0.0000
  3   -306.6198718675  -0.075818294321 0.05372492  0.00130127  0.0705987 0.0000
  4   -306.6424429696  -0.022571102113 0.02330924  0.00049702  0.0137087 0.0000
  5   -306.6434958699  -0.001052900272 0.01049656  0.00021784  0.0033242 0.0000
                      *** Initiating the SOSCF procedure ***
                           *** Shutting down DIIS ***
                      *** Re-Reading the Fockian *** 
                      *** Removing any level shift *** 
ITER      Energy       Delta-E        Grad      Rot      Max-DP    RMS-DP
  6   -306.64358226  -0.0000863884  0.000343  0.000343  0.004457  0.000103
               *** Restarting incremental Fock matrix formation ***
  7   -306.64374683  -0.0001645750  0.000142  0.000606  0.004385  0.000111
  8   -306.64374813  -0.0000012996  0.000098  0.000269  0.001362  0.000033
  9   -306.64374852  -0.0000003897  0.000081  0.000195  0.000807  0.000021
 10   -306.64374864  -0.0000001208  0.000037  0.000066  0.000170  0.000005
 11   -306.64374868  -0.0000000371  0.000013  0.000023  0.000190  0.000005
                  ***Gradient check signals convergence***
              ***Rediagonalizing the Fockian in SOSCF/NRSCF***

               *****************************************************
               *                     SUCCESS                       *
               *           SCF CONVERGED AFTER  12 CYCLES          *
               *****************************************************

Old exchange energy                            =    -10.869111489 Eh
New exchange energy                            =    -10.869128727 Eh
Exchange energy change after final integration =     -0.000017238 Eh
Total energy after final integration           =   -306.643765921 Eh
Final COS-X integration done in                =     3.949 sec

----------------
TOTAL SCF ENERGY
----------------

Total Energy       :         -306.64376592 Eh           -8344.20108 eV

Components:
Nuclear Repulsion  :          326.70845460 Eh            8890.18902 eV
Electronic Energy  :         -633.35222052 Eh          -17234.39010 eV
One Electron Energy:        -1060.23741051 Eh          -28850.52667 eV
Two Electron Energy:          426.88518998 Eh           11616.13657 eV
Max COSX asymmetry :            0.00000523 Eh               0.00014 eV

Virial components:
Potential Energy   :         -610.42663036 Eh          -16610.55308 eV
Kinetic Energy     :          303.78286444 Eh            8266.35199 eV
Virial Ratio       :            2.00941759


DFT components:
N(Alpha)           :       28.000049156936 electrons
N(Beta)            :       28.000049156936 electrons
N(Total)           :       56.000098313872 electrons
E(X)               :      -32.465104335830 Eh       
E(C)               :       -1.857035703290 Eh       
E(XC)              :      -34.322140039120 Eh       
DFET-embed. en.    :        0.000000000000 Eh       

---------------
SCF CONVERGENCE
---------------

  Last Energy change         ...   -2.1279e-09  Tolerance :   1.0000e-08
  Last MAX-Density change    ...    4.4409e-15  Tolerance :   1.0000e-07
  Last RMS-Density change    ...    3.0124e-17  Tolerance :   5.0000e-09
  Last Orbital Gradient      ...    1.4336e-06  Tolerance :   1.0000e-05
  Last Orbital Rotation      ...    2.4955e-06  Tolerance :   1.0000e-05

             **** THE GBW FILE WAS UPDATED (14Feb_SVPD_PBE0_C3_wt_wb97_typ1_pos.gbw) ****
             **** DENSITY 14Feb_SVPD_PBE0_C3_wt_wb97_typ1_pos.scfp WAS UPDATED ****
             **** ENERGY FILE WAS UPDATED (14Feb_SVPD_PBE0_C3_wt_wb97_typ1_pos.en.tmp) ****
             **** THE GBW FILE WAS UPDATED (14Feb_SVPD_PBE0_C3_wt_wb97_typ1_pos.gbw) ****
             **** DENSITY 14Feb_SVPD_PBE0_C3_wt_wb97_typ1_pos.scfp WAS UPDATED ****
----------------
ORBITAL ENERGIES
----------------

  NO   OCC          E(Eh)            E(eV) 
   0   2.0000     -14.398670      -391.8077 
   1   2.0000     -14.395030      -391.7087 
   2   2.0000     -10.278978      -279.7052 
   3   2.0000     -10.270325      -279.4697 
   4   2.0000     -10.242238      -278.7055 
   5   2.0000     -10.232009      -278.4271 
   6   2.0000     -10.140549      -275.9384 
   7   2.0000      -0.990699       -26.9583 
   8   2.0000      -0.905537       -24.6409 
   9   2.0000      -0.813257       -22.1298 
  10   2.0000      -0.734230       -19.9794 
  11   2.0000      -0.690687       -18.7945 
  12   2.0000      -0.620497       -16.8846 
  13   2.0000      -0.614198       -16.7132 
  14   2.0000      -0.561740       -15.2857 
  15   2.0000      -0.517108       -14.0712 
  16   2.0000      -0.494959       -13.4685 
  17   2.0000      -0.476395       -12.9634 
  18   2.0000      -0.467416       -12.7190 
  19   2.0000      -0.420886       -11.4529 
  20   2.0000      -0.408172       -11.1069 
  21   2.0000      -0.399409       -10.8685 
  22   2.0000      -0.387356       -10.5405 
  23   2.0000      -0.366587        -9.9753 
  24   2.0000      -0.363037        -9.8787 
  25   2.0000      -0.356452        -9.6995 
  26   2.0000      -0.266921        -7.2633 
  27   2.0000      -0.168704        -4.5907 
  28   0.0000       0.021060         0.5731 
  29   0.0000       0.041039         1.1167 
  30   0.0000       0.050591         1.3767 
  31   0.0000       0.055641         1.5141 
  32   0.0000       0.071006         1.9322 
  33   0.0000       0.078972         2.1489 
  34   0.0000       0.088909         2.4193 
  35   0.0000       0.094453         2.5702 
  36   0.0000       0.098573         2.6823 
  37   0.0000       0.112258         3.0547 
  38   0.0000       0.123374         3.3572 
  39   0.0000       0.135395         3.6843 
  40   0.0000       0.137837         3.7507 
  41   0.0000       0.151579         4.1247 
  42   0.0000       0.159753         4.3471 
  43   0.0000       0.169979         4.6254 
  44   0.0000       0.176243         4.7958 
  45   0.0000       0.182066         4.9543 
  46   0.0000       0.197404         5.3716 
  47   0.0000       0.202441         5.5087 
  48   0.0000       0.204738         5.5712 
  49   0.0000       0.210430         5.7261 
  50   0.0000       0.229218         6.2373 
  51   0.0000       0.238733         6.4963 
  52   0.0000       0.246270         6.7014 
  53   0.0000       0.255008         6.9391 
  54   0.0000       0.261904         7.1268 
  55   0.0000       0.270536         7.3616 
  56   0.0000       0.277383         7.5480 
  57   0.0000       0.279748         7.6123 
  58   0.0000       0.290335         7.9004 
  59   0.0000       0.305102         8.3022 
  60   0.0000       0.313493         8.5306 
  61   0.0000       0.316372         8.6089 
  62   0.0000       0.320204         8.7132 
  63   0.0000       0.333653         9.0792 
  64   0.0000       0.337726         9.1900 
  65   0.0000       0.344839         9.3835 
  66   0.0000       0.351318         9.5599 
  67   0.0000       0.355984         9.6868 
  68   0.0000       0.363257         9.8847 
  69   0.0000       0.365398         9.9430 
  70   0.0000       0.375307        10.2126 
  71   0.0000       0.375442        10.2163 
  72   0.0000       0.381556        10.3827 
  73   0.0000       0.392652        10.6846 
  74   0.0000       0.397762        10.8237 
  75   0.0000       0.405175        11.0254 
  76   0.0000       0.412688        11.2298 
  77   0.0000       0.416116        11.3231 
  78   0.0000       0.426358        11.6018 
  79   0.0000       0.430901        11.7254 
  80   0.0000       0.443769        12.0756 
  81   0.0000       0.449486        12.2311 
  82   0.0000       0.452808        12.3215 
  83   0.0000       0.458265        12.4700 
  84   0.0000       0.464179        12.6310 
  85   0.0000       0.473540        12.8857 
  86   0.0000       0.480850        13.0846 
  87   0.0000       0.484940        13.1959 
  88   0.0000       0.492197        13.3934 
  89   0.0000       0.501461        13.6455 
  90   0.0000       0.507439        13.8081 
  91   0.0000       0.510864        13.9013 
  92   0.0000       0.514161        13.9910 
  93   0.0000       0.522967        14.2306 
  94   0.0000       0.527053        14.3418 
  95   0.0000       0.531993        14.4763 
  96   0.0000       0.541098        14.7240 
  97   0.0000       0.547816        14.9068 
  98   0.0000       0.554219        15.0811 
  99   0.0000       0.570585        15.5264 
 100   0.0000       0.576173        15.6785 
 101   0.0000       0.582762        15.8578 
 102   0.0000       0.592617        16.1259 
 103   0.0000       0.597344        16.2546 
 104   0.0000       0.608698        16.5635 
 105   0.0000       0.617373        16.7996 
 106   0.0000       0.624995        17.0070 
 107   0.0000       0.631952        17.1963 
 108   0.0000       0.643018        17.4974 
 109   0.0000       0.650936        17.7129 
 110   0.0000       0.661790        18.0082 
 111   0.0000       0.665983        18.1223 
 112   0.0000       0.677749        18.4425 
 113   0.0000       0.682281        18.5658 
 114   0.0000       0.731051        19.8929 
 115   0.0000       0.737377        20.0650 
 116   0.0000       0.744611        20.2619 
 117   0.0000       0.748995        20.3812 
 118   0.0000       0.762833        20.7577 
 119   0.0000       0.780549        21.2398 
 120   0.0000       0.790172        21.5017 
 121   0.0000       0.798387        21.7252 
 122   0.0000       0.826370        22.4867 
 123   0.0000       0.834864        22.7178 
 124   0.0000       0.850788        23.1511 
 125   0.0000       0.908121        24.7112 
 126   0.0000       0.921091        25.0642 
 127   0.0000       0.934784        25.4368 
 128   0.0000       0.960275        26.1304 
 129   0.0000       0.977733        26.6055 
 130   0.0000       1.000923        27.2365 
 131   0.0000       1.006379        27.3850 
 132   0.0000       1.024521        27.8786 
 133   0.0000       1.036475        28.2039 
 134   0.0000       1.045003        28.4360 
 135   0.0000       1.046541        28.4778 
 136   0.0000       1.064650        28.9706 
 137   0.0000       1.072185        29.1756 
 138   0.0000       1.089253        29.6401 
 139   0.0000       1.113486        30.2995 
 140   0.0000       1.132855        30.8266 
 141   0.0000       1.152041        31.3486 
 142   0.0000       1.167732        31.7756 
 143   0.0000       1.172932        31.9171 
 144   0.0000       1.198198        32.6046 
 145   0.0000       1.204260        32.7696 
 146   0.0000       1.223398        33.2904 
 147   0.0000       1.244003        33.8510 
 148   0.0000       1.261840        34.3364 
 149   0.0000       1.288829        35.0708 
 150   0.0000       1.306170        35.5427 
 151   0.0000       1.316218        35.8161 
 152   0.0000       1.344194        36.5774 
 153   0.0000       1.355251        36.8783 
 154   0.0000       1.385644        37.7053 
 155   0.0000       1.394759        37.9533 
 156   0.0000       1.407373        38.2966 
 157   0.0000       1.471514        40.0419 
 158   0.0000       1.494475        40.6667 
 159   0.0000       1.598552        43.4988 
 160   0.0000       1.619215        44.0611 
 161   0.0000       1.633092        44.4387 
 162   0.0000       1.647397        44.8279 
 163   0.0000       1.679620        45.7048 
 164   0.0000       1.682938        45.7951 
 165   0.0000       1.707547        46.4647 
 166   0.0000       1.725808        46.9616 
 167   0.0000       1.745721        47.5035 
 168   0.0000       1.775050        48.3016 
 169   0.0000       1.797045        48.9001 
 170   0.0000       1.801749        49.0281 
 171   0.0000       1.836675        49.9785 
 172   0.0000       1.857036        50.5325 
 173   0.0000       1.876914        51.0734 
 174   0.0000       1.881141        51.1885 
 175   0.0000       1.895306        51.5739 
 176   0.0000       1.912262        52.0353 
 177   0.0000       1.934722        52.6464 
 178   0.0000       1.954413        53.1823 
 179   0.0000       1.971897        53.6580 
 180   0.0000       1.976137        53.7734 
 181   0.0000       2.014204        54.8093 
 182   0.0000       2.027720        55.1771 
 183   0.0000       2.038360        55.4666 
 184   0.0000       2.044463        55.6327 
 185   0.0000       2.066006        56.2189 
 186   0.0000       2.078859        56.5686 
 187   0.0000       2.103497        57.2391 
 188   0.0000       2.119399        57.6718 
 189   0.0000       2.129326        57.9419 
 190   0.0000       2.129759        57.9537 
 191   0.0000       2.168110        58.9973 
 192   0.0000       2.176530        59.2264 
 193   0.0000       2.205244        60.0078 
 194   0.0000       2.220791        60.4308 
 195   0.0000       2.249066        61.2002 
 196   0.0000       2.269222        61.7487 
 197   0.0000       2.282940        62.1220 
 198   0.0000       2.317606        63.0653 
 199   0.0000       2.334227        63.5176 
 200   0.0000       2.358523        64.1787 
 201   0.0000       2.373859        64.5960 
 202   0.0000       2.392055        65.0911 
 203   0.0000       2.453801        66.7713 
 204   0.0000       2.468302        67.1659 
 205   0.0000       2.495115        67.8955 
 206   0.0000       2.519859        68.5689 
 207   0.0000       2.530993        68.8718 
 208   0.0000       2.573506        70.0286 
 209   0.0000       2.609802        71.0163 
 210   0.0000       2.633490        71.6609 
 211   0.0000       2.655785        72.2676 
 212   0.0000       2.684357        73.0451 
 213   0.0000       2.712847        73.8203 
 214   0.0000       2.726720        74.1978 
 215   0.0000       2.737012        74.4779 
 216   0.0000       2.765408        75.2506 
 217   0.0000       2.800059        76.1935 
 218   0.0000       2.853430        77.6458 
 219   0.0000       2.870776        78.1178 
 220   0.0000       2.930646        79.7469 
 221   0.0000       3.032711        82.5243 
 222   0.0000       3.060249        83.2736 
 223   0.0000       3.093888        84.1890 
 224   0.0000       3.113566        84.7244 
 225   0.0000       3.185049        86.6696 
 226   0.0000       3.205037        87.2135 
 227   0.0000       3.230523        87.9070 
 228   0.0000       3.240195        88.1702 
 229   0.0000       3.255778        88.5942 
 230   0.0000       3.298922        89.7682 
 231   0.0000       3.337356        90.8141 
 232   0.0000       3.422252        93.1242 
 233   0.0000       3.482284        94.7578 
 234   0.0000       3.669515        99.8526 
 235   0.0000       3.795183       103.2722 

                    ********************************
                    * MULLIKEN POPULATION ANALYSIS *
                    ********************************

-----------------------
MULLIKEN ATOMIC CHARGES
-----------------------
   0 C :    0.648051
   1 N :   -0.381590
   2 C :   -0.198096
   3 C :    0.308328
   4 C :    0.482248
   5 N :    0.182630
   6 C :    0.309428
   7 H :   -0.219507
   8 H :   -0.233026
   9 H :   -0.301444
  10 H :   -0.392011
  11 H :   -0.076479
  12 H :    0.064970
  13 H :   -0.334132
  14 H :   -0.066209
  15 H :    0.059245
  16 H :   -0.306212
  17 H :    0.243807
  18 H :    0.210000
Sum of atomic charges:    0.0000000

--------------------------------
MULLIKEN REDUCED ORBITAL CHARGES
--------------------------------
  0 C s       :     2.752336  s :     2.752336
      pz      :     0.826066  p :     2.556838
      px      :     0.812829
      py      :     0.917944
      dz2     :     0.027683  d :     0.042775
      dxz     :     0.033979
      dyz     :    -0.058174
      dx2y2   :     0.039295
      dxy     :    -0.000008
  1 N s       :     3.383405  s :     3.383405
      pz      :     1.073369  p :     3.821474
      px      :     1.533859
      py      :     1.214245
      dz2     :     0.058952  d :     0.176711
      dxz     :     0.063376
      dyz     :     0.044380
      dx2y2   :     0.015802
      dxy     :    -0.005800
  2 C s       :     2.866193  s :     2.866193
      pz      :     0.960665  p :     2.918685
      px      :     0.971190
      py      :     0.986829
      dz2     :     0.155646  d :     0.413218
      dxz     :     0.039188
      dyz     :     0.023942
      dx2y2   :     0.093675
      dxy     :     0.100767
  3 C s       :     2.753524  s :     2.753524
      pz      :     1.005865  p :     2.821235
      px      :     0.905328
      py      :     0.910042
      dz2     :     0.047085  d :     0.116913
      dxz     :     0.047936
      dyz     :    -0.003360
      dx2y2   :     0.015873
      dxy     :     0.009379
  4 C s       :     2.774866  s :     2.774866
      pz      :     0.759097  p :     2.382952
      px      :     0.857153
      py      :     0.766702
      dz2     :     0.071109  d :     0.359933
      dxz     :     0.156277
      dyz     :     0.045596
      dx2y2   :     0.031270
      dxy     :     0.055680
  5 N s       :     3.138789  s :     3.138789
      pz      :     1.068314  p :     3.674065
      px      :     1.308511
      py      :     1.297239
      dz2     :    -0.003415  d :     0.004516
      dxz     :    -0.011335
      dyz     :    -0.016470
      dx2y2   :     0.018069
      dxy     :     0.017667
  6 C s       :     2.858260  s :     2.858260
      pz      :     0.940788  p :     2.752988
      px      :     0.888028
      py      :     0.924172
      dz2     :     0.023927  d :     0.079325
      dxz     :     0.034196
      dyz     :     0.011513
      dx2y2   :     0.010126
      dxy     :    -0.000437
  7 H s       :     1.147932  s :     1.147932
      pz      :     0.003372  p :     0.071575
      px      :     0.010733
      py      :     0.057470
  8 H s       :     1.146673  s :     1.146673
      pz      :     0.023649  p :     0.086354
      px      :     0.062061
      py      :     0.000643
  9 H s       :     1.257308  s :     1.257308
      pz      :    -0.019359  p :     0.044136
      px      :     0.043498
      py      :     0.019997
 10 H s       :     1.162635  s :     1.162635
      pz      :     0.095277  p :     0.229376
      px      :     0.088086
      py      :     0.046013
 11 H s       :     1.050119  s :     1.050119
      pz      :    -0.031880  p :     0.026360
      px      :     0.023227
      py      :     0.035013
 12 H s       :     0.915562  s :     0.915562
      pz      :     0.028533  p :     0.019467
      px      :    -0.050848
      py      :     0.041782
 13 H s       :     1.281440  s :     1.281440
      pz      :     0.031708  p :     0.052693
      px      :     0.037449
      py      :    -0.016465
 14 H s       :     1.026805  s :     1.026805
      pz      :    -0.008461  p :     0.039404
      px      :    -0.005935
      py      :     0.053800
 15 H s       :     0.929977  s :     0.929977
      pz      :     0.059391  p :     0.010778
      px      :    -0.022296
      py      :    -0.026318
 16 H s       :     1.274368  s :     1.274368
      pz      :     0.011455  p :     0.031844
      px      :     0.023097
      py      :    -0.002708
 17 H s       :     0.747052  s :     0.747052
      pz      :    -0.005281  p :     0.009141
      px      :     0.001709
      py      :     0.012713
 18 H s       :     0.745504  s :     0.745504
      pz      :     0.053779  p :     0.044497
      px      :    -0.001113
      py      :    -0.008170


                     *******************************
                     * LOEWDIN POPULATION ANALYSIS *
                     *******************************

----------------------
LOEWDIN ATOMIC CHARGES
----------------------
   0 C :    0.042148
   1 N :   -0.007140
   2 C :   -0.054380
   3 C :    0.120278
   4 C :   -0.237916
   5 N :    0.207277
   6 C :    0.138411
   7 H :   -0.108368
   8 H :   -0.113624
   9 H :    0.032787
  10 H :   -0.065388
  11 H :    0.019113
  12 H :    0.020264
  13 H :    0.019223
  14 H :    0.023734
  15 H :    0.020478
  16 H :   -0.015336
  17 H :   -0.019495
  18 H :   -0.022067

-------------------------------
LOEWDIN REDUCED ORBITAL CHARGES
-------------------------------
  0 C s       :     2.670249  s :     2.670249
      pz      :     0.797724  p :     2.599881
      px      :     0.900715
      py      :     0.901441
      dz2     :     0.153302  d :     0.687722
      dxz     :     0.205634
      dyz     :     0.104045
      dx2y2   :     0.145555
      dxy     :     0.079186
  1 N s       :     2.908636  s :     2.908636
      pz      :     1.048210  p :     3.495137
      px      :     1.306811
      py      :     1.140116
      dz2     :     0.206159  d :     0.603367
      dxz     :     0.147697
      dyz     :     0.153557
      dx2y2   :     0.047977
      dxy     :     0.047978
  2 C s       :     2.704568  s :     2.704568
      pz      :     0.902260  p :     2.706330
      px      :     0.885683
      py      :     0.918387
      dz2     :     0.158705  d :     0.643482
      dxz     :     0.119170
      dyz     :     0.050893
      dx2y2   :     0.187006
      dxy     :     0.127708
  3 C s       :     2.697629  s :     2.697629
      pz      :     0.928543  p :     2.750732
      px      :     0.908078
      py      :     0.914110
      dz2     :     0.109553  d :     0.431361
      dxz     :     0.091085
      dyz     :     0.045405
      dx2y2   :     0.097985
      dxy     :     0.087334
  4 C s       :     2.628985  s :     2.628985
      pz      :     0.918046  p :     2.504635
      px      :     0.778403
      py      :     0.808186
      dz2     :     0.231866  d :     1.104297
      dxz     :     0.252994
      dyz     :     0.263868
      dx2y2   :     0.205824
      dxy     :     0.149746
  5 N s       :     2.913927  s :     2.913927
      pz      :     1.078207  p :     3.509043
      px      :     1.205919
      py      :     1.224916
      dz2     :     0.043910  d :     0.369753
      dxz     :     0.084122
      dyz     :     0.081156
      dx2y2   :     0.088657
      dxy     :     0.071909
  6 C s       :     2.742401  s :     2.742401
      pz      :     0.912130  p :     2.808736
      px      :     0.952584
      py      :     0.944023
      dz2     :     0.098690  d :     0.310451
      dxz     :     0.088729
      dyz     :     0.057704
      dx2y2   :     0.019906
      dxy     :     0.045422
  7 H s       :     0.769715  s :     0.769715
      pz      :     0.078771  p :     0.338652
      px      :     0.120961
      py      :     0.138920
  8 H s       :     0.770436  s :     0.770436
      pz      :     0.106345  p :     0.343188
      px      :     0.121943
      py      :     0.114900
  9 H s       :     0.643736  s :     0.643736
      pz      :     0.081174  p :     0.323477
      px      :     0.107044
      py      :     0.135258
 10 H s       :     0.627920  s :     0.627920
      pz      :     0.179723  p :     0.437468
      px      :     0.142714
      py      :     0.115031
 11 H s       :     0.647953  s :     0.647953
      pz      :     0.134844  p :     0.332934
      px      :     0.090756
      py      :     0.107334
 12 H s       :     0.716594  s :     0.716594
      pz      :     0.067287  p :     0.263143
      px      :     0.073055
      py      :     0.122800
 13 H s       :     0.739919  s :     0.739919
      pz      :     0.072761  p :     0.240858
      px      :     0.100783
      py      :     0.067314
 14 H s       :     0.733782  s :     0.733782
      pz      :     0.064692  p :     0.242484
      px      :     0.056802
      py      :     0.120990
 15 H s       :     0.728034  s :     0.728034
      pz      :     0.116847  p :     0.251488
      px      :     0.060227
      py      :     0.074414
 16 H s       :     0.743637  s :     0.743637
      pz      :     0.082384  p :     0.271699
      px      :     0.105460
      py      :     0.083854
 17 H s       :     0.723514  s :     0.723514
      pz      :     0.083462  p :     0.295981
      px      :     0.077201
      py      :     0.135317
 18 H s       :     0.715237  s :     0.715237
      pz      :     0.135421  p :     0.306830
      px      :     0.084383
      py      :     0.087026


                      *****************************
                      * MAYER POPULATION ANALYSIS *
                      *****************************

  NA   - Mulliken gross atomic population
  ZA   - Total nuclear charge
  QA   - Mulliken gross atomic charge
  VA   - Mayer's total valence
  BVA  - Mayer's bonded valence
  FA   - Mayer's free valence

  ATOM       NA         ZA         QA         VA         BVA        FA
  0 C      5.3519     6.0000     0.6481     3.8550     3.8550     0.0000
  1 N      7.3816     7.0000    -0.3816     3.9435     3.9435     0.0000
  2 C      6.1981     6.0000    -0.1981     4.8235     4.8235    -0.0000
  3 C      5.6917     6.0000     0.3083     4.2244     4.2244    -0.0000
  4 C      5.5178     6.0000     0.4822     3.8021     3.8021    -0.0000
  5 N      6.8174     7.0000     0.1826     3.8283     3.8283     0.0000
  6 C      5.6906     6.0000     0.3094     3.8000     3.8000    -0.0000
  7 H      1.2195     1.0000    -0.2195     1.1919     1.1919    -0.0000
  8 H      1.2330     1.0000    -0.2330     1.2423     1.2423    -0.0000
  9 H      1.3014     1.0000    -0.3014     0.9045     0.9045     0.0000
 10 H      1.3920     1.0000    -0.3920     1.3324     1.3324     0.0000
 11 H      1.0765     1.0000    -0.0765     0.8589     0.8589     0.0000
 12 H      0.9350     1.0000     0.0650     0.9713     0.9713     0.0000
 13 H      1.3341     1.0000    -0.3341     1.0391     1.0391     0.0000
 14 H      1.0662     1.0000    -0.0662     1.0796     1.0796    -0.0000
 15 H      0.9408     1.0000     0.0592     1.0651     1.0651     0.0000
 16 H      1.3062     1.0000    -0.3062     1.0319     1.0319    -0.0000
 17 H      0.7562     1.0000     0.2438     0.8197     0.8197    -0.0000
 18 H      0.7900     1.0000     0.2100     0.9627     0.9627    -0.0000

  Mayer bond orders larger than 0.100000
B(  0-C ,  1-N ) :   0.9239 B(  0-C ,  2-C ) :   1.0886 B(  0-C ,  9-H ) :  -0.2140 
B(  0-C , 12-H ) :   0.7787 B(  0-C , 13-H ) :   0.9906 B(  0-C , 14-H ) :   0.1309 
B(  0-C , 15-H ) :   0.1095 B(  1-N ,  4-C ) :   0.9898 B(  1-N ,  5-N ) :   0.1369 
B(  1-N ,  6-C ) :   0.2156 B(  1-N ,  9-H ) :   1.2564 B(  1-N , 12-H ) :   0.1716 
B(  1-N , 13-H ) :   0.1264 B(  2-C ,  3-C ) :   1.2898 B(  2-C , 14-H ) :   0.9769 
B(  2-C , 15-H ) :   0.8872 B(  2-C , 16-H ) :   0.1639 B(  2-C , 17-H ) :   0.1123 
B(  2-C , 18-H ) :   0.1316 B(  3-C , 10-H ) :   0.1676 B(  3-C , 16-H ) :   1.0306 
B(  3-C , 17-H ) :   0.6975 B(  3-C , 18-H ) :   0.8082 B(  4-C ,  5-N ) :   1.0337 
B(  4-C ,  6-C ) :   1.7624 B(  4-C ,  7-H ) :   0.1780 B(  4-C ,  8-H ) :   0.1819 
B(  4-C ,  9-H ) :  -0.1632 B(  5-N ,  6-C ) :   0.1595 B(  5-N , 10-H ) :   1.0742 
B(  5-N , 11-H ) :   1.2182 B(  5-N , 12-H ) :   0.1055 B(  6-C ,  7-H ) :   0.7699 
B(  6-C ,  8-H ) :   0.8545 B(  7-H ,  8-H ) :   0.1923 B( 10-H , 11-H ) :  -0.1978 
B( 10-H , 17-H ) :   0.1403 B( 12-H , 13-H ) :  -0.1209 B( 16-H , 17-H ) :  -0.1086 


-------
TIMINGS
-------

Total SCF time: 0 days 0 hours 0 min 29 sec 

Total time                  ....      29.878 sec
Sum of individual times     ....      29.648 sec  ( 99.2%)

Fock matrix formation       ....      28.052 sec  ( 93.9%)
  Split-RI-J                ....       1.943 sec  (  6.9% of F)
  Chain of spheres X        ....      20.627 sec  ( 73.5% of F)
  XC integration            ....       5.428 sec  ( 19.4% of F)
    Basis function eval.    ....       1.670 sec  ( 30.8% of XC)
    Density eval.           ....       1.404 sec  ( 25.9% of XC)
    XC-Functional eval.     ....       0.225 sec  (  4.1% of XC)
    XC-Potential eval.      ....       1.792 sec  ( 33.0% of XC)
Diagonalization             ....       0.085 sec  (  0.3%)
Density matrix formation    ....       0.006 sec  (  0.0%)
Population analysis         ....       0.010 sec  (  0.0%)
Initial guess               ....       0.236 sec  (  0.8%)
Orbital Transformation      ....       0.000 sec  (  0.0%)
Orbital Orthonormalization  ....       0.000 sec  (  0.0%)
DIIS solution               ....       0.051 sec  (  0.2%)
SOSCF solution              ....       0.056 sec  (  0.2%)
Grid generation             ....       1.152 sec  (  3.9%)

Maximum memory used throughout the entire SCF-calculation: 59.3 MB


-------------------------------------------------------------------------------
                          DFT DISPERSION CORRECTION                            
                                                                               
                              DFTD3 V3.1  Rev 1                                
                          USING Becke-Johnson damping                          
-------------------------------------------------------------------------------
The PBE0 functional is recognized
Active option DFTDOPT                   ...         4   

molecular C6(AA) [au] = 2680.438169 


            DFT-D V3
 parameters
 s6 scaling factor         :     1.0000 
 a1 scaling factor         :     0.4145 
 s8 scaling factor         :     1.2177 
 a2 scaling factor         :     4.8593 
 ad hoc parameters k1-k3   :    16.0000     1.3333    -4.0000 

 Edisp/kcal,au: -9.113262548721  -0.014522906750 
 E6   /kcal   :  -5.948674017 
 E8   /kcal   :  -3.164588532 
 % E8         :  34.725089013 

-------------------------   ----------------
Dispersion correction           -0.014522907
-------------------------   ----------------


-------------------------   --------------------
FINAL SINGLE POINT ENERGY      -306.658288827250
-------------------------   --------------------


                            ***************************************
                            *     ORCA property calculations      *
                            ***************************************

                                    ---------------------
                                    Active property flags
                                    ---------------------
   (+) Dipole Moment


------------------------------------------------------------------------------
                       ORCA ELECTRIC PROPERTIES CALCULATION
------------------------------------------------------------------------------

Dipole Moment Calculation                       ... on
Quadrupole Moment Calculation                   ... off
Polarizability Calculation                      ... off
GBWName                                         ... 14Feb_SVPD_PBE0_C3_wt_wb97_typ1_pos.gbw
Electron density file                           ... 14Feb_SVPD_PBE0_C3_wt_wb97_typ1_pos.scfp
The origin for moment calculation is the CENTER OF MASS  = ( 8.184459, -3.002078 -8.655596)

-------------
DIPOLE MOMENT
-------------
                                X             Y             Z
Electronic contribution:      2.74944       0.91505       1.93567
Nuclear contribution   :     -3.49502      -0.96869      -3.10119
                        -----------------------------------------
Total Dipole Moment    :     -0.74558      -0.05364      -1.16552
                        -----------------------------------------
Magnitude (a.u.)       :      1.38463
Magnitude (Debye)      :      3.51945



--------------------
Rotational spectrum 
--------------------
 
Rotational constants in cm-1:     0.153385     0.059790     0.050215 
Rotational constants in MHz :  4598.376479  1792.462869  1505.410199 

 Dipole components along the rotational axes: 
x,y,z [a.u.] :    -1.353595    -0.286936     0.051454 
x,y,z [Debye]:    -3.440564    -0.729333     0.130785 

 

Timings for individual modules:

Sum of individual times         ...       30.460 sec (=   0.508 min)
GTO integral calculation        ...        0.379 sec (=   0.006 min)   1.2 %
SCF iterations                  ...       30.081 sec (=   0.501 min)  98.8 %
                             ****ORCA TERMINATED NORMALLY****
TOTAL RUN TIME: 0 days 0 hours 0 minutes 30 seconds 861 msec
