
                                        *****************
                                        * O   R   C   A *
                                        *****************

                                            #,                                       
                                            ###                                      
                                            ####                                     
                                            #####                                    
                                            ######                                   
                                           ########,                                 
                                     ,,################,,,,,                         
                               ,,#################################,,                 
                          ,,##########################################,,             
                       ,#########################################, ''#####,          
                    ,#############################################,,   '####,        
                  ,##################################################,,,,####,       
                ,###########''''           ''''###############################       
              ,#####''   ,,,,##########,,,,          '''####'''          '####       
            ,##' ,,,,###########################,,,                        '##       
           ' ,,###''''                  '''############,,,                           
         ,,##''                                '''############,,,,        ,,,,,,###''
      ,#''                                            '''#######################'''  
     '                                                          ''''####''''         
             ,#######,   #######,   ,#######,      ##                                
            ,#'     '#,  ##    ##  ,#'     '#,    #''#        ######   ,####,        
            ##       ##  ##   ,#'  ##            #'  '#       #        #'  '#        
            ##       ##  #######   ##           ,######,      #####,   #    #        
            '#,     ,#'  ##    ##  '#,     ,#' ,#      #,         ##   #,  ,#        
             '#######'   ##     ##  '#######'  #'      '#     #####' # '####'        



                  #######################################################
                  #                        -***-                        #
                  #          Department of theory and spectroscopy      #
                  #    Directorship and core code : Frank Neese         #
                  #        Max Planck Institute fuer Kohlenforschung    #
                  #                Kaiser Wilhelm Platz 1               #
                  #                 D-45470 Muelheim/Ruhr               #
                  #                      Germany                        #
                  #                                                     #
                  #                  All rights reserved                #
                  #                        -***-                        #
                  #######################################################


                         Program Version 5.0.0 -  RELEASE  -
                                (SVN: $Rev: 19529$)
                ($Date: 2021-06-28 11:36:33 +0200 (Mo, 28 Jun 2021) $)


 With contributions from (in alphabetic order):
   Daniel Aravena         : Magnetic Suceptibility
   Michael Atanasov       : Ab Initio Ligand Field Theory (pilot matlab implementation)
   Alexander A. Auer      : GIAO ZORA, VPT2 properties, NMR spectrum
   Ute Becker             : Parallelization
   Giovanni Bistoni       : ED, misc. LED, open-shell LED, HFLD
   Martin Brehm           : Molecular dynamics
   Dmytro Bykov           : SCF Hessian
   Vijay G. Chilkuri      : MRCI spin determinant printing, contributions to CSF-ICE
   Dipayan Datta          : RHF DLPNO-CCSD density
   Achintya Kumar Dutta   : EOM-CC, STEOM-CC
   Dmitry Ganyushin       : Spin-Orbit,Spin-Spin,Magnetic field MRCI
   Miquel Garcia          : C-PCM Hessian, Gaussian charge scheme
   Yang Guo               : DLPNO-NEVPT2, F12-NEVPT2, CIM, IAO-localization
   Andreas Hansen         : Spin unrestricted coupled pair/coupled cluster methods
   Benjamin Helmich-Paris : MC-RPA, TRAH-SCF, COSX integrals
   Lee Huntington         : MR-EOM, pCC
   Robert Izsak           : Overlap fitted RIJCOSX, COSX-SCS-MP3, EOM
   Marcus Kettner         : VPT2
   Christian Kollmar      : KDIIS, OOCD, Brueckner-CCSD(T), CCSD density, CASPT2, CASPT2-K
   Simone Kossmann        : Meta GGA functionals, TD-DFT gradient, OOMP2, MP2 Hessian
   Martin Krupicka        : Initial AUTO-CI
   Lucas Lang             : DCDCAS
   Marvin Lechner         : AUTO-CI (C++ implementation), FIC-MRCC
   Dagmar Lenk            : GEPOL surface, SMD
   Dimitrios Liakos       : Extrapolation schemes; Compound Job, initial MDCI parallelization
   Dimitrios Manganas     : Further ROCIS development; embedding schemes
   Dimitrios Pantazis     : SARC Basis sets
   Anastasios Papadopoulos: AUTO-CI, single reference methods and gradients
   Taras Petrenko         : DFT Hessian,TD-DFT gradient, ASA, ECA, R-Raman, ABS, FL, XAS/XES, NRVS
   Peter Pinski           : DLPNO-MP2, DLPNO-MP2 Gradient
   Christoph Reimann      : Effective Core Potentials
   Marius Retegan         : Local ZFS, SOC
   Christoph Riplinger    : Optimizer, TS searches, QM/MM, DLPNO-CCSD(T), (RO)-DLPNO pert. Triples
   Tobias Risthaus        : Range-separated hybrids, TD-DFT gradient, RPA, STAB
   Michael Roemelt        : Original ROCIS implementation
   Masaaki Saitow         : Open-shell DLPNO-CCSD energy and density
   Barbara Sandhoefer     : DKH picture change effects
   Avijit Sen             : IP-ROCIS
   Kantharuban Sivalingam : CASSCF convergence, NEVPT2, FIC-MRCI
   Bernardo de Souza      : ESD, SOC TD-DFT
   Georgi Stoychev        : AutoAux, RI-MP2 NMR
   Willem Van den Heuvel  : Paramagnetic NMR
   Boris Wezisla          : Elementary symmetry handling
   Frank Wennmohs         : Technical directorship


 We gratefully acknowledge several colleagues who have allowed us to
 interface, adapt or use parts of their codes:
   Stefan Grimme, W. Hujo, H. Kruse, P. Pracht,  : VdW corrections, initial TS optimization,
                  C. Bannwarth, S. Ehlert          DFT functionals, gCP, sTDA/sTD-DF
   Ed Valeev, F. Pavosevic, A. Kumar             : LibInt (2-el integral package), F12 methods
   Garnet Chan, S. Sharma, J. Yang, R. Olivares  : DMRG
   Ulf Ekstrom                                   : XCFun DFT Library
   Mihaly Kallay                                 : mrcc  (arbitrary order and MRCC methods)
   Jiri Pittner, Ondrej Demel                    : Mk-CCSD
   Frank Weinhold                                : gennbo (NPA and NBO analysis)
   Christopher J. Cramer and Donald G. Truhlar   : smd solvation model
   Lars Goerigk                                  : TD-DFT with DH, B97 family of functionals
   V. Asgeirsson, H. Jonsson                     : NEB implementation
   FAccTs GmbH                                   : IRC, NEB, NEB-TS, DLPNO-Multilevel, CI-OPT
                                                   MM, QMMM, 2- and 3-layer-ONIOM, Crystal-QMMM,
                                                   LR-CPCM, SF, NACMEs, symmetry and pop. for TD-DFT,
                                                   nearIR, NL-DFT gradient (VV10), updates on ESD,
                                                   ML-optimized integration grids
   S Lehtola, MJT Oliveira, MAL Marques          : LibXC Library
   Liviu Ungur et al                             : ANISO software


 Your calculation uses the libint2 library for the computation of 2-el integrals
 For citations please refer to: http://libint.valeyev.net

 Your ORCA version has been built with support for libXC version: 5.1.0
 For citations please refer to: https://tddft.org/programs/libxc/

 This ORCA versions uses:
   CBLAS   interface :  Fast vector & matrix operations
   LAPACKE interface :  Fast linear algebra routines
   SCALAPACK package :  Parallel linear algebra routines
   Shared memory     :  Shared parallel matrices
   BLAS/LAPACK       :  OpenBLAS 0.3.15  USE64BITINT DYNAMIC_ARCH NO_AFFINITY Haswell SINGLE_THREADED
        Core in use  :  Haswell
   Copyright (c) 2011-2014, The OpenBLAS Project


Your calculation utilizes the atom-pairwise dispersion correction
with the Becke-Johnson damping scheme (D3BJ)
Cite in your paper:
S.Grimme, S.Ehrlich, L.Goerigk, J Comput Chem, (2011), 32, 1456–1465 
S.Grimme, J.Antony, S.Ehrlich and H.Krieg, J.Chem.Phys., 132, (2010), 154104 
   

================================================================================

----- Orbital basis set information -----
Your calculation utilizes the basis: def2-TZVP
   F. Weigend and R. Ahlrichs, Phys. Chem. Chem. Phys. 7, 3297 (2005).

----- AuxJ basis set information -----
Your calculation utilizes the auxiliary basis: def2/J
   F. Weigend, Phys. Chem. Chem. Phys. 8, 1057 (2006).

================================================================================
                                        WARNINGS
                       Please study these warnings very carefully!
================================================================================


INFO   : the flag for use of the SHARK integral package has been found!

================================================================================
                                       INPUT FILE
================================================================================
NAME = TZVP_PBE0_A_wt_dlpno_neg.com
|  1> !PBE0 D3BJ RIJCOSX def2-TZVP def2/J TightSCF
|  2> *xyz -1 1
|  3> C         -0.87096        0.24804       -2.66280
|  4> C         -0.47749        0.60819       -4.10105
|  5> H          0.20677        1.45830       -4.11875
|  6> H         -1.36844        0.92942       -4.64785
|  7> C          0.18467       -0.50664       -4.91676
|  8> O         -0.15869       -1.70109       -4.65798
|  9> O          1.05594       -0.17441       -5.74037
| 10> H         -1.54056       -0.58646       -2.67455
| 11> H         -1.35339        1.08600       -2.20455
| 12> H          0.00660       -0.00662       -2.10609
| 13> *
| 14> 
| 15> %MaxCore 64000
| 16> 
| 17> %pal nprocs 4
| 18> end  
| 19> 
| 20> %scf
| 21>   MaxIter 150
| 22> end
| 23> 
| 24> 
| 25>                          ****END OF INPUT****
================================================================================

                       ****************************
                       * Single Point Calculation *
                       ****************************

---------------------------------
CARTESIAN COORDINATES (ANGSTROEM)
---------------------------------
  C     -0.870960    0.248040   -2.662800
  C     -0.477490    0.608190   -4.101050
  H      0.206770    1.458300   -4.118750
  H     -1.368440    0.929420   -4.647850
  C      0.184670   -0.506640   -4.916760
  O     -0.158690   -1.701090   -4.657980
  O      1.055940   -0.174410   -5.740370
  H     -1.540560   -0.586460   -2.674550
  H     -1.353390    1.086000   -2.204550
  H      0.006600   -0.006620   -2.106090

----------------------------
CARTESIAN COORDINATES (A.U.)
----------------------------
  NO LB      ZA    FRAG     MASS         X           Y           Z
   0 C     6.0000    0    12.011   -1.645876    0.468728   -5.031963
   1 C     6.0000    0    12.011   -0.902325    1.149313   -7.749861
   2 H     1.0000    0     1.008    0.390739    2.755788   -7.783310
   3 H     1.0000    0     1.008   -2.585977    1.756349   -8.783164
   4 C     6.0000    0    12.011    0.348976   -0.957411   -9.291330
   5 O     8.0000    0    15.999   -0.299881   -3.214594   -8.802307
   6 O     8.0000    0    15.999    1.995437   -0.329587  -10.847727
   7 H     1.0000    0     1.008   -2.911236   -1.108249   -5.054167
   8 H     1.0000    0     1.008   -2.557536    2.052243   -4.165996
   9 H     1.0000    0     1.008    0.012472   -0.012510   -3.979933

--------------------------------
INTERNAL COORDINATES (ANGSTROEM)
--------------------------------
 C      0   0   0     0.000000000000     0.00000000     0.00000000
 C      1   0   0     1.533978398120     0.00000000     0.00000000
 H      2   1   0     1.091426612146   111.03194629     0.00000000
 H      2   1   3     1.093604524223   109.19524702   243.60560484
 C      2   1   3     1.531889225303   116.05717792   122.04169196
 O      5   2   1     1.269477837735   117.34060562    31.12046858
 O      5   2   1     1.244114792895   117.44393262   214.04945783
 H      1   2   3     1.069996482471   109.47107572   179.99941746
 H      1   2   3     1.070004078964   109.47075608    60.00022000
 H      1   2   3     1.069994996857   109.47099921   299.99993776

---------------------------
INTERNAL COORDINATES (A.U.)
---------------------------
 C      0   0   0     0.000000000000     0.00000000     0.00000000
 C      1   0   0     2.898799067799     0.00000000     0.00000000
 H      2   1   0     2.062497392229   111.03194629     0.00000000
 H      2   1   3     2.066613049598   109.19524702   243.60560484
 C      2   1   3     2.894851103328   116.05717792   122.04169196
 O      5   2   1     2.398965446401   117.34060562    31.12046858
 O      5   2   1     2.351036237732   117.44393262   214.04945783
 H      1   2   3     2.022000316129   109.47107572   179.99941746
 H      1   2   3     2.022014671421   109.47075608    60.00022000
 H      1   2   3     2.021997508727   109.47099921   299.99993776

---------------------
BASIS SET INFORMATION
---------------------
There are 3 groups of distinct atoms

 Group   1 Type C   : 11s6p2d1f contracted to 5s3p2d1f pattern {62111/411/11/1}
 Group   2 Type H   : 5s1p contracted to 3s1p pattern {311/1}
 Group   3 Type O   : 11s6p2d1f contracted to 5s3p2d1f pattern {62111/411/11/1}

Atom   0C    basis set group =>   1
Atom   1C    basis set group =>   1
Atom   2H    basis set group =>   2
Atom   3H    basis set group =>   2
Atom   4C    basis set group =>   1
Atom   5O    basis set group =>   3
Atom   6O    basis set group =>   3
Atom   7H    basis set group =>   2
Atom   8H    basis set group =>   2
Atom   9H    basis set group =>   2
---------------------------------
AUXILIARY/J BASIS SET INFORMATION
---------------------------------
There are 3 groups of distinct atoms

 Group   1 Type C   : 12s5p4d2f1g contracted to 6s4p3d1f1g pattern {711111/2111/211/2/1}
 Group   2 Type H   : 5s2p1d contracted to 3s1p1d pattern {311/2/1}
 Group   3 Type O   : 12s5p4d2f1g contracted to 6s4p3d1f1g pattern {711111/2111/211/2/1}

Atom   0C    basis set group =>   1
Atom   1C    basis set group =>   1
Atom   2H    basis set group =>   2
Atom   3H    basis set group =>   2
Atom   4C    basis set group =>   1
Atom   5O    basis set group =>   3
Atom   6O    basis set group =>   3
Atom   7H    basis set group =>   2
Atom   8H    basis set group =>   2
Atom   9H    basis set group =>   2


           ************************************************************
           *        Program running with 4 parallel MPI-processes     *
           *              working on a common directory               *
           ************************************************************
------------------------------------------------------------------------------
                           ORCA GTO INTEGRAL CALCULATION
                           -- RI-GTO INTEGRALS CHOSEN --
------------------------------------------------------------------------------
------------------------------------------------------------------------------
                   ___                                                        
                  /   \      - P O W E R E D   B Y -                         
                 /     \                                                     
                 |  |  |   _    _      __       _____    __    __             
                 |  |  |  | |  | |    /  \     |  _  \  |  |  /  |          
                  \  \/   | |  | |   /    \    | | | |  |  | /  /          
                 / \  \   | |__| |  /  /\  \   | |_| |  |  |/  /          
                |  |  |   |  __  | /  /__\  \  |    /   |      \           
                |  |  |   | |  | | |   __   |  |    \   |  |\   \          
                \     /   | |  | | |  |  |  |  | |\  \  |  | \   \       
                 \___/    |_|  |_| |__|  |__|  |_| \__\ |__|  \__/        
                                                                              
                      - O R C A' S   B I G   F R I E N D -                    
                                      &                                       
                       - I N T E G R A L  F E E D E R -                       
                                                                              
 v1 FN, 2020, v2 2021                                                         
------------------------------------------------------------------------------


Reading SHARK input file TZVP_PBE0_A_wt_dlpno_neg.SHARKINP.tmp ... ok
----------------------
SHARK INTEGRAL PACKAGE
----------------------

Number of atoms                             ...     10
Number of basis functions                   ...    185
Number of shells                            ...     75
Maximum angular momentum                    ...      3
Integral batch strategy                     ... SHARK/LIBINT Hybrid
RI-J (if used) integral strategy            ... SPLIT-RIJ (Revised 2003 algorithm where possible)
Printlevel                                  ...      1
Contraction scheme used                     ... SEGMENTED contraction
Coulomb Range Separation                    ... NOT USED
Exchange Range Separation                   ... NOT USED
Finite Nucleus Model                        ... NOT USED
Auxiliary Coulomb fitting basis             ... AVAILABLE
   # of basis functions in Aux-J            ...    300
   # of shells in Aux-J                     ...    100
   Maximum angular momentum in Aux-J        ...      4
Auxiliary J/K fitting basis                 ... NOT available
Auxiliary Correlation fitting basis         ... NOT available
Auxiliary 'external' fitting basis          ... NOT available
Integral threshold                          ...     2.500000e-11
Primitive cut-off                           ...     2.500000e-12
Primitive pair pre-selection threshold      ...     2.500000e-12

Calculating pre-screening integrals         ... done (  0.1 sec) Dimension = 75
Organizing shell pair data                  ... done (  0.0 sec)
Shell pair information
Total number of shell pairs                 ...      2850
Shell pairs after pre-screening             ...      2738
Total number of primitive shell pairs       ...      8640
Primitive shell pairs kept                  ...      6613
          la=0 lb=0:    763 shell pairs
          la=1 lb=0:    777 shell pairs
          la=1 lb=1:    208 shell pairs
          la=2 lb=0:    384 shell pairs
          la=2 lb=1:    197 shell pairs
          la=2 lb=2:     54 shell pairs
          la=3 lb=0:    191 shell pairs
          la=3 lb=1:     99 shell pairs
          la=3 lb=2:     50 shell pairs
          la=3 lb=3:     15 shell pairs

Calculating one electron integrals          ... done (  0.0 sec)
Calculating RI/J V-Matrix + Cholesky decomp.... done (  0.0 sec)
Calculating Nuclear repulsion               ... done (  0.0 sec) ENN=    168.606328612566 Eh

SHARK setup successfully completed in   0.2 seconds

Maximum memory used throughout the entire GTOINT-calculation: 13.8 MB


           ************************************************************
           *        Program running with 4 parallel MPI-processes     *
           *              working on a common directory               *
           ************************************************************
-------------------------------------------------------------------------------
                                 ORCA SCF
-------------------------------------------------------------------------------

------------
SCF SETTINGS
------------
Hamiltonian:
 Density Functional     Method          .... DFT(GTOs)
 Exchange Functional    Exchange        .... PBE
   PBE kappa parameter   XKappa         ....  0.804000
   PBE mue parameter    XMuePBE         ....  0.219520
 Correlation Functional Correlation     .... PBE
   PBE beta parameter  CBetaPBE         ....  0.066725
 LDA part of GGA corr.  LDAOpt          .... PW91-LDA
 Gradients option       PostSCFGGA      .... off
 Hybrid DFT is turned on
   Fraction HF Exchange ScalHFX         ....  0.250000
   Scaling of DF-GGA-X  ScalDFX         ....  0.750000
   Scaling of DF-GGA-C  ScalDFC         ....  1.000000
   Scaling of DF-LDA-C  ScalLDAC        ....  1.000000
   Perturbative correction              ....  0.000000
   Density functional embedding theory  .... OFF
   NL short-range parameter             ....  6.900000
 RI-approximation to the Coulomb term is turned on
   Number of AuxJ basis functions       .... 300
   RIJ-COSX (HFX calculated with COS-X)).... on


General Settings:
 Integral files         IntName         .... TZVP_PBE0_A_wt_dlpno_neg
 Hartree-Fock type      HFTyp           .... RHF
 Total Charge           Charge          ....   -1
 Multiplicity           Mult            ....    1
 Number of Electrons    NEL             ....   40
 Basis Dimension        Dim             ....  185
 Nuclear Repulsion      ENuc            ....    168.6063286126 Eh

Convergence Acceleration:
 DIIS                   CNVDIIS         .... on
   Start iteration      DIISMaxIt       ....    12
   Startup error        DIISStart       ....  0.200000
   # of expansion vecs  DIISMaxEq       ....     5
   Bias factor          DIISBfac        ....   1.050
   Max. coefficient     DIISMaxC        ....  10.000
 Trust-Rad. Augm. Hess. CNVTRAH         .... auto
   Auto Start mean grad. ratio tolernc. ....  1.125000
   Auto Start start iteration           ....    20
   Auto Start num. interpolation iter.  ....    10
   Max. Number of Micro iterations      ....    16
   Max. Number of Macro iterations      .... Maxiter - #DIIS iter
   Number of Davidson start vectors     ....     2
   Converg. threshold I  (grad. norm)   ....   1.000e-05
   Converg. threshold II (energy diff.) ....   1.000e-08
   Grad. Scal. Fac. for Micro threshold ....   0.100
   Minimum threshold for Micro iter.    ....   0.010
   NR start threshold (gradient norm)   ....   0.001
   Initial trust radius                 ....   0.400
   Minimum AH scaling param. (alpha)    ....   1.000
   Maximum AH scaling param. (alpha)    .... 1000.000
   Orbital update algorithm             .... Taylor
   White noise on init. David. guess    .... on
   Maximum white noise                  ....   0.010
   Quad. conv. algorithm                .... NR
 SOSCF                  CNVSOSCF        .... on
   Start iteration      SOSCFMaxIt      ....   150
   Startup grad/error   SOSCFStart      ....  0.003300
 Level Shifting         CNVShift        .... on
   Level shift para.    LevelShift      ....    0.2500
   Turn off err/grad.   ShiftErr        ....    0.0010
 Zerner damping         CNVZerner       .... off
 Static damping         CNVDamp         .... on
   Fraction old density DampFac         ....    0.7000
   Max. Damping (<1)    DampMax         ....    0.9800
   Min. Damping (>=0)   DampMin         ....    0.0000
   Turn off err/grad.   DampErr         ....    0.1000
 Fernandez-Rico         CNVRico         .... off

SCF Procedure:
 Maximum # iterations   MaxIter         ....   150
 SCF integral mode      SCFMode         .... Direct
   Integral package                     .... SHARK and LIBINT hybrid scheme
 Reset frequency        DirectResetFreq ....    20
 Integral Threshold     Thresh          ....  2.500e-11 Eh
 Primitive CutOff       TCut            ....  2.500e-12 Eh

Convergence Tolerance:
 Convergence Check Mode ConvCheckMode   .... Total+1el-Energy
 Convergence forced     ConvForced      .... 0
 Energy Change          TolE            ....  1.000e-08 Eh
 1-El. energy change                    ....  1.000e-05 Eh
 Orbital Gradient       TolG            ....  1.000e-05
 Orbital Rotation angle TolX            ....  1.000e-05
 DIIS Error             TolErr          ....  5.000e-07


Diagonalization of the overlap matrix:
Smallest eigenvalue                        ... 3.423e-04
Time for diagonalization                   ...    0.006 sec
Threshold for overlap eigenvalues          ... 1.000e-08
Number of eigenvalues below threshold      ... 0
Time for construction of square roots      ...    0.006 sec
Total time needed                          ...    0.012 sec

Time for model grid setup =    0.088 sec

------------------------------
INITIAL GUESS: MODEL POTENTIAL
------------------------------
Loading Hartree-Fock densities                     ... done
Calculating cut-offs                               ... done
Initializing the effective Hamiltonian             ... done
Setting up the integral package (SHARK)            ... done
Starting the Coulomb interaction                   ... done (   0.1 sec)
Reading the grid                                   ... done
Mapping shells                                     ... done
Starting the XC term evaluation                    ... done (   0.1 sec)
  promolecular density results
     # of electrons  =     38.996029098
     EX              =    -33.066732920
     EC              =     -1.282532712
     EX+EC           =    -34.349265632
Transforming the Hamiltonian                       ... done (   0.0 sec)
Diagonalizing the Hamiltonian                      ... done (   0.0 sec)
Back transforming the eigenvectors                 ... done (   0.0 sec)
Now organizing SCF variables                       ... done
                      ------------------
                      INITIAL GUESS DONE (   0.2 sec)
                      ------------------
-------------------
DFT GRID GENERATION
-------------------

General Integration Accuracy     IntAcc      ... 4.388
Radial Grid Type                 RadialGrid  ... OptM3 with GC (2021)
Angular Grid (max. ang.)         AngularGrid ... 4 (Lebedev-302)
Angular grid pruning method      GridPruning ... 4 (adaptive)
Weight generation scheme         WeightScheme... Becke
Basis function cutoff            BFCut       ... 1.0000e-11
Integration weight cutoff        WCut        ... 1.0000e-14
Angular grids for H and He will be reduced by one unit
Partially contracted basis set               ... off
Rotationally invariant grid construction     ... off

Total number of grid points                  ...    46550
Total number of batches                      ...      733
Average number of points per batch           ...       63
Average number of grid points per atom       ...     4655
Time for grid setup =    0.312 sec

--------------------
COSX GRID GENERATION
--------------------

GRIDX 1
-------
General Integration Accuracy     IntAcc      ... 3.816
Radial Grid Type                 RadialGrid  ... OptM3 with GC (2021)
Angular Grid (max. ang.)         AngularGrid ... 1 (Lebedev-50)
Angular grid pruning method      GridPruning ... 4 (adaptive)
Weight generation scheme         WeightScheme... Becke
Basis function cutoff            BFCut       ... 1.0000e-11
Integration weight cutoff        WCut        ... 1.0000e-14
Angular grids for H and He will be reduced by one unit
Partially contracted basis set               ... on
Rotationally invariant grid construction     ... off

Total number of grid points                  ...     5946
Total number of batches                      ...      100
Average number of points per batch           ...       59
Average number of grid points per atom       ...      595
UseSFitting                                  ... on

GRIDX 2
-------
General Integration Accuracy     IntAcc      ... 4.020
Radial Grid Type                 RadialGrid  ... OptM3 with GC (2021)
Angular Grid (max. ang.)         AngularGrid ... 2 (Lebedev-110)
Angular grid pruning method      GridPruning ... 4 (adaptive)
Weight generation scheme         WeightScheme... Becke
Basis function cutoff            BFCut       ... 1.0000e-11
Integration weight cutoff        WCut        ... 1.0000e-14
Angular grids for H and He will be reduced by one unit
Partially contracted basis set               ... on
Rotationally invariant grid construction     ... off

Total number of grid points                  ...    13054
Total number of batches                      ...      209
Average number of points per batch           ...       62
Average number of grid points per atom       ...     1305
UseSFitting                                  ... on

GRIDX 3
-------
General Integration Accuracy     IntAcc      ... 4.338
Radial Grid Type                 RadialGrid  ... OptM3 with GC (2021)
Angular Grid (max. ang.)         AngularGrid ... 3 (Lebedev-194)
Angular grid pruning method      GridPruning ... 4 (adaptive)
Weight generation scheme         WeightScheme... Becke
Basis function cutoff            BFCut       ... 1.0000e-11
Integration weight cutoff        WCut        ... 1.0000e-14
Angular grids for H and He will be reduced by one unit
Partially contracted basis set               ... on
Rotationally invariant grid construction     ... off

Total number of grid points                  ...    28833
Total number of batches                      ...      455
Average number of points per batch           ...       63
Average number of grid points per atom       ...     2883
UseSFitting                                  ... on

Time for X-Grid setup             =    0.279 sec

--------------
SCF ITERATIONS
--------------
ITER       Energy         Delta-E        Max-DP      RMS-DP      [F,P]     Damp
               ***  Starting incremental Fock matrix formation  ***
  0   -267.3394194495   0.000000000000 0.32007457  0.00361749  0.3194970 0.7000
  1   -267.4803536097  -0.140934160172 0.38728869  0.00374550  0.1354923 0.7000
                               ***Turning on DIIS***
  2   -267.5333514094  -0.052997799742 0.63161888  0.00623563  0.0454007 0.0000
  3   -267.6162405117  -0.082889102267 0.35695714  0.00318063  0.0823669 0.0000
  4   -267.6356444971  -0.019403985465 0.15173560  0.00132628  0.0145111 0.0000
  5   -267.6367546711  -0.001110173962 0.06215638  0.00055713  0.0053410 0.0000
                      *** Initiating the SOSCF procedure ***
                           *** Shutting down DIIS ***
                      *** Re-Reading the Fockian *** 
                      *** Removing any level shift *** 
ITER      Energy       Delta-E        Grad      Rot      Max-DP    RMS-DP
  6   -267.63683915  -0.0000844781  0.000441  0.000441  0.044027  0.000421
               *** Restarting incremental Fock matrix formation ***
  7   -267.63684760  -0.0000084500  0.000254  0.000792  0.002577  0.000041
  8   -267.63684376   0.0000038438  0.000566  0.000569  0.002450  0.000033
  9   -267.63684895  -0.0000051952  0.000030  0.000078  0.000967  0.000010
 10   -267.63684891   0.0000000429  0.000050  0.000051  0.000384  0.000004
 11   -267.63684899  -0.0000000870  0.000006  0.000011  0.000023  0.000001
 12   -267.63684899   0.0000000004  0.000010  0.000007  0.000039  0.000000
                  ***Gradient check signals convergence***
              ***Rediagonalizing the Fockian in SOSCF/NRSCF***

               *****************************************************
               *                     SUCCESS                       *
               *           SCF CONVERGED AFTER  13 CYCLES          *
               *****************************************************

Old exchange energy                            =     -8.507401491 Eh
New exchange energy                            =     -8.507401070 Eh
Exchange energy change after final integration =      0.000000421 Eh
Total energy after final integration           =   -267.636848575 Eh
Final COS-X integration done in                =     2.052 sec

----------------
TOTAL SCF ENERGY
----------------

Total Energy       :         -267.63684858 Eh           -7282.76890 eV

Components:
Nuclear Repulsion  :          168.60632861 Eh            4588.01145 eV
Electronic Energy  :         -436.24317719 Eh          -11870.78035 eV
One Electron Energy:         -707.78720892 Eh          -19259.86911 eV
Two Electron Energy:          271.54403173 Eh            7389.08876 eV
Max COSX asymmetry :            0.00000128 Eh               0.00003 eV

Virial components:
Potential Energy   :         -534.26506264 Eh          -14538.09146 eV
Kinetic Energy     :          266.62821407 Eh            7255.32256 eV
Virial Ratio       :            2.00378292


DFT components:
N(Alpha)           :       20.000015313989 electrons
N(Beta)            :       20.000015313989 electrons
N(Total)           :       40.000030627977 electrons
E(X)               :      -25.486671844048 Eh       
E(C)               :       -1.325286143255 Eh       
E(XC)              :      -26.811957987304 Eh       
DFET-embed. en.    :        0.000000000000 Eh       

---------------
SCF CONVERGENCE
---------------

  Last Energy change         ...   -1.8122e-09  Tolerance :   1.0000e-08
  Last MAX-Density change    ...    7.7716e-16  Tolerance :   1.0000e-07
  Last RMS-Density change    ...    1.8532e-17  Tolerance :   5.0000e-09
  Last Orbital Gradient      ...    2.4074e-07  Tolerance :   1.0000e-05
  Last Orbital Rotation      ...    4.0557e-07  Tolerance :   1.0000e-05

             **** THE GBW FILE WAS UPDATED (TZVP_PBE0_A_wt_dlpno_neg.gbw) ****
             **** DENSITY TZVP_PBE0_A_wt_dlpno_neg.scfp WAS UPDATED ****
             **** ENERGY FILE WAS UPDATED (TZVP_PBE0_A_wt_dlpno_neg.en.tmp) ****
             **** THE GBW FILE WAS UPDATED (TZVP_PBE0_A_wt_dlpno_neg.gbw) ****
             **** DENSITY TZVP_PBE0_A_wt_dlpno_neg.scfp WAS UPDATED ****
----------------
ORBITAL ENERGIES
----------------

  NO   OCC          E(Eh)            E(eV) 
   0   2.0000     -18.929291      -515.0922 
   1   2.0000     -18.926220      -515.0086 
   2   2.0000     -10.091911      -274.6149 
   3   2.0000     -10.050319      -273.4831 
   4   2.0000     -10.041784      -273.2508 
   5   2.0000      -0.839005       -22.8305 
   6   2.0000      -0.743914       -20.2429 
   7   2.0000      -0.621415       -16.9095 
   8   2.0000      -0.489895       -13.3307 
   9   2.0000      -0.327484        -8.9113 
  10   2.0000      -0.302087        -8.2202 
  11   2.0000      -0.269525        -7.3342 
  12   2.0000      -0.236723        -6.4416 
  13   2.0000      -0.221773        -6.0347 
  14   2.0000      -0.213984        -5.8228 
  15   2.0000      -0.184414        -5.0182 
  16   2.0000      -0.164906        -4.4873 
  17   2.0000      -0.051000        -1.3878 
  18   2.0000      -0.045130        -1.2280 
  19   2.0000      -0.031421        -0.8550 
  20   0.0000       0.192965         5.2508 
  21   0.0000       0.235176         6.3995 
  22   0.0000       0.246969         6.7204 
  23   0.0000       0.257747         7.0136 
  24   0.0000       0.272099         7.4042 
  25   0.0000       0.305473         8.3123 
  26   0.0000       0.328966         8.9516 
  27   0.0000       0.345976         9.4145 
  28   0.0000       0.358309         9.7501 
  29   0.0000       0.382851        10.4179 
  30   0.0000       0.394637        10.7386 
  31   0.0000       0.414930        11.2908 
  32   0.0000       0.447318        12.1721 
  33   0.0000       0.478653        13.0248 
  34   0.0000       0.503726        13.7071 
  35   0.0000       0.531998        14.4764 
  36   0.0000       0.549276        14.9466 
  37   0.0000       0.561836        15.2883 
  38   0.0000       0.580399        15.7935 
  39   0.0000       0.599554        16.3147 
  40   0.0000       0.603705        16.4276 
  41   0.0000       0.618096        16.8193 
  42   0.0000       0.639016        17.3885 
  43   0.0000       0.663226        18.0473 
  44   0.0000       0.684418        18.6240 
  45   0.0000       0.710349        19.3296 
  46   0.0000       0.730101        19.8670 
  47   0.0000       0.747448        20.3391 
  48   0.0000       0.776096        21.1187 
  49   0.0000       0.785255        21.3679 
  50   0.0000       0.801081        21.7985 
  51   0.0000       0.821611        22.3572 
  52   0.0000       0.863291        23.4913 
  53   0.0000       0.914881        24.8952 
  54   0.0000       0.971720        26.4418 
  55   0.0000       0.994976        27.0747 
  56   0.0000       1.011569        27.5262 
  57   0.0000       1.032687        28.1008 
  58   0.0000       1.105212        30.0744 
  59   0.0000       1.130444        30.7609 
  60   0.0000       1.153720        31.3943 
  61   0.0000       1.186286        32.2805 
  62   0.0000       1.197627        32.5891 
  63   0.0000       1.243498        33.8373 
  64   0.0000       1.256516        34.1915 
  65   0.0000       1.271730        34.6055 
  66   0.0000       1.342324        36.5265 
  67   0.0000       1.375759        37.4363 
  68   0.0000       1.481023        40.3007 
  69   0.0000       1.578256        42.9465 
  70   0.0000       1.606320        43.7102 
  71   0.0000       1.658144        45.1204 
  72   0.0000       1.670988        45.4699 
  73   0.0000       1.681581        45.7581 
  74   0.0000       1.703136        46.3447 
  75   0.0000       1.724534        46.9270 
  76   0.0000       1.744301        47.4649 
  77   0.0000       1.775615        48.3169 
  78   0.0000       1.789772        48.7022 
  79   0.0000       1.827538        49.7298 
  80   0.0000       1.867539        50.8183 
  81   0.0000       1.891580        51.4725 
  82   0.0000       1.948045        53.0090 
  83   0.0000       1.985178        54.0194 
  84   0.0000       1.996012        54.3142 
  85   0.0000       2.031861        55.2897 
  86   0.0000       2.075716        56.4831 
  87   0.0000       2.110221        57.4220 
  88   0.0000       2.153518        58.6002 
  89   0.0000       2.210923        60.1623 
  90   0.0000       2.224030        60.5189 
  91   0.0000       2.302623        62.6576 
  92   0.0000       2.307361        62.7865 
  93   0.0000       2.363087        64.3029 
  94   0.0000       2.383155        64.8489 
  95   0.0000       2.441573        66.4386 
  96   0.0000       2.457245        66.8650 
  97   0.0000       2.474069        67.3228 
  98   0.0000       2.508005        68.2463 
  99   0.0000       2.523785        68.6757 
 100   0.0000       2.554393        69.5086 
 101   0.0000       2.619807        71.2886 
 102   0.0000       2.674491        72.7766 
 103   0.0000       2.704866        73.6031 
 104   0.0000       2.733752        74.3892 
 105   0.0000       2.753438        74.9249 
 106   0.0000       2.775856        75.5349 
 107   0.0000       2.837865        77.2222 
 108   0.0000       2.839804        77.2750 
 109   0.0000       2.882933        78.4486 
 110   0.0000       2.935344        79.8748 
 111   0.0000       2.996752        81.5458 
 112   0.0000       3.014909        82.0398 
 113   0.0000       3.058234        83.2188 
 114   0.0000       3.089743        84.0762 
 115   0.0000       3.144029        85.5534 
 116   0.0000       3.177807        86.4725 
 117   0.0000       3.209917        87.3463 
 118   0.0000       3.229365        87.8755 
 119   0.0000       3.244085        88.2760 
 120   0.0000       3.267695        88.9185 
 121   0.0000       3.295743        89.6817 
 122   0.0000       3.338049        90.8329 
 123   0.0000       3.380594        91.9906 
 124   0.0000       3.399842        92.5144 
 125   0.0000       3.428994        93.3077 
 126   0.0000       3.437450        93.5378 
 127   0.0000       3.486809        94.8809 
 128   0.0000       3.490403        94.9787 
 129   0.0000       3.548157        96.5503 
 130   0.0000       3.578582        97.3782 
 131   0.0000       3.621152        98.5366 
 132   0.0000       3.646660        99.2307 
 133   0.0000       3.687705       100.3476 
 134   0.0000       3.715980       101.1169 
 135   0.0000       3.730317       101.5071 
 136   0.0000       3.765780       102.4721 
 137   0.0000       3.796058       103.2960 
 138   0.0000       3.814063       103.7859 
 139   0.0000       3.928016       106.8867 
 140   0.0000       4.037296       109.8604 
 141   0.0000       4.051224       110.2394 
 142   0.0000       4.094771       111.4244 
 143   0.0000       4.178366       113.6991 
 144   0.0000       4.214011       114.6691 
 145   0.0000       4.282078       116.5213 
 146   0.0000       4.348823       118.3375 
 147   0.0000       4.505360       122.5971 
 148   0.0000       4.580547       124.6430 
 149   0.0000       4.595049       125.0376 
 150   0.0000       4.667942       127.0211 
 151   0.0000       4.695052       127.7589 
 152   0.0000       4.774453       129.9195 
 153   0.0000       4.825017       131.2954 
 154   0.0000       4.953366       134.7879 
 155   0.0000       4.984257       135.6285 
 156   0.0000       5.423276       147.5749 
 157   0.0000       5.444000       148.1388 
 158   0.0000       5.451195       148.3345 
 159   0.0000       5.459772       148.5679 
 160   0.0000       5.593565       152.2087 
 161   0.0000       5.795920       157.7150 
 162   0.0000       5.806533       158.0038 
 163   0.0000       5.880120       160.0062 
 164   0.0000       6.059809       164.8958 
 165   0.0000       6.302406       171.4972 
 166   0.0000       6.314531       171.8271 
 167   0.0000       6.400542       174.1676 
 168   0.0000       6.592180       179.3823 
 169   0.0000       6.632783       180.4872 
 170   0.0000       6.690471       182.0570 
 171   0.0000       6.710301       182.5966 
 172   0.0000       6.739151       183.3816 
 173   0.0000       6.993387       190.2997 
 174   0.0000       7.041470       191.6081 
 175   0.0000       7.115908       193.6337 
 176   0.0000       7.199016       195.8952 
 177   0.0000       7.372434       200.6141 
 178   0.0000       7.390560       201.1073 
 179   0.0000       7.450134       202.7284 
 180   0.0000      22.624415       615.6416 
 181   0.0000      22.689290       617.4070 
 182   0.0000      23.714125       645.2941 
 183   0.0000      44.127951      1200.7826 
 184   0.0000      44.155292      1201.5266 

                    ********************************
                    * MULLIKEN POPULATION ANALYSIS *
                    ********************************

-----------------------
MULLIKEN ATOMIC CHARGES
-----------------------
   0 C :   -0.315843
   1 C :   -0.169145
   2 H :    0.054313
   3 H :    0.046885
   4 C :    0.206634
   5 O :   -0.549420
   6 O :   -0.518759
   7 H :    0.100162
   8 H :    0.058801
   9 H :    0.086372
Sum of atomic charges:   -1.0000000

--------------------------------
MULLIKEN REDUCED ORBITAL CHARGES
--------------------------------
  0 C s       :     3.166994  s :     3.166994
      pz      :     0.994263  p :     3.083322
      px      :     1.068781
      py      :     1.020277
      dz2     :     0.011526  d :     0.062003
      dxz     :     0.018920
      dyz     :     0.016427
      dx2y2   :     0.002599
      dxy     :     0.012532
      f0      :     0.000960  f :     0.003525
      f+1     :     0.000657
      f-1     :     0.000643
      f+2     :     0.000293
      f-2     :     0.000393
      f+3     :     0.000481
      f-3     :     0.000098
  1 C s       :     3.111269  s :     3.111269
      pz      :     0.929539  p :     2.961352
      px      :     0.989370
      py      :     1.042443
      dz2     :     0.020225  d :     0.090909
      dxz     :     0.023934
      dyz     :     0.020106
      dx2y2   :     0.009097
      dxy     :     0.017546
      f0      :     0.001098  f :     0.005615
      f+1     :     0.000920
      f-1     :     0.001134
      f+2     :     0.000641
      f-2     :     0.000686
      f+3     :     0.000551
      f-3     :     0.000586
  2 H s       :     0.924129  s :     0.924129
      pz      :     0.004402  p :     0.021559
      px      :     0.007608
      py      :     0.009549
  3 H s       :     0.931628  s :     0.931628
      pz      :     0.006567  p :     0.021486
      px      :     0.009104
      py      :     0.005815
  4 C s       :     3.008447  s :     3.008447
      pz      :     0.835664  p :     2.513480
      px      :     0.817288
      py      :     0.860528
      dz2     :     0.046752  d :     0.246716
      dxz     :     0.024662
      dyz     :     0.064246
      dx2y2   :     0.052411
      dxy     :     0.058644
      f0      :     0.002726  f :     0.024723
      f+1     :     0.002832
      f-1     :     0.002664
      f+2     :     0.004244
      f-2     :     0.003897
      f+3     :     0.003924
      f-3     :     0.004436
  5 O s       :     3.777162  s :     3.777162
      pz      :     1.664340  p :     4.743099
      px      :     1.652369
      py      :     1.426390
      dz2     :     0.003216  d :     0.027488
      dxz     :     0.000947
      dyz     :     0.007380
      dx2y2   :     0.008088
      dxy     :     0.007857
      f0      :     0.000174  f :     0.001671
      f+1     :     0.000041
      f-1     :     0.000268
      f+2     :     0.000255
      f-2     :     0.000130
      f+3     :     0.000414
      f-3     :     0.000389
  6 O s       :     3.759262  s :     3.759262
      pz      :     1.495041  p :     4.729360
      px      :     1.452233
      py      :     1.782085
      dz2     :     0.007145  d :     0.028371
      dxz     :     0.007804
      dyz     :     0.003945
      dx2y2   :     0.005276
      dxy     :     0.004201
      f0      :     0.000217  f :     0.001766
      f+1     :     0.000390
      f-1     :     0.000136
      f+2     :     0.000336
      f-2     :     0.000319
      f+3     :     0.000200
      f-3     :     0.000170
  7 H s       :     0.877600  s :     0.877600
      pz      :     0.004989  p :     0.022238
      px      :     0.007088
      py      :     0.010161
  8 H s       :     0.919837  s :     0.919837
      pz      :     0.006551  p :     0.021362
      px      :     0.006069
      py      :     0.008743
  9 H s       :     0.891954  s :     0.891954
      pz      :     0.006853  p :     0.021674
      px      :     0.009597
      py      :     0.005224


                     *******************************
                     * LOEWDIN POPULATION ANALYSIS *
                     *******************************

----------------------
LOEWDIN ATOMIC CHARGES
----------------------
   0 C :   -0.332347
   1 C :   -0.298663
   2 H :    0.122583
   3 H :    0.124193
   4 C :   -0.702474
   5 O :   -0.131400
   6 O :   -0.094872
   7 H :    0.111737
   8 H :    0.093010
   9 H :    0.108233

-------------------------------
LOEWDIN REDUCED ORBITAL CHARGES
-------------------------------
  0 C s       :     2.826950  s :     2.826950
      pz      :     1.062774  p :     3.210879
      px      :     1.076831
      py      :     1.071275
      dz2     :     0.057536  d :     0.269325
      dxz     :     0.078243
      dyz     :     0.060920
      dx2y2   :     0.017131
      dxy     :     0.055494
      f0      :     0.005902  f :     0.025193
      f+1     :     0.004031
      f-1     :     0.004836
      f+2     :     0.004535
      f-2     :     0.002293
      f+3     :     0.002608
      f-3     :     0.000988
  1 C s       :     2.797781  s :     2.797781
      pz      :     1.016612  p :     3.088294
      px      :     1.029497
      py      :     1.042185
      dz2     :     0.092173  d :     0.376591
      dxz     :     0.088414
      dyz     :     0.078177
      dx2y2   :     0.040429
      dxy     :     0.077397
      f0      :     0.006414  f :     0.035997
      f+1     :     0.005011
      f-1     :     0.007245
      f+2     :     0.006230
      f-2     :     0.004191
      f+3     :     0.003628
      f-3     :     0.003278
  2 H s       :     0.817243  s :     0.817243
      pz      :     0.012557  p :     0.060174
      px      :     0.021927
      py      :     0.025689
  3 H s       :     0.815629  s :     0.815629
      pz      :     0.018110  p :     0.060178
      px      :     0.026161
      py      :     0.015907
  4 C s       :     2.774514  s :     2.774514
      pz      :     0.875807  p :     2.741455
      px      :     0.878016
      py      :     0.987631
      dz2     :     0.166935  d :     1.027285
      dxz     :     0.125000
      dyz     :     0.259129
      dx2y2   :     0.225430
      dxy     :     0.250792
      f0      :     0.019806  f :     0.159220
      f+1     :     0.016110
      f-1     :     0.018301
      f+2     :     0.024362
      f-2     :     0.024417
      f+3     :     0.026934
      f-3     :     0.029289
  5 O s       :     3.441497  s :     3.441497
      pz      :     1.567678  p :     4.626205
      px      :     1.559754
      py      :     1.498773
      dz2     :     0.007869  d :     0.058750
      dxz     :     0.002228
      dyz     :     0.013793
      dx2y2   :     0.020008
      dxy     :     0.014852
      f0      :     0.000484  f :     0.004948
      f+1     :     0.000108
      f-1     :     0.000861
      f+2     :     0.000647
      f-2     :     0.000425
      f+3     :     0.001143
      f-3     :     0.001279
  6 O s       :     3.424803  s :     3.424803
      pz      :     1.479522  p :     4.602594
      px      :     1.462461
      py      :     1.660611
      dz2     :     0.010889  d :     0.062052
      dxz     :     0.020778
      dyz     :     0.009567
      dx2y2   :     0.010275
      dxy     :     0.010543
      f0      :     0.000495  f :     0.005423
      f+1     :     0.001162
      f-1     :     0.000348
      f+2     :     0.001170
      f-2     :     0.001229
      f+3     :     0.000499
      f-3     :     0.000518
  7 H s       :     0.821837  s :     0.821837
      pz      :     0.014773  p :     0.066425
      px      :     0.022017
      py      :     0.029635
  8 H s       :     0.842120  s :     0.842120
      pz      :     0.018441  p :     0.064870
      px      :     0.018997
      py      :     0.027432
  9 H s       :     0.827101  s :     0.827101
      pz      :     0.019321  p :     0.064666
      px      :     0.029417
      py      :     0.015927


                      *****************************
                      * MAYER POPULATION ANALYSIS *
                      *****************************

  NA   - Mulliken gross atomic population
  ZA   - Total nuclear charge
  QA   - Mulliken gross atomic charge
  VA   - Mayer's total valence
  BVA  - Mayer's bonded valence
  FA   - Mayer's free valence

  ATOM       NA         ZA         QA         VA         BVA        FA
  0 C      6.3158     6.0000    -0.3158     3.8684     3.8684    -0.0000
  1 C      6.1691     6.0000    -0.1691     3.6972     3.6972     0.0000
  2 H      0.9457     1.0000     0.0543     1.0115     1.0115     0.0000
  3 H      0.9531     1.0000     0.0469     0.9784     0.9784     0.0000
  4 C      5.7934     6.0000     0.2066     4.7131     4.7131    -0.0000
  5 O      8.5494     8.0000    -0.5494     1.8646     1.8646    -0.0000
  6 O      8.5188     8.0000    -0.5188     1.9098     1.9098     0.0000
  7 H      0.8998     1.0000     0.1002     1.0238     1.0238    -0.0000
  8 H      0.9412     1.0000     0.0588     0.9625     0.9625    -0.0000
  9 H      0.9136     1.0000     0.0864     0.9792     0.9792     0.0000

  Mayer bond orders larger than 0.100000
B(  0-C ,  1-C ) :   0.9693 B(  0-C ,  7-H ) :   0.9696 B(  0-C ,  8-H ) :   0.9637 
B(  0-C ,  9-H ) :   0.9774 B(  1-C ,  2-H ) :   0.9542 B(  1-C ,  3-H ) :   0.9509 
B(  1-C ,  4-C ) :   0.9610 B(  4-C ,  5-O ) :   1.8320 B(  4-C ,  6-O ) :   1.8892 


-------
TIMINGS
-------

Total SCF time: 0 days 0 hours 0 min 15 sec 

Total time                  ....      15.498 sec
Sum of individual times     ....      15.312 sec  ( 98.8%)

Fock matrix formation       ....      14.336 sec  ( 92.5%)
  Split-RI-J                ....       1.192 sec  (  8.3% of F)
  Chain of spheres X        ....      10.572 sec  ( 73.7% of F)
  XC integration            ....       2.526 sec  ( 17.6% of F)
    Basis function eval.    ....       0.833 sec  ( 33.0% of XC)
    Density eval.           ....       0.574 sec  ( 22.7% of XC)
    XC-Functional eval.     ....       0.159 sec  (  6.3% of XC)
    XC-Potential eval.      ....       0.751 sec  ( 29.8% of XC)
Diagonalization             ....       0.061 sec  (  0.4%)
Density matrix formation    ....       0.005 sec  (  0.0%)
Population analysis         ....       0.008 sec  (  0.1%)
Initial guess               ....       0.144 sec  (  0.9%)
Orbital Transformation      ....       0.000 sec  (  0.0%)
Orbital Orthonormalization  ....       0.000 sec  (  0.0%)
DIIS solution               ....       0.036 sec  (  0.2%)
SOSCF solution              ....       0.042 sec  (  0.3%)
Grid generation             ....       0.679 sec  (  4.4%)

Maximum memory used throughout the entire SCF-calculation: 66.6 MB


-------------------------------------------------------------------------------
                          DFT DISPERSION CORRECTION                            
                                                                               
                              DFTD3 V3.1  Rev 1                                
                          USING Becke-Johnson damping                          
-------------------------------------------------------------------------------
The PBE0 functional is recognized
Active option DFTDOPT                   ...         4   

molecular C6(AA) [au] = 865.765464 


            DFT-D V3
 parameters
 s6 scaling factor         :     1.0000 
 a1 scaling factor         :     0.4145 
 s8 scaling factor         :     1.2177 
 a2 scaling factor         :     4.8593 
 ad hoc parameters k1-k3   :    16.0000     1.3333    -4.0000 

 Edisp/kcal,au: -3.403540257030  -0.005423886068 
 E6   /kcal   :  -2.193076769 
 E8   /kcal   :  -1.210463488 
 % E8         :  35.564835324 

-------------------------   ----------------
Dispersion correction           -0.005423886
-------------------------   ----------------


-------------------------   --------------------
FINAL SINGLE POINT ENERGY      -267.642272461194
-------------------------   --------------------


                            ***************************************
                            *     ORCA property calculations      *
                            ***************************************

                                    ---------------------
                                    Active property flags
                                    ---------------------
   (+) Dipole Moment


------------------------------------------------------------------------------
                       ORCA ELECTRIC PROPERTIES CALCULATION
------------------------------------------------------------------------------

Dipole Moment Calculation                       ... on
Quadrupole Moment Calculation                   ... off
Polarizability Calculation                      ... off
GBWName                                         ... TZVP_PBE0_A_wt_dlpno_neg.gbw
Electron density file                           ... TZVP_PBE0_A_wt_dlpno_neg.scfp
The origin for moment calculation is the CENTER OF MASS  = (-0.095803, -0.592319 -8.341288)

-------------
DIPOLE MOMENT
-------------
                                X             Y             Z
Electronic contribution:      2.67242      -2.96945      -4.62713
Nuclear contribution   :     -3.54611       4.15440       5.90446
                        -----------------------------------------
Total Dipole Moment    :     -0.87369       1.18495       1.27733
                        -----------------------------------------
Magnitude (a.u.)       :      1.94911
Magnitude (Debye)      :      4.95425



--------------------
Rotational spectrum 
--------------------
 
Rotational constants in cm-1:     0.332789     0.132085     0.101080 
Rotational constants in MHz :  9976.755824  3959.803182  3030.288811 

 Dipole components along the rotational axes: 
x,y,z [a.u.] :     1.844799    -0.608820    -0.158385 
x,y,z [Debye]:     4.689107    -1.547498    -0.402584 

 

Timings for individual modules:

Sum of individual times         ...       19.558 sec (=   0.326 min)
GTO integral calculation        ...        2.252 sec (=   0.038 min)  11.5 %
SCF iterations                  ...       17.306 sec (=   0.288 min)  88.5 %
                             ****ORCA TERMINATED NORMALLY****
TOTAL RUN TIME: 0 days 0 hours 0 minutes 20 seconds 87 msec
