
                                        *****************
                                        * O   R   C   A *
                                        *****************

                                            #,                                       
                                            ###                                      
                                            ####                                     
                                            #####                                    
                                            ######                                   
                                           ########,                                 
                                     ,,################,,,,,                         
                               ,,#################################,,                 
                          ,,##########################################,,             
                       ,#########################################, ''#####,          
                    ,#############################################,,   '####,        
                  ,##################################################,,,,####,       
                ,###########''''           ''''###############################       
              ,#####''   ,,,,##########,,,,          '''####'''          '####       
            ,##' ,,,,###########################,,,                        '##       
           ' ,,###''''                  '''############,,,                           
         ,,##''                                '''############,,,,        ,,,,,,###''
      ,#''                                            '''#######################'''  
     '                                                          ''''####''''         
             ,#######,   #######,   ,#######,      ##                                
            ,#'     '#,  ##    ##  ,#'     '#,    #''#        ######   ,####,        
            ##       ##  ##   ,#'  ##            #'  '#       #        #'  '#        
            ##       ##  #######   ##           ,######,      #####,   #    #        
            '#,     ,#'  ##    ##  '#,     ,#' ,#      #,         ##   #,  ,#        
             '#######'   ##     ##  '#######'  #'      '#     #####' # '####'        



                  #######################################################
                  #                        -***-                        #
                  #          Department of theory and spectroscopy      #
                  #    Directorship and core code : Frank Neese         #
                  #        Max Planck Institute fuer Kohlenforschung    #
                  #                Kaiser Wilhelm Platz 1               #
                  #                 D-45470 Muelheim/Ruhr               #
                  #                      Germany                        #
                  #                                                     #
                  #                  All rights reserved                #
                  #                        -***-                        #
                  #######################################################


                         Program Version 5.0.0 -  RELEASE  -
                                (SVN: $Rev: 19529$)
                ($Date: 2021-06-28 11:36:33 +0200 (Mo, 28 Jun 2021) $)


 With contributions from (in alphabetic order):
   Daniel Aravena         : Magnetic Suceptibility
   Michael Atanasov       : Ab Initio Ligand Field Theory (pilot matlab implementation)
   Alexander A. Auer      : GIAO ZORA, VPT2 properties, NMR spectrum
   Ute Becker             : Parallelization
   Giovanni Bistoni       : ED, misc. LED, open-shell LED, HFLD
   Martin Brehm           : Molecular dynamics
   Dmytro Bykov           : SCF Hessian
   Vijay G. Chilkuri      : MRCI spin determinant printing, contributions to CSF-ICE
   Dipayan Datta          : RHF DLPNO-CCSD density
   Achintya Kumar Dutta   : EOM-CC, STEOM-CC
   Dmitry Ganyushin       : Spin-Orbit,Spin-Spin,Magnetic field MRCI
   Miquel Garcia          : C-PCM Hessian, Gaussian charge scheme
   Yang Guo               : DLPNO-NEVPT2, F12-NEVPT2, CIM, IAO-localization
   Andreas Hansen         : Spin unrestricted coupled pair/coupled cluster methods
   Benjamin Helmich-Paris : MC-RPA, TRAH-SCF, COSX integrals
   Lee Huntington         : MR-EOM, pCC
   Robert Izsak           : Overlap fitted RIJCOSX, COSX-SCS-MP3, EOM
   Marcus Kettner         : VPT2
   Christian Kollmar      : KDIIS, OOCD, Brueckner-CCSD(T), CCSD density, CASPT2, CASPT2-K
   Simone Kossmann        : Meta GGA functionals, TD-DFT gradient, OOMP2, MP2 Hessian
   Martin Krupicka        : Initial AUTO-CI
   Lucas Lang             : DCDCAS
   Marvin Lechner         : AUTO-CI (C++ implementation), FIC-MRCC
   Dagmar Lenk            : GEPOL surface, SMD
   Dimitrios Liakos       : Extrapolation schemes; Compound Job, initial MDCI parallelization
   Dimitrios Manganas     : Further ROCIS development; embedding schemes
   Dimitrios Pantazis     : SARC Basis sets
   Anastasios Papadopoulos: AUTO-CI, single reference methods and gradients
   Taras Petrenko         : DFT Hessian,TD-DFT gradient, ASA, ECA, R-Raman, ABS, FL, XAS/XES, NRVS
   Peter Pinski           : DLPNO-MP2, DLPNO-MP2 Gradient
   Christoph Reimann      : Effective Core Potentials
   Marius Retegan         : Local ZFS, SOC
   Christoph Riplinger    : Optimizer, TS searches, QM/MM, DLPNO-CCSD(T), (RO)-DLPNO pert. Triples
   Tobias Risthaus        : Range-separated hybrids, TD-DFT gradient, RPA, STAB
   Michael Roemelt        : Original ROCIS implementation
   Masaaki Saitow         : Open-shell DLPNO-CCSD energy and density
   Barbara Sandhoefer     : DKH picture change effects
   Avijit Sen             : IP-ROCIS
   Kantharuban Sivalingam : CASSCF convergence, NEVPT2, FIC-MRCI
   Bernardo de Souza      : ESD, SOC TD-DFT
   Georgi Stoychev        : AutoAux, RI-MP2 NMR
   Willem Van den Heuvel  : Paramagnetic NMR
   Boris Wezisla          : Elementary symmetry handling
   Frank Wennmohs         : Technical directorship


 We gratefully acknowledge several colleagues who have allowed us to
 interface, adapt or use parts of their codes:
   Stefan Grimme, W. Hujo, H. Kruse, P. Pracht,  : VdW corrections, initial TS optimization,
                  C. Bannwarth, S. Ehlert          DFT functionals, gCP, sTDA/sTD-DF
   Ed Valeev, F. Pavosevic, A. Kumar             : LibInt (2-el integral package), F12 methods
   Garnet Chan, S. Sharma, J. Yang, R. Olivares  : DMRG
   Ulf Ekstrom                                   : XCFun DFT Library
   Mihaly Kallay                                 : mrcc  (arbitrary order and MRCC methods)
   Jiri Pittner, Ondrej Demel                    : Mk-CCSD
   Frank Weinhold                                : gennbo (NPA and NBO analysis)
   Christopher J. Cramer and Donald G. Truhlar   : smd solvation model
   Lars Goerigk                                  : TD-DFT with DH, B97 family of functionals
   V. Asgeirsson, H. Jonsson                     : NEB implementation
   FAccTs GmbH                                   : IRC, NEB, NEB-TS, DLPNO-Multilevel, CI-OPT
                                                   MM, QMMM, 2- and 3-layer-ONIOM, Crystal-QMMM,
                                                   LR-CPCM, SF, NACMEs, symmetry and pop. for TD-DFT,
                                                   nearIR, NL-DFT gradient (VV10), updates on ESD,
                                                   ML-optimized integration grids
   S Lehtola, MJT Oliveira, MAL Marques          : LibXC Library
   Liviu Ungur et al                             : ANISO software


 Your calculation uses the libint2 library for the computation of 2-el integrals
 For citations please refer to: http://libint.valeyev.net

 Your ORCA version has been built with support for libXC version: 5.1.0
 For citations please refer to: https://tddft.org/programs/libxc/

 This ORCA versions uses:
   CBLAS   interface :  Fast vector & matrix operations
   LAPACKE interface :  Fast linear algebra routines
   SCALAPACK package :  Parallel linear algebra routines
   Shared memory     :  Shared parallel matrices
   BLAS/LAPACK       :  OpenBLAS 0.3.15  USE64BITINT DYNAMIC_ARCH NO_AFFINITY Haswell SINGLE_THREADED
        Core in use  :  Haswell
   Copyright (c) 2011-2014, The OpenBLAS Project




***************************************
The coordinates will be read from file: D7.xyz
***************************************


XCFun DFT library Copyright 2009-2010 Ulf Ekstrom and contributors.
See http://admol.org/xcfun for more information.
This is free software; see the source code for copying conditions.
There is ABSOLUTELY NO WARRANTY; not even for MERCHANTABILITY or FITNESS FOR A PARTICULAR PURPOSE.
For details see the documentation.
Scientific users of this library should cite U. Ekstrom, L. Visscher, R. Bast, A. J. Thorvaldsen and K. Ruud;
J.Chem.Theor.Comp. 2010, DOI: 10.1021/ct100117s
XCFun Version 0.99 

================================================================================

----- Orbital basis set information -----
Your calculation utilizes the basis: def2-SVPD
   F. Weigend and R. Ahlrichs, Phys. Chem. Chem. Phys. 7, 3297 (2005).
   D. Rappoport and F. Furche, J. Chem. Phys. 133 134105 (2010).

----- AuxJ basis set information -----
Your calculation utilizes the auxiliary basis: def2/J
   F. Weigend, Phys. Chem. Chem. Phys. 8, 1057 (2006).

================================================================================
                                        WARNINGS
                       Please study these warnings very carefully!
================================================================================


INFO   : the flag for use of the SHARK integral package has been found!

================================================================================
                                       INPUT FILE
================================================================================
NAME = 28Oct_SVPD_LC_BLYP_D7_wb97.com
|  1> !LC-BLYP RIJCOSX def2-SVPD def2/J TightSCF xyzfile                                                                                         
|  2> 
|  3> *xyzfile 0 1 D7.xyz
|  4> 
|  5> %MaxCore 64000
|  6> 
|  7> %pal nprocs 4
|  8> end  
|  9> 
| 10> %scf
| 11>   MaxIter 150
| 12> end
| 13> 
| 14> 
| 15>                          ****END OF INPUT****
================================================================================

                       ****************************
                       * Single Point Calculation *
                       ****************************

---------------------------------
CARTESIAN COORDINATES (ANGSTROEM)
---------------------------------
  C      4.490588    1.155899   -2.469290
  C      4.305394    1.222762   -3.908317
  C      4.906458   -3.102816   -5.954844
  C      3.511771   -2.806215   -6.492283
  H      2.736044   -3.373445   -5.973736
  H      3.444904   -3.040831   -7.555281
  S      3.004618   -1.096206   -6.389259
  C      4.631918    2.246365   -4.670958
  N      4.541686    2.143990   -5.987139
  N      5.084086    3.393584   -4.118545
  H      4.920675    3.570501   -3.135870
  H      5.254652    4.197390   -4.706956
  H      3.824530    0.449113   -4.350926
  H      4.343373    1.249318   -6.416646
  H      4.676712    2.956624   -6.574113
  O      4.128856   -0.329647   -6.953717
  O      1.781285   -1.000779   -7.136399
  C      5.942129    0.939500   -2.036893
  H      3.864305    0.328532   -2.136611
  H      4.076233    2.049994   -1.989010
  C      6.462677   -3.117775   -3.944671
  C      5.024977   -3.025679   -4.437625
  H      4.423321   -3.818693   -3.977648
  H      4.579350   -2.087131   -4.108727
  H      5.201533   -4.100207   -6.296905
  H      5.605922   -2.397822   -6.413368
  C      6.559957   -0.356290   -2.559086
  H      5.967976    0.952567   -0.942444
  H      6.547184    1.788331   -2.368849
  C      6.006283   -1.615917   -1.899301
  H      7.642360   -0.318000   -2.402059
  H      6.414855   -0.403433   -3.642587
  C      6.608718   -2.917014   -2.435655
  H      6.190324   -1.561115   -0.820948
  H      4.919250   -1.651245   -2.016586
  H      7.066975   -2.374258   -4.475514
  H      6.887808   -4.089747   -4.215332
  H      6.135197   -3.755573   -1.915159
  H      7.671142   -2.955503   -2.172291
  F      2.851546   -0.783683   -4.956789

----------------------------
CARTESIAN COORDINATES (A.U.)
----------------------------
  NO LB      ZA    FRAG     MASS         X           Y           Z
   0 C     6.0000    0    12.011    8.485982    2.184332   -4.666282
   1 C     6.0000    0    12.011    8.136015    2.310685   -7.385649
   2 C     6.0000    0    12.011    9.271862   -5.863473  -11.253025
   3 C     6.0000    0    12.011    6.636285   -5.302977  -12.268638
   4 H     1.0000    0     1.008    5.170374   -6.374888  -11.288724
   5 H     1.0000    0     1.008    6.509926   -5.746338  -14.277412
   6 S    16.0000    0    32.060    5.677904   -2.071530  -12.073950
   7 C     6.0000    0    12.011    8.753057    4.245015   -8.826831
   8 N     7.0000    0    14.007    8.582543    4.051553  -11.314052
   9 N     7.0000    0    14.007    9.607530    6.412945   -7.782923
  10 H     1.0000    0     1.008    9.298728    6.747268   -5.925936
  11 H     1.0000    0     1.008    9.929852    7.931917   -8.894858
  12 H     1.0000    0     1.008    7.227314    0.848701   -8.222058
  13 H     1.0000    0     1.008    8.207786    2.360868  -12.125704
  14 H     1.0000    0     1.008    8.837705    5.587209  -12.423274
  15 O     8.0000    0    15.999    7.802408   -0.622942  -13.140621
  16 O     8.0000    0    15.999    3.366140   -1.891199  -13.485840
  17 C     6.0000    0    12.011   11.228997    1.775397   -3.849170
  18 H     1.0000    0     1.008    7.302479    0.620836   -4.037610
  19 H     1.0000    0     1.008    7.702964    3.873927   -3.758685
  20 C     6.0000    0    12.011   12.212689   -5.891741   -7.454347
  21 C     6.0000    0    12.011    9.495831   -5.717705   -8.385896
  22 H     1.0000    0     1.008    8.358866   -7.216284   -7.516666
  23 H     1.0000    0     1.008    8.653718   -3.944106   -7.764369
  24 H     1.0000    0     1.008    9.829473   -7.748269  -11.899427
  25 H     1.0000    0     1.008   10.593657   -4.531226  -12.119509
  26 C     6.0000    0    12.011   12.396522   -0.673291   -4.835971
  27 H     1.0000    0     1.008   11.277840    1.800090   -1.780961
  28 H     1.0000    0     1.008   12.372385    3.379455   -4.476477
  29 C     6.0000    0    12.011   11.350230   -3.053641   -3.589158
  30 H     1.0000    0     1.008   14.441966   -0.600934   -4.539234
  31 H     1.0000    0     1.008   12.122318   -0.762378   -6.883492
  32 C     6.0000    0    12.011   12.488666   -5.512358   -4.602721
  33 H     1.0000    0     1.008   11.698016   -2.950080   -1.551366
  34 H     1.0000    0     1.008    9.296035   -3.120400   -3.810796
  35 H     1.0000    0     1.008   13.354648   -4.486697   -8.457496
  36 H     1.0000    0     1.008   13.016070   -7.728501   -7.965822
  37 H     1.0000    0     1.008   11.593841   -7.097005   -3.619127
  38 H     1.0000    0     1.008   14.496357   -5.585092   -4.105035
  39 F     9.0000    0    18.998    5.388641   -1.480946   -9.366974

--------------------------------
INTERNAL COORDINATES (ANGSTROEM)
--------------------------------
 C      0   0   0     0.000000000000     0.00000000     0.00000000
 C      1   0   0     1.452434888732     0.00000000     0.00000000
 C      2   1   0     4.822880648060   111.29935464     0.00000000
 C      3   2   1     1.523799819616    82.01111056   124.72570022
 H      4   3   2     1.091968299252   112.43309611   255.51929182
 H      4   3   2     1.090632873150   110.97759244   134.54655122
 S      4   3   2     1.786602224664   115.19977359    16.50892478
 C      2   1   3     1.317574833962   125.28497018   214.05519914
 N      8   2   1     1.323236350905   119.91604121   173.18858040
 N      8   2   1     1.351194480527   120.39094198   354.48825376
 H     10   8   2     1.011757151303   119.43893893   342.13916756
 H     10   8   2     1.010654769343   119.58539038   185.29571941
 H      2   1   3     1.012750840265   117.28239304    38.84614007
 H      9   8   2     1.012048706728   120.25757225   351.78674532
 H      9   8   2     1.011506480060   120.39405507   172.23609159
 O      7   4   3     1.473139212620   105.02973514    49.07238667
 O      7   4   3     1.436617023222   105.98041552   170.73821441
 C      1   2   3     1.529956533456   114.04751046    71.27147181
 H      1   2   3     1.089697165343   105.31628314   309.84494500
 H      1   2   3     1.096250554262   110.38499465   196.36075284
 C      3   2   1     2.542211031985    75.28786529   328.63877310
 C     21   3   2     1.522650424266    33.45203408    62.46988994
 H     22  21   3     1.096558425421   109.78678321   123.00138599
 H     22  21   3     1.089784085482   109.90626334   238.94967961
 H      3   2   1     1.094926392967   169.46526939   316.66150389
 H      3   2   1     1.093851646948    71.30795148   237.06279558
 C     18   1   2     1.527569327213   114.02213033   299.75436756
 H     18   1   2     1.094832037269   107.65179087   177.40351951
 H     18   1   2     1.093983651653   109.22173402    62.36298160
 C     27  18   1     1.525952470352   113.93276277   288.90034571
 H     27  18   1     1.094403426518   108.74093275   167.10616769
 H     27  18   1     1.094190161747   108.74874272    52.17399198
 C     21   3   2     1.529300762752   146.92063230    53.80488115
 H     30  27  18     1.095317124906   108.86941482   300.75108730
 H     30  27  18     1.093912987644   109.92906200    56.35085961
 H     21   3   2     1.095348999413    87.16372703   291.04892433
 H     21   3   2     1.094861915024    92.71949470   185.57163885
 H     33  21   3     1.094677724411   109.10507473    72.09358689
 H     33  21   3     1.095256828209   108.98305469   187.60350442
 F      7   4   3     1.474133937430   106.76381078   292.33403201

---------------------------
INTERNAL COORDINATES (A.U.)
---------------------------
 C      0   0   0     0.000000000000     0.00000000     0.00000000
 C      1   0   0     2.744704167055     0.00000000     0.00000000
 C      2   1   0     9.113923601421   111.29935464     0.00000000
 C      3   2   1     2.879564341994    82.01111056   124.72570022
 H      4   3   2     2.063521032510   112.43309611   255.51929182
 H      4   3   2     2.060997442905   110.97759244   134.54655122
 S      4   3   2     3.376188914869   115.19977359    16.50892478
 C      2   1   3     2.489855597135   125.28497018   214.05519914
 N      8   2   1     2.500554313659   119.91604121   173.18858040
 N      8   2   1     2.553387521862   120.39094198   354.48825376
 H     10   8   2     1.911943930000   119.43893893   342.13916756
 H     10   8   2     1.909860730000   119.58539038   185.29571941
 H      2   1   3     1.913821729999   117.28239304    38.84614007
 H      9   8   2     1.912494889904   120.25757225   351.78674532
 H      9   8   2     1.911470230000   120.39405507   172.23609159
 O      7   4   3     2.783829668993   105.02973514    49.07238667
 O      7   4   3     2.714812733219   105.98041552   170.73821441
 C      1   2   3     2.891198845036   114.04751046    71.27147181
 H      1   2   3     2.059229211409   105.31628314   309.84494500
 H      1   2   3     2.071613321715   110.38499465   196.36075284
 C      3   2   1     4.804082625084    75.28786529   328.63877310
 C     21   3   2     2.877392299561    33.45203408    62.46988994
 H     22  21   3     2.072195113889   109.78678321   123.00138599
 H     22  21   3     2.059393466667   109.90626334   238.94967961
 H      3   2   1     2.069111019509   169.46526939   316.66150389
 H      3   2   1     2.067080043870    71.30795148   237.06279558
 C     18   1   2     2.886687679010   114.02213033   299.75436756
 H     18   1   2     2.068932713082   107.65179087   177.40351951
 H     18   1   2     2.067329496612   109.22173402    62.36298160
 C     27  18   1     2.883632262346   113.93276277   288.90034571
 H     27  18   1     2.068122756144   108.74093275   167.10616769
 H     27  18   1     2.067719744133   108.74874272    52.17399198
 C     21   3   2     2.889959617997   146.92063230    53.80488115
 H     30  27  18     2.069849395866   108.86941482   300.75108730
 H     30  27  18     2.067195960987   109.92906200    56.35085961
 H     21   3   2     2.069909629955    87.16372703   291.04892433
 H     21   3   2     2.068989173855    92.71949470   185.57163885
 H     33  21   3     2.068641104040   109.10507473    72.09358689
 H     33  21   3     2.069735451623   108.98305469   187.60350442
 F      7   4   3     2.785709426462   106.76381078   292.33403201

---------------------
BASIS SET INFORMATION
---------------------
There are 6 groups of distinct atoms

 Group   1 Type C   : 8s4p2d contracted to 4s2p2d pattern {5111/31/11}
 Group   2 Type H   : 4s2p contracted to 2s2p pattern {31/11}
 Group   3 Type S   : 11s8p2d contracted to 5s4p2d pattern {53111/5111/11}
 Group   4 Type N   : 8s4p2d contracted to 4s2p2d pattern {5111/31/11}
 Group   5 Type O   : 8s5p2d contracted to 4s3p2d pattern {5111/311/11}
 Group   6 Type F   : 8s5p2d contracted to 4s3p2d pattern {5111/311/11}

Atom   0C    basis set group =>   1
Atom   1C    basis set group =>   1
Atom   2C    basis set group =>   1
Atom   3C    basis set group =>   1
Atom   4H    basis set group =>   2
Atom   5H    basis set group =>   2
Atom   6S    basis set group =>   3
Atom   7C    basis set group =>   1
Atom   8N    basis set group =>   4
Atom   9N    basis set group =>   4
Atom  10H    basis set group =>   2
Atom  11H    basis set group =>   2
Atom  12H    basis set group =>   2
Atom  13H    basis set group =>   2
Atom  14H    basis set group =>   2
Atom  15O    basis set group =>   5
Atom  16O    basis set group =>   5
Atom  17C    basis set group =>   1
Atom  18H    basis set group =>   2
Atom  19H    basis set group =>   2
Atom  20C    basis set group =>   1
Atom  21C    basis set group =>   1
Atom  22H    basis set group =>   2
Atom  23H    basis set group =>   2
Atom  24H    basis set group =>   2
Atom  25H    basis set group =>   2
Atom  26C    basis set group =>   1
Atom  27H    basis set group =>   2
Atom  28H    basis set group =>   2
Atom  29C    basis set group =>   1
Atom  30H    basis set group =>   2
Atom  31H    basis set group =>   2
Atom  32C    basis set group =>   1
Atom  33H    basis set group =>   2
Atom  34H    basis set group =>   2
Atom  35H    basis set group =>   2
Atom  36H    basis set group =>   2
Atom  37H    basis set group =>   2
Atom  38H    basis set group =>   2
Atom  39F    basis set group =>   6
---------------------------------
AUXILIARY/J BASIS SET INFORMATION
---------------------------------
There are 6 groups of distinct atoms

 Group   1 Type C   : 12s5p4d2f1g contracted to 6s4p3d1f1g pattern {711111/2111/211/2/1}
 Group   2 Type H   : 5s2p1d contracted to 3s1p1d pattern {311/2/1}
 Group   3 Type S   : 14s5p5d2f1g contracted to 8s4p3d1f1g pattern {71111111/2111/311/2/1}
 Group   4 Type N   : 12s5p4d2f1g contracted to 6s4p3d1f1g pattern {711111/2111/211/2/1}
 Group   5 Type O   : 12s5p4d2f1g contracted to 6s4p3d1f1g pattern {711111/2111/211/2/1}
 Group   6 Type F   : 12s5p4d2f1g contracted to 6s4p3d1f1g pattern {711111/2111/211/2/1}

Atom   0C    basis set group =>   1
Atom   1C    basis set group =>   1
Atom   2C    basis set group =>   1
Atom   3C    basis set group =>   1
Atom   4H    basis set group =>   2
Atom   5H    basis set group =>   2
Atom   6S    basis set group =>   3
Atom   7C    basis set group =>   1
Atom   8N    basis set group =>   4
Atom   9N    basis set group =>   4
Atom  10H    basis set group =>   2
Atom  11H    basis set group =>   2
Atom  12H    basis set group =>   2
Atom  13H    basis set group =>   2
Atom  14H    basis set group =>   2
Atom  15O    basis set group =>   5
Atom  16O    basis set group =>   5
Atom  17C    basis set group =>   1
Atom  18H    basis set group =>   2
Atom  19H    basis set group =>   2
Atom  20C    basis set group =>   1
Atom  21C    basis set group =>   1
Atom  22H    basis set group =>   2
Atom  23H    basis set group =>   2
Atom  24H    basis set group =>   2
Atom  25H    basis set group =>   2
Atom  26C    basis set group =>   1
Atom  27H    basis set group =>   2
Atom  28H    basis set group =>   2
Atom  29C    basis set group =>   1
Atom  30H    basis set group =>   2
Atom  31H    basis set group =>   2
Atom  32C    basis set group =>   1
Atom  33H    basis set group =>   2
Atom  34H    basis set group =>   2
Atom  35H    basis set group =>   2
Atom  36H    basis set group =>   2
Atom  37H    basis set group =>   2
Atom  38H    basis set group =>   2
Atom  39F    basis set group =>   6


           ************************************************************
           *        Program running with 4 parallel MPI-processes     *
           *              working on a common directory               *
           ************************************************************
------------------------------------------------------------------------------
                           ORCA GTO INTEGRAL CALCULATION
                           -- RI-GTO INTEGRALS CHOSEN --
------------------------------------------------------------------------------
------------------------------------------------------------------------------
                   ___                                                        
                  /   \      - P O W E R E D   B Y -                         
                 /     \                                                     
                 |  |  |   _    _      __       _____    __    __             
                 |  |  |  | |  | |    /  \     |  _  \  |  |  /  |          
                  \  \/   | |  | |   /    \    | | | |  |  | /  /          
                 / \  \   | |__| |  /  /\  \   | |_| |  |  |/  /          
                |  |  |   |  __  | /  /__\  \  |    /   |      \           
                |  |  |   | |  | | |   __   |  |    \   |  |\   \          
                \     /   | |  | | |  |  |  |  | |\  \  |  | \   \       
                 \___/    |_|  |_| |__|  |__|  |_| \__\ |__|  \__/        
                                                                              
                      - O R C A' S   B I G   F R I E N D -                    
                                      &                                       
                       - I N T E G R A L  F E E D E R -                       
                                                                              
 v1 FN, 2020, v2 2021                                                         
------------------------------------------------------------------------------


Reading SHARK input file 28Oct_SVPD_LC_BLYP_D7_wb97.SHARKINP.tmp ... ok
----------------------
SHARK INTEGRAL PACKAGE
----------------------

Number of atoms                             ...     40
Number of basis functions                   ...    540
Number of shells                            ...    234
Maximum angular momentum                    ...      2
Integral batch strategy                     ... SHARK/LIBINT Hybrid
RI-J (if used) integral strategy            ... SPLIT-RIJ (Revised 2003 algorithm where possible)
Printlevel                                  ...      1
Contraction scheme used                     ... SEGMENTED contraction
Coulomb Range Separation                    ... NOT USED
Exchange Range Separation                   ... Long Range
   Mu parameter                             ...  0.330000
   Scaling (regular/separated)              ...  0.000000  1.000000
Finite Nucleus Model                        ... NOT USED
Auxiliary Coulomb fitting basis             ... AVAILABLE
   # of basis functions in Aux-J            ...   1088
   # of shells in Aux-J                     ...    372
   Maximum angular momentum in Aux-J        ...      4
Auxiliary J/K fitting basis                 ... NOT available
Auxiliary Correlation fitting basis         ... NOT available
Auxiliary 'external' fitting basis          ... NOT available
Integral threshold                          ...     2.500000e-11
Primitive cut-off                           ...     2.500000e-12
Primitive pair pre-selection threshold      ...     2.500000e-12

Calculating pre-screening integrals         ... done (  0.1 sec) Dimension = 234
Organizing shell pair data                  ... done (  0.2 sec)
Shell pair information
Total number of shell pairs                 ...     27495
Shell pairs after pre-screening             ...     24613
Total number of primitive shell pairs       ...     74991
Primitive shell pairs kept                  ...     49903
          la=0 lb=0:   5925 shell pairs
          la=1 lb=0:   8753 shell pairs
          la=1 lb=1:   3277 shell pairs
          la=2 lb=0:   3510 shell pairs
          la=2 lb=1:   2612 shell pairs
          la=2 lb=2:    536 shell pairs

Calculating one electron integrals          ... done (  0.1 sec)
Calculating RI/J V-Matrix + Cholesky decomp.... done (  0.1 sec)
Calculating Nuclear repulsion               ... done (  0.0 sec) ENN=   1571.858307194944 Eh

SHARK setup successfully completed in   0.6 seconds

Maximum memory used throughout the entire GTOINT-calculation: 36.0 MB


           ************************************************************
           *        Program running with 4 parallel MPI-processes     *
           *              working on a common directory               *
           ************************************************************
-------------------------------------------------------------------------------
                                 ORCA SCF
-------------------------------------------------------------------------------

------------
SCF SETTINGS
------------
Hamiltonian:
 Density Functional     Method          .... DFT(GTOs)
 Exchange Functional    Exchange        .... WB88
 Correlation Functional Correlation     .... LYP
 Gradients option       PostSCFGGA      .... off
   Density functional embedding theory  .... OFF
 Long-range corrected/Screened/Range-Separated Hybrid DFT is turned on
   Amount of maximum screened exact exchange              ....  1.000000
   Range separation parameter mu (erf(mu*r12)/r12)        ....  0.330000
 RI-approximation to the Coulomb term is turned on
   Number of AuxJ basis functions       .... 1088
   RIJ-COSX (HFX calculated with COS-X)).... on


General Settings:
 Integral files         IntName         .... 28Oct_SVPD_LC_BLYP_D7_wb97
 Hartree-Fock type      HFTyp           .... RHF
 Total Charge           Charge          ....    0
 Multiplicity           Mult            ....    1
 Number of Electrons    NEL             ....  144
 Basis Dimension        Dim             ....  540
 Nuclear Repulsion      ENuc            ....   1571.8583071949 Eh

Convergence Acceleration:
 DIIS                   CNVDIIS         .... on
   Start iteration      DIISMaxIt       ....    12
   Startup error        DIISStart       ....  0.200000
   # of expansion vecs  DIISMaxEq       ....     5
   Bias factor          DIISBfac        ....   1.050
   Max. coefficient     DIISMaxC        ....  10.000
 Trust-Rad. Augm. Hess. CNVTRAH         .... auto
   Auto Start mean grad. ratio tolernc. ....  1.125000
   Auto Start start iteration           ....    20
   Auto Start num. interpolation iter.  ....    10
   Max. Number of Micro iterations      ....    16
   Max. Number of Macro iterations      .... Maxiter - #DIIS iter
   Number of Davidson start vectors     ....     2
   Converg. threshold I  (grad. norm)   ....   1.000e-05
   Converg. threshold II (energy diff.) ....   1.000e-08
   Grad. Scal. Fac. for Micro threshold ....   0.100
   Minimum threshold for Micro iter.    ....   0.010
   NR start threshold (gradient norm)   ....   0.001
   Initial trust radius                 ....   0.400
   Minimum AH scaling param. (alpha)    ....   1.000
   Maximum AH scaling param. (alpha)    .... 1000.000
   Orbital update algorithm             .... Taylor
   White noise on init. David. guess    .... on
   Maximum white noise                  ....   0.010
   Quad. conv. algorithm                .... NR
 SOSCF                  CNVSOSCF        .... on
   Start iteration      SOSCFMaxIt      ....   150
   Startup grad/error   SOSCFStart      ....  0.003300
 Level Shifting         CNVShift        .... on
   Level shift para.    LevelShift      ....    0.2500
   Turn off err/grad.   ShiftErr        ....    0.0010
 Zerner damping         CNVZerner       .... off
 Static damping         CNVDamp         .... on
   Fraction old density DampFac         ....    0.7000
   Max. Damping (<1)    DampMax         ....    0.9800
   Min. Damping (>=0)   DampMin         ....    0.0000
   Turn off err/grad.   DampErr         ....    0.1000
 Fernandez-Rico         CNVRico         .... off

SCF Procedure:
 Maximum # iterations   MaxIter         ....   150
 SCF integral mode      SCFMode         .... Direct
   Integral package                     .... SHARK and LIBINT hybrid scheme
 Reset frequency        DirectResetFreq ....    20
 Integral Threshold     Thresh          ....  2.500e-11 Eh
 Primitive CutOff       TCut            ....  2.500e-12 Eh

Convergence Tolerance:
 Convergence Check Mode ConvCheckMode   .... Total+1el-Energy
 Convergence forced     ConvForced      .... 0
 Energy Change          TolE            ....  1.000e-08 Eh
 1-El. energy change                    ....  1.000e-05 Eh
 Orbital Gradient       TolG            ....  1.000e-05
 Orbital Rotation angle TolX            ....  1.000e-05
 DIIS Error             TolErr          ....  5.000e-07


Diagonalization of the overlap matrix:
Smallest eigenvalue                        ... 1.382e-05
Time for diagonalization                   ...    0.067 sec
Threshold for overlap eigenvalues          ... 1.000e-08
Number of eigenvalues below threshold      ... 0
Time for construction of square roots      ...    0.081 sec
Total time needed                          ...    0.150 sec

Time for model grid setup =    0.479 sec

------------------------------
INITIAL GUESS: MODEL POTENTIAL
------------------------------
Loading Hartree-Fock densities                     ... done
Calculating cut-offs                               ... done
Initializing the effective Hamiltonian             ... done
Setting up the integral package (SHARK)            ... done
Starting the Coulomb interaction                   ... done (   0.7 sec)
Reading the grid                                   ... done
Mapping shells                                     ... done
Starting the XC term evaluation                    ... done (   0.7 sec)
  promolecular density results
     # of electrons  =    143.981034588
     EX              =   -127.661249766
     EC              =     -4.952475867
     EX+EC           =   -132.613725633
Transforming the Hamiltonian                       ... done (   0.0 sec)
Diagonalizing the Hamiltonian                      ... done (   0.1 sec)
Back transforming the eigenvectors                 ... done (   0.0 sec)
Now organizing SCF variables                       ... done
                      ------------------
                      INITIAL GUESS DONE (   2.0 sec)
                      ------------------
-------------------
DFT GRID GENERATION
-------------------

General Integration Accuracy     IntAcc      ... 4.388
Radial Grid Type                 RadialGrid  ... OptM3 with GC (2021)
Angular Grid (max. ang.)         AngularGrid ... 4 (Lebedev-302)
Angular grid pruning method      GridPruning ... 4 (adaptive)
Weight generation scheme         WeightScheme... Becke
Basis function cutoff            BFCut       ... 1.0000e-11
Integration weight cutoff        WCut        ... 1.0000e-14
Angular grids for H and He will be reduced by one unit
Partially contracted basis set               ... off
Rotationally invariant grid construction     ... off

Total number of grid points                  ...   179802
Total number of batches                      ...     2828
Average number of points per batch           ...       63
Average number of grid points per atom       ...     4495
Time for grid setup =    1.883 sec

--------------------
COSX GRID GENERATION
--------------------

GRIDX 1
-------
General Integration Accuracy     IntAcc      ... 3.816
Radial Grid Type                 RadialGrid  ... OptM3 with GC (2021)
Angular Grid (max. ang.)         AngularGrid ... 1 (Lebedev-50)
Angular grid pruning method      GridPruning ... 4 (adaptive)
Weight generation scheme         WeightScheme... Becke
Basis function cutoff            BFCut       ... 1.0000e-11
Integration weight cutoff        WCut        ... 1.0000e-14
Angular grids for H and He will be reduced by one unit
Partially contracted basis set               ... on
Rotationally invariant grid construction     ... off

Total number of grid points                  ...    22362
Total number of batches                      ...      376
Average number of points per batch           ...       59
Average number of grid points per atom       ...      559
UseSFitting                                  ... on

GRIDX 2
-------
General Integration Accuracy     IntAcc      ... 4.020
Radial Grid Type                 RadialGrid  ... OptM3 with GC (2021)
Angular Grid (max. ang.)         AngularGrid ... 2 (Lebedev-110)
Angular grid pruning method      GridPruning ... 4 (adaptive)
Weight generation scheme         WeightScheme... Becke
Basis function cutoff            BFCut       ... 1.0000e-11
Integration weight cutoff        WCut        ... 1.0000e-14
Angular grids for H and He will be reduced by one unit
Partially contracted basis set               ... on
Rotationally invariant grid construction     ... off

Total number of grid points                  ...    49142
Total number of batches                      ...      786
Average number of points per batch           ...       62
Average number of grid points per atom       ...     1229
UseSFitting                                  ... on

GRIDX 3
-------
General Integration Accuracy     IntAcc      ... 4.338
Radial Grid Type                 RadialGrid  ... OptM3 with GC (2021)
Angular Grid (max. ang.)         AngularGrid ... 3 (Lebedev-194)
Angular grid pruning method      GridPruning ... 4 (adaptive)
Weight generation scheme         WeightScheme... Becke
Basis function cutoff            BFCut       ... 1.0000e-11
Integration weight cutoff        WCut        ... 1.0000e-14
Angular grids for H and He will be reduced by one unit
Partially contracted basis set               ... on
Rotationally invariant grid construction     ... off

Total number of grid points                  ...   110424
Total number of batches                      ...     1745
Average number of points per batch           ...       63
Average number of grid points per atom       ...     2761
UseSFitting                                  ... on

Time for X-Grid setup             =    2.634 sec

--------------
SCF ITERATIONS
--------------
ITER       Energy         Delta-E        Max-DP      RMS-DP      [F,P]     Damp
               ***  Starting incremental Fock matrix formation  ***
  0  -1187.3873481998   0.000000000000 0.20560112  0.00230032  0.2679200 0.7000
  1  -1187.7006038453  -0.313255645526 0.21299154  0.00181782  0.1190148 0.7000
                               ***Turning on DIIS***
  2  -1187.8427133299  -0.142109484564 0.54720355  0.00425388  0.0535505 0.0000
  3  -1188.0753909700  -0.232677640096 0.13409968  0.00147147  0.0600527 0.0000
  4  -1188.1152941795  -0.039903209537 0.03591435  0.00034690  0.0147263 0.0000
  5  -1188.1163125631  -0.001018383611 0.00937172  0.00014180  0.0089325 0.0000
                      *** Initiating the SOSCF procedure ***
                           *** Shutting down DIIS ***
                      *** Re-Reading the Fockian *** 
                      *** Removing any level shift *** 
ITER      Energy       Delta-E        Grad      Rot      Max-DP    RMS-DP
  6  -1188.11658317  -0.0002706055  0.000427  0.000427  0.013242  0.000111
               *** Restarting incremental Fock matrix formation ***
  7  -1188.11661072  -0.0000275542  0.000161  0.000404  0.020531  0.000280
  8  -1188.11661274  -0.0000020221  0.000199  0.000173  0.004041  0.000061
  9  -1188.11661632  -0.0000035773  0.000041  0.000120  0.002517  0.000034
 10  -1188.11661645  -0.0000001280  0.000016  0.000053  0.001127  0.000012
 11  -1188.11661655  -0.0000001041  0.000005  0.000016  0.000992  0.000005
 12  -1188.11661657  -0.0000000130  0.000003  0.000003  0.000375  0.000003
                  ***Gradient check signals convergence***
              ***Rediagonalizing the Fockian in SOSCF/NRSCF***

               *****************************************************
               *                     SUCCESS                       *
               *           SCF CONVERGED AFTER  13 CYCLES          *
               *****************************************************


----------------
TOTAL SCF ENERGY
----------------

Total Energy       :        -1188.11661656 Eh          -32330.29678 eV

Components:
Nuclear Repulsion  :         1571.85830719 Eh           42772.43905 eV
Electronic Energy  :        -2759.97492375 Eh          -75102.73582 eV
One Electron Energy:        -4750.93588630 Eh         -129279.53791 eV
Two Electron Energy:         1990.96096255 Eh           54176.80209 eV
Max COSX asymmetry :            0.00001900 Eh               0.00052 eV

Virial components:
Potential Energy   :        -2368.21457174 Eh          -64442.39469 eV
Kinetic Energy     :         1180.09795519 Eh           32112.09791 eV
Virial Ratio       :            2.00679491


DFT components:
N(Alpha)           :       71.999832896036 electrons
N(Beta)            :       71.999832896036 electrons
N(Total)           :      143.999665792071 electrons
E(XC)              :     -108.850470602661 Eh       
DFET-embed. en.    :        0.000000000000 Eh       

---------------
SCF CONVERGENCE
---------------

  Last Energy change         ...    1.1031e-08  Tolerance :   1.0000e-08
  Last MAX-Density change    ...    8.1161e-04  Tolerance :   1.0000e-07
  Last RMS-Density change    ...    4.4340e-06  Tolerance :   5.0000e-09
  Last Orbital Gradient      ...    6.1478e-07  Tolerance :   1.0000e-05
  Last Orbital Rotation      ...    1.3981e-06  Tolerance :   1.0000e-05

             **** THE GBW FILE WAS UPDATED (28Oct_SVPD_LC_BLYP_D7_wb97.gbw) ****
             **** DENSITY 28Oct_SVPD_LC_BLYP_D7_wb97.scfp WAS UPDATED ****
             **** ENERGY FILE WAS UPDATED (28Oct_SVPD_LC_BLYP_D7_wb97.en.tmp) ****
             **** THE GBW FILE WAS UPDATED (28Oct_SVPD_LC_BLYP_D7_wb97.gbw) ****
             **** DENSITY 28Oct_SVPD_LC_BLYP_D7_wb97.scfp WAS UPDATED ****
----------------
ORBITAL ENERGIES
----------------

  NO   OCC          E(Eh)            E(eV) 
   0   2.0000     -88.578864     -2410.3534 
   1   2.0000     -24.587308      -669.0547 
   2   2.0000     -18.984633      -516.5981 
   3   2.0000     -18.980024      -516.4727 
   4   2.0000     -14.178921      -385.8281 
   5   2.0000     -14.155320      -385.1858 
   6   2.0000     -10.155264      -276.3388 
   7   2.0000     -10.116858      -275.2937 
   8   2.0000     -10.114036      -275.2169 
   9   2.0000     -10.094829      -274.6943 
  10   2.0000     -10.084445      -274.4117 
  11   2.0000     -10.077896      -274.2335 
  12   2.0000     -10.070048      -274.0199 
  13   2.0000     -10.061069      -273.7756 
  14   2.0000     -10.056368      -273.6477 
  15   2.0000     -10.052987      -273.5557 
  16   2.0000      -9.990444      -271.8538 
  17   2.0000      -8.127049      -221.1483 
  18   2.0000      -6.165906      -167.7828 
  19   2.0000      -6.159484      -167.6081 
  20   2.0000      -6.157542      -167.5552 
  21   2.0000      -1.445263       -39.3276 
  22   2.0000      -1.223366       -33.2895 
  23   2.0000      -1.124143       -30.5895 
  24   2.0000      -1.037511       -28.2321 
  25   2.0000      -0.955046       -25.9881 
  26   2.0000      -0.944531       -25.7020 
  27   2.0000      -0.917249       -24.9596 
  28   2.0000      -0.887515       -24.1505 
  29   2.0000      -0.862573       -23.4718 
  30   2.0000      -0.826474       -22.4895 
  31   2.0000      -0.813697       -22.1418 
  32   2.0000      -0.776236       -21.1225 
  33   2.0000      -0.750506       -20.4223 
  34   2.0000      -0.730736       -19.8843 
  35   2.0000      -0.700383       -19.0584 
  36   2.0000      -0.696902       -18.9637 
  37   2.0000      -0.686421       -18.6785 
  38   2.0000      -0.682107       -18.5611 
  39   2.0000      -0.658341       -17.9144 
  40   2.0000      -0.651302       -17.7228 
  41   2.0000      -0.631559       -17.1856 
  42   2.0000      -0.609773       -16.5928 
  43   2.0000      -0.594906       -16.1882 
  44   2.0000      -0.593648       -16.1540 
  45   2.0000      -0.585525       -15.9330 
  46   2.0000      -0.581976       -15.8364 
  47   2.0000      -0.566260       -15.4087 
  48   2.0000      -0.556227       -15.1357 
  49   2.0000      -0.545843       -14.8531 
  50   2.0000      -0.535167       -14.5626 
  51   2.0000      -0.529143       -14.3987 
  52   2.0000      -0.527191       -14.3456 
  53   2.0000      -0.510247       -13.8845 
  54   2.0000      -0.499307       -13.5868 
  55   2.0000      -0.488676       -13.2975 
  56   2.0000      -0.479774       -13.0553 
  57   2.0000      -0.473881       -12.8949 
  58   2.0000      -0.470352       -12.7989 
  59   2.0000      -0.457412       -12.4468 
  60   2.0000      -0.449115       -12.2210 
  61   2.0000      -0.443310       -12.0631 
  62   2.0000      -0.437706       -11.9106 
  63   2.0000      -0.431648       -11.7457 
  64   2.0000      -0.427343       -11.6286 
  65   2.0000      -0.425245       -11.5715 
  66   2.0000      -0.419040       -11.4027 
  67   2.0000      -0.402698       -10.9580 
  68   2.0000      -0.395815       -10.7707 
  69   2.0000      -0.390372       -10.6226 
  70   2.0000      -0.347405        -9.4534 
  71   2.0000      -0.242149        -6.5892 
  72   0.0000       0.049101         1.3361 
  73   0.0000       0.067708         1.8424 
  74   0.0000       0.073830         2.0090 
  75   0.0000       0.077613         2.1120 
  76   0.0000       0.090535         2.4636 
  77   0.0000       0.092798         2.5252 
  78   0.0000       0.095804         2.6070 
  79   0.0000       0.100381         2.7315 
  80   0.0000       0.107097         2.9143 
  81   0.0000       0.111446         3.0326 
  82   0.0000       0.114350         3.1116 
  83   0.0000       0.123521         3.3612 
  84   0.0000       0.129848         3.5333 
  85   0.0000       0.132543         3.6067 
  86   0.0000       0.139072         3.7844 
  87   0.0000       0.144393         3.9291 
  88   0.0000       0.148609         4.0439 
  89   0.0000       0.152856         4.1594 
  90   0.0000       0.157648         4.2898 
  91   0.0000       0.162305         4.4166 
  92   0.0000       0.167825         4.5667 
  93   0.0000       0.172870         4.7040 
  94   0.0000       0.175452         4.7743 
  95   0.0000       0.176803         4.8111 
  96   0.0000       0.180644         4.9156 
  97   0.0000       0.185672         5.0524 
  98   0.0000       0.190952         5.1961 
  99   0.0000       0.195033         5.3071 
 100   0.0000       0.201949         5.4953 
 101   0.0000       0.208625         5.6770 
 102   0.0000       0.213218         5.8020 
 103   0.0000       0.219167         5.9638 
 104   0.0000       0.223704         6.0873 
 105   0.0000       0.228106         6.2071 
 106   0.0000       0.229117         6.2346 
 107   0.0000       0.230640         6.2760 
 108   0.0000       0.239043         6.5047 
 109   0.0000       0.241015         6.5584 
 110   0.0000       0.247190         6.7264 
 111   0.0000       0.248656         6.7663 
 112   0.0000       0.253289         6.8924 
 113   0.0000       0.257472         7.0062 
 114   0.0000       0.260269         7.0823 
 115   0.0000       0.266298         7.2463 
 116   0.0000       0.268941         7.3183 
 117   0.0000       0.272336         7.4106 
 118   0.0000       0.280714         7.6386 
 119   0.0000       0.283906         7.7255 
 120   0.0000       0.286265         7.7897 
 121   0.0000       0.290990         7.9182 
 122   0.0000       0.294195         8.0055 
 123   0.0000       0.295859         8.0507 
 124   0.0000       0.297142         8.0856 
 125   0.0000       0.308074         8.3831 
 126   0.0000       0.309167         8.4129 
 127   0.0000       0.311581         8.4786 
 128   0.0000       0.315960         8.5977 
 129   0.0000       0.317451         8.6383 
 130   0.0000       0.329755         8.9731 
 131   0.0000       0.334623         9.1056 
 132   0.0000       0.337158         9.1745 
 133   0.0000       0.343116         9.3367 
 134   0.0000       0.348074         9.4716 
 135   0.0000       0.350466         9.5367 
 136   0.0000       0.355763         9.6808 
 137   0.0000       0.357808         9.7365 
 138   0.0000       0.360680         9.8146 
 139   0.0000       0.367668        10.0047 
 140   0.0000       0.370210        10.0739 
 141   0.0000       0.374783        10.1984 
 142   0.0000       0.377222        10.2647 
 143   0.0000       0.380803        10.3622 
 144   0.0000       0.382806        10.4167 
 145   0.0000       0.388823        10.5804 
 146   0.0000       0.389342        10.5945 
 147   0.0000       0.392112        10.6699 
 148   0.0000       0.396402        10.7866 
 149   0.0000       0.400048        10.8859 
 150   0.0000       0.403579        10.9819 
 151   0.0000       0.403711        10.9855 
 152   0.0000       0.407120        11.0783 
 153   0.0000       0.410966        11.1830 
 154   0.0000       0.411441        11.1959 
 155   0.0000       0.416326        11.3288 
 156   0.0000       0.419176        11.4064 
 157   0.0000       0.420286        11.4366 
 158   0.0000       0.426296        11.6001 
 159   0.0000       0.428394        11.6572 
 160   0.0000       0.432573        11.7709 
 161   0.0000       0.437649        11.9090 
 162   0.0000       0.441550        12.0152 
 163   0.0000       0.444699        12.1009 
 164   0.0000       0.449265        12.2251 
 165   0.0000       0.450334        12.2542 
 166   0.0000       0.454644        12.3715 
 167   0.0000       0.456166        12.4129 
 168   0.0000       0.460094        12.5198 
 169   0.0000       0.461814        12.5666 
 170   0.0000       0.462584        12.5875 
 171   0.0000       0.469828        12.7847 
 172   0.0000       0.471382        12.8269 
 173   0.0000       0.474310        12.9066 
 174   0.0000       0.479372        13.0444 
 175   0.0000       0.481327        13.0976 
 176   0.0000       0.486683        13.2433 
 177   0.0000       0.490132        13.3372 
 178   0.0000       0.493942        13.4408 
 179   0.0000       0.500032        13.6066 
 180   0.0000       0.503362        13.6972 
 181   0.0000       0.505225        13.7479 
 182   0.0000       0.508046        13.8246 
 183   0.0000       0.510638        13.8952 
 184   0.0000       0.513495        13.9729 
 185   0.0000       0.516385        14.0515 
 186   0.0000       0.518028        14.0963 
 187   0.0000       0.523446        14.2437 
 188   0.0000       0.530264        14.4292 
 189   0.0000       0.535242        14.5647 
 190   0.0000       0.537056        14.6140 
 191   0.0000       0.539344        14.6763 
 192   0.0000       0.544438        14.8149 
 193   0.0000       0.547165        14.8891 
 194   0.0000       0.548371        14.9219 
 195   0.0000       0.550945        14.9920 
 196   0.0000       0.556092        15.1320 
 197   0.0000       0.560853        15.2616 
 198   0.0000       0.567247        15.4356 
 199   0.0000       0.574295        15.6274 
 200   0.0000       0.577912        15.7258 
 201   0.0000       0.579266        15.7626 
 202   0.0000       0.581460        15.8223 
 203   0.0000       0.583826        15.8867 
 204   0.0000       0.586417        15.9572 
 205   0.0000       0.591371        16.0920 
 206   0.0000       0.595125        16.1942 
 207   0.0000       0.599861        16.3231 
 208   0.0000       0.603927        16.4337 
 209   0.0000       0.610197        16.6043 
 210   0.0000       0.611513        16.6401 
 211   0.0000       0.616021        16.7628 
 212   0.0000       0.617149        16.7935 
 213   0.0000       0.622046        16.9267 
 214   0.0000       0.625686        17.0258 
 215   0.0000       0.629481        17.1290 
 216   0.0000       0.632103        17.2004 
 217   0.0000       0.637069        17.3355 
 218   0.0000       0.639979        17.4147 
 219   0.0000       0.642039        17.4708 
 220   0.0000       0.648089        17.6354 
 221   0.0000       0.652776        17.7629 
 222   0.0000       0.656883        17.8747 
 223   0.0000       0.658519        17.9192 
 224   0.0000       0.660047        17.9608 
 225   0.0000       0.665659        18.1135 
 226   0.0000       0.672602        18.3024 
 227   0.0000       0.674976        18.3670 
 228   0.0000       0.676630        18.4120 
 229   0.0000       0.681875        18.5548 
 230   0.0000       0.686897        18.6914 
 231   0.0000       0.692807        18.8522 
 232   0.0000       0.698115        18.9967 
 233   0.0000       0.701876        19.0990 
 234   0.0000       0.709159        19.2972 
 235   0.0000       0.712583        19.3904 
 236   0.0000       0.712889        19.3987 
 237   0.0000       0.716140        19.4872 
 238   0.0000       0.718153        19.5419 
 239   0.0000       0.726564        19.7708 
 240   0.0000       0.731146        19.8955 
 241   0.0000       0.736527        20.0419 
 242   0.0000       0.738037        20.0830 
 243   0.0000       0.744466        20.2580 
 244   0.0000       0.749124        20.3847 
 245   0.0000       0.753928        20.5154 
 246   0.0000       0.757912        20.6238 
 247   0.0000       0.758488        20.6395 
 248   0.0000       0.764513        20.8035 
 249   0.0000       0.770206        20.9584 
 250   0.0000       0.771717        20.9995 
 251   0.0000       0.778670        21.1887 
 252   0.0000       0.784584        21.3496 
 253   0.0000       0.785722        21.3806 
 254   0.0000       0.791811        21.5463 
 255   0.0000       0.798889        21.7389 
 256   0.0000       0.806253        21.9393 
 257   0.0000       0.807944        21.9853 
 258   0.0000       0.814694        22.1690 
 259   0.0000       0.820070        22.3152 
 260   0.0000       0.826905        22.5012 
 261   0.0000       0.828409        22.5421 
 262   0.0000       0.835698        22.7405 
 263   0.0000       0.844842        22.9893 
 264   0.0000       0.847813        23.0702 
 265   0.0000       0.853599        23.2276 
 266   0.0000       0.855995        23.2928 
 267   0.0000       0.863134        23.4871 
 268   0.0000       0.864315        23.5192 
 269   0.0000       0.872892        23.7526 
 270   0.0000       0.878408        23.9027 
 271   0.0000       0.886279        24.1169 
 272   0.0000       0.887641        24.1539 
 273   0.0000       0.889902        24.2155 
 274   0.0000       0.905690        24.6451 
 275   0.0000       0.911113        24.7926 
 276   0.0000       0.914119        24.8744 
 277   0.0000       0.920217        25.0404 
 278   0.0000       0.926135        25.2014 
 279   0.0000       0.930980        25.3332 
 280   0.0000       0.937689        25.5158 
 281   0.0000       0.944378        25.6978 
 282   0.0000       0.948702        25.8155 
 283   0.0000       0.954511        25.9736 
 284   0.0000       0.962624        26.1943 
 285   0.0000       0.963845        26.2276 
 286   0.0000       0.978320        26.6214 
 287   0.0000       0.980143        26.6710 
 288   0.0000       0.991653        26.9843 
 289   0.0000       0.998805        27.1789 
 290   0.0000       1.008572        27.4447 
 291   0.0000       1.017223        27.6800 
 292   0.0000       1.024475        27.8774 
 293   0.0000       1.030637        28.0451 
 294   0.0000       1.038810        28.2675 
 295   0.0000       1.057410        28.7736 
 296   0.0000       1.067521        29.0487 
 297   0.0000       1.071162        29.1478 
 298   0.0000       1.079976        29.3876 
 299   0.0000       1.080625        29.4053 
 300   0.0000       1.089918        29.6582 
 301   0.0000       1.093425        29.7536 
 302   0.0000       1.097526        29.8652 
 303   0.0000       1.110878        30.2285 
 304   0.0000       1.113992        30.3133 
 305   0.0000       1.119705        30.4687 
 306   0.0000       1.127518        30.6813 
 307   0.0000       1.131357        30.7858 
 308   0.0000       1.140347        31.0304 
 309   0.0000       1.147056        31.2130 
 310   0.0000       1.150922        31.3182 
 311   0.0000       1.161906        31.6171 
 312   0.0000       1.163624        31.6638 
 313   0.0000       1.166907        31.7531 
 314   0.0000       1.176734        32.0206 
 315   0.0000       1.182022        32.1645 
 316   0.0000       1.188718        32.3467 
 317   0.0000       1.193805        32.4851 
 318   0.0000       1.207247        32.8508 
 319   0.0000       1.212482        32.9933 
 320   0.0000       1.221218        33.2310 
 321   0.0000       1.225661        33.3519 
 322   0.0000       1.229607        33.4593 
 323   0.0000       1.231920        33.5222 
 324   0.0000       1.242140        33.8004 
 325   0.0000       1.247071        33.9345 
 326   0.0000       1.255048        34.1516 
 327   0.0000       1.261472        34.3264 
 328   0.0000       1.277867        34.7725 
 329   0.0000       1.283484        34.9254 
 330   0.0000       1.293131        35.1879 
 331   0.0000       1.296012        35.2663 
 332   0.0000       1.309774        35.6408 
 333   0.0000       1.311091        35.6766 
 334   0.0000       1.315499        35.7965 
 335   0.0000       1.327028        36.1103 
 336   0.0000       1.344351        36.5816 
 337   0.0000       1.350413        36.7466 
 338   0.0000       1.354390        36.8548 
 339   0.0000       1.366497        37.1843 
 340   0.0000       1.375429        37.4273 
 341   0.0000       1.386500        37.7286 
 342   0.0000       1.389945        37.8223 
 343   0.0000       1.396540        38.0018 
 344   0.0000       1.406421        38.2706 
 345   0.0000       1.410712        38.3874 
 346   0.0000       1.417655        38.5764 
 347   0.0000       1.431145        38.9434 
 348   0.0000       1.434178        39.0260 
 349   0.0000       1.447493        39.3883 
 350   0.0000       1.454171        39.5700 
 351   0.0000       1.458883        39.6982 
 352   0.0000       1.467647        39.9367 
 353   0.0000       1.474704        40.1287 
 354   0.0000       1.483863        40.3780 
 355   0.0000       1.506209        40.9860 
 356   0.0000       1.513382        41.1812 
 357   0.0000       1.539379        41.8886 
 358   0.0000       1.540956        41.9315 
 359   0.0000       1.545031        42.0424 
 360   0.0000       1.560090        42.4522 
 361   0.0000       1.570329        42.7308 
 362   0.0000       1.579669        42.9850 
 363   0.0000       1.589903        43.2635 
 364   0.0000       1.610133        43.8140 
 365   0.0000       1.629877        44.3512 
 366   0.0000       1.637110        44.5480 
 367   0.0000       1.644214        44.7413 
 368   0.0000       1.657456        45.1017 
 369   0.0000       1.674288        45.5597 
 370   0.0000       1.686307        45.8867 
 371   0.0000       1.690191        45.9924 
 372   0.0000       1.710039        46.5325 
 373   0.0000       1.716654        46.7125 
 374   0.0000       1.733371        47.1674 
 375   0.0000       1.739485        47.3338 
 376   0.0000       1.751624        47.6641 
 377   0.0000       1.767527        48.0969 
 378   0.0000       1.771288        48.1992 
 379   0.0000       1.787166        48.6313 
 380   0.0000       1.794238        48.8237 
 381   0.0000       1.803728        49.0819 
 382   0.0000       1.815174        49.3934 
 383   0.0000       1.821344        49.5613 
 384   0.0000       1.846753        50.2527 
 385   0.0000       1.848170        50.2913 
 386   0.0000       1.859468        50.5987 
 387   0.0000       1.868381        50.8412 
 388   0.0000       1.872464        50.9523 
 389   0.0000       1.882142        51.2157 
 390   0.0000       1.894728        51.5582 
 391   0.0000       1.905548        51.8526 
 392   0.0000       1.921350        52.2826 
 393   0.0000       1.925147        52.3859 
 394   0.0000       1.926076        52.4112 
 395   0.0000       1.937712        52.7278 
 396   0.0000       1.946073        52.9553 
 397   0.0000       1.971171        53.6383 
 398   0.0000       1.974962        53.7414 
 399   0.0000       1.985004        54.0147 
 400   0.0000       1.987643        54.0865 
 401   0.0000       2.000570        54.4383 
 402   0.0000       2.003863        54.5279 
 403   0.0000       2.014020        54.8043 
 404   0.0000       2.021382        55.0046 
 405   0.0000       2.029078        55.2140 
 406   0.0000       2.038070        55.4587 
 407   0.0000       2.043246        55.5996 
 408   0.0000       2.048247        55.7356 
 409   0.0000       2.053458        55.8774 
 410   0.0000       2.064019        56.1648 
 411   0.0000       2.070472        56.3404 
 412   0.0000       2.076235        56.4972 
 413   0.0000       2.083250        56.6881 
 414   0.0000       2.089198        56.8500 
 415   0.0000       2.099497        57.1302 
 416   0.0000       2.100961        57.1701 
 417   0.0000       2.103061        57.2272 
 418   0.0000       2.115045        57.5533 
 419   0.0000       2.118068        57.6356 
 420   0.0000       2.133650        58.0596 
 421   0.0000       2.137598        58.1670 
 422   0.0000       2.143344        58.3234 
 423   0.0000       2.154787        58.6347 
 424   0.0000       2.165632        58.9298 
 425   0.0000       2.178815        59.2886 
 426   0.0000       2.183458        59.4149 
 427   0.0000       2.186295        59.4921 
 428   0.0000       2.194417        59.7131 
 429   0.0000       2.196048        59.7575 
 430   0.0000       2.203855        59.9699 
 431   0.0000       2.215126        60.2766 
 432   0.0000       2.227502        60.6134 
 433   0.0000       2.237635        60.8892 
 434   0.0000       2.241073        60.9827 
 435   0.0000       2.255791        61.3832 
 436   0.0000       2.259878        61.4944 
 437   0.0000       2.263225        61.5855 
 438   0.0000       2.271717        61.8166 
 439   0.0000       2.282267        62.1036 
 440   0.0000       2.290756        62.3346 
 441   0.0000       2.293187        62.4008 
 442   0.0000       2.309058        62.8327 
 443   0.0000       2.310736        62.8783 
 444   0.0000       2.331420        63.4412 
 445   0.0000       2.332822        63.4793 
 446   0.0000       2.350548        63.9617 
 447   0.0000       2.353272        64.0358 
 448   0.0000       2.363779        64.3217 
 449   0.0000       2.376209        64.6599 
 450   0.0000       2.390971        65.0616 
 451   0.0000       2.392763        65.1104 
 452   0.0000       2.412839        65.6567 
 453   0.0000       2.435257        66.2667 
 454   0.0000       2.441322        66.4318 
 455   0.0000       2.450036        66.6689 
 456   0.0000       2.482197        67.5440 
 457   0.0000       2.495300        67.9006 
 458   0.0000       2.517897        68.5155 
 459   0.0000       2.535751        69.0013 
 460   0.0000       2.538907        69.0872 
 461   0.0000       2.549637        69.3791 
 462   0.0000       2.562485        69.7288 
 463   0.0000       2.571552        69.9755 
 464   0.0000       2.580190        70.2105 
 465   0.0000       2.591846        70.5277 
 466   0.0000       2.600318        70.7583 
 467   0.0000       2.612799        71.0979 
 468   0.0000       2.625627        71.4469 
 469   0.0000       2.632239        71.6269 
 470   0.0000       2.653205        72.1974 
 471   0.0000       2.659938        72.3806 
 472   0.0000       2.668008        72.6002 
 473   0.0000       2.679578        72.9150 
 474   0.0000       2.692183        73.2580 
 475   0.0000       2.699957        73.4696 
 476   0.0000       2.715021        73.8795 
 477   0.0000       2.720452        74.0273 
 478   0.0000       2.724937        74.1493 
 479   0.0000       2.735483        74.4363 
 480   0.0000       2.751125        74.8619 
 481   0.0000       2.778522        75.6074 
 482   0.0000       2.780928        75.6729 
 483   0.0000       2.790593        75.9359 
 484   0.0000       2.794389        76.0392 
 485   0.0000       2.812883        76.5424 
 486   0.0000       2.835402        77.1552 
 487   0.0000       2.836150        77.1756 
 488   0.0000       2.852320        77.6156 
 489   0.0000       2.858694        77.7890 
 490   0.0000       2.889904        78.6383 
 491   0.0000       2.895909        78.8017 
 492   0.0000       2.916008        79.3486 
 493   0.0000       2.933429        79.8227 
 494   0.0000       2.944864        80.1338 
 495   0.0000       2.959966        80.5448 
 496   0.0000       2.963761        80.6480 
 497   0.0000       2.967558        80.7514 
 498   0.0000       2.984929        81.2240 
 499   0.0000       2.991130        81.3928 
 500   0.0000       3.008744        81.8721 
 501   0.0000       3.030838        82.4733 
 502   0.0000       3.036262        82.6209 
 503   0.0000       3.064097        83.3783 
 504   0.0000       3.083831        83.9153 
 505   0.0000       3.104617        84.4809 
 506   0.0000       3.112212        84.6876 
 507   0.0000       3.142453        85.5105 
 508   0.0000       3.143904        85.5500 
 509   0.0000       3.173084        86.3440 
 510   0.0000       3.188044        86.7511 
 511   0.0000       3.200161        87.0808 
 512   0.0000       3.213343        87.4395 
 513   0.0000       3.218220        87.5722 
 514   0.0000       3.235851        88.0520 
 515   0.0000       3.239548        88.1526 
 516   0.0000       3.257976        88.6540 
 517   0.0000       3.280461        89.2659 
 518   0.0000       3.285142        89.3933 
 519   0.0000       3.298730        89.7630 
 520   0.0000       3.307405        89.9991 
 521   0.0000       3.346431        91.0610 
 522   0.0000       3.356176        91.3262 
 523   0.0000       3.378468        91.9328 
 524   0.0000       3.387893        92.1893 
 525   0.0000       3.408573        92.7520 
 526   0.0000       3.426203        93.2317 
 527   0.0000       3.439801        93.6017 
 528   0.0000       3.448157        93.8291 
 529   0.0000       3.455197        94.0207 
 530   0.0000       3.471763        94.4715 
 531   0.0000       3.515151        95.6521 
 532   0.0000       3.542555        96.3978 
 533   0.0000       3.570113        97.1477 
 534   0.0000       3.617353        98.4332 
 535   0.0000       3.633784        98.8803 
 536   0.0000       3.665231        99.7360 
 537   0.0000       3.826331       104.1197 
 538   0.0000       3.885685       105.7349 
 539   0.0000       3.913937       106.5036 

                    ********************************
                    * MULLIKEN POPULATION ANALYSIS *
                    ********************************

-----------------------
MULLIKEN ATOMIC CHARGES
-----------------------
   0 C :    0.339802
   1 C :    0.624984
   2 C :    0.483721
   3 C :    0.436964
   4 H :   -0.071710
   5 H :   -0.080768
   6 S :    1.291924
   7 C :    0.581466
   8 N :    0.546710
   9 N :    0.238934
  10 H :   -0.075636
  11 H :   -0.305464
  12 H :   -1.197326
  13 H :   -0.461064
  14 H :   -0.242631
  15 O :   -0.551267
  16 O :   -0.567446
  17 C :    0.590165
  18 H :    0.049581
  19 H :   -0.261246
  20 C :    0.198094
  21 C :    0.561398
  22 H :   -0.019804
  23 H :   -0.854758
  24 H :   -0.167828
  25 H :   -0.011344
  26 C :    0.327625
  27 H :   -0.151928
  28 H :   -0.216614
  29 C :    0.107598
  30 H :   -0.209856
  31 H :   -0.213551
  32 C :    0.812343
  33 H :   -0.439505
  34 H :   -0.002632
  35 H :    0.056347
  36 H :   -0.447947
  37 H :   -0.127981
  38 H :   -0.066048
  39 F :   -0.503303
Sum of atomic charges:    0.0000000

--------------------------------
MULLIKEN REDUCED ORBITAL CHARGES
--------------------------------
  0 C s       :     2.681666  s :     2.681666
      pz      :     1.024924  p :     2.519875
      px      :     0.903128
      py      :     0.591823
      dz2     :     0.047909  d :     0.458658
      dxz     :     0.330327
      dyz     :     0.007222
      dx2y2   :     0.002693
      dxy     :     0.070507
  1 C s       :     2.294714  s :     2.294714
      pz      :     0.792724  p :     2.255901
      px      :     1.007012
      py      :     0.456164
      dz2     :     0.105789  d :     0.824401
      dxz     :     0.182164
      dyz     :     0.370753
      dx2y2   :     0.075579
      dxy     :     0.090117
  2 C s       :     2.575695  s :     2.575695
      pz      :     0.993425  p :     2.502695
      px      :     0.782059
      py      :     0.727210
      dz2     :     0.051614  d :     0.437890
      dxz     :     0.278451
      dyz     :     0.071040
      dx2y2   :     0.020003
      dxy     :     0.016782
  3 C s       :     2.643759  s :     2.643759
      pz      :     0.881570  p :     2.707737
      px      :     1.048541
      py      :     0.777626
      dz2     :     0.096299  d :     0.211541
      dxz     :     0.048118
      dyz     :    -0.062366
      dx2y2   :     0.041363
      dxy     :     0.088126
  4 H s       :     1.082682  s :     1.082682
      pz      :    -0.036397  p :    -0.010973
      px      :     0.008056
      py      :     0.017368
  5 H s       :     1.069769  s :     1.069769
      pz      :     0.038199  p :     0.010999
      px      :    -0.026238
      py      :    -0.000962
  6 S s       :     4.957561  s :     4.957561
      pz      :     2.791048  p :     8.836238
      px      :     2.912862
      py      :     3.132329
      dz2     :     0.191260  d :     0.914277
      dxz     :     0.182773
      dyz     :     0.127654
      dx2y2   :     0.220165
      dxy     :     0.192425
  7 C s       :     3.046857  s :     3.046857
      pz      :     0.785813  p :     2.312073
      px      :     0.776752
      py      :     0.749508
      dz2     :     0.079470  d :     0.059605
      dxz     :     0.016883
      dyz     :    -0.212222
      dx2y2   :     0.089670
      dxy     :     0.085804
  8 N s       :     2.937370  s :     2.937370
      pz      :     0.898418  p :     3.519584
      px      :     1.614839
      py      :     1.006327
      dz2     :     0.009653  d :    -0.003664
      dxz     :     0.013168
      dyz     :    -0.024326
      dx2y2   :    -0.003445
      dxy     :     0.001287
  9 N s       :     3.226400  s :     3.226400
      pz      :     0.979044  p :     3.563850
      px      :     1.587285
      py      :     0.997522
      dz2     :    -0.016668  d :    -0.029184
      dxz     :     0.003482
      dyz     :    -0.040132
      dx2y2   :     0.006223
      dxy     :     0.017911
 10 H s       :     1.061880  s :     1.061880
      pz      :    -0.033945  p :     0.013756
      px      :     0.045733
      py      :     0.001968
 11 H s       :     1.251928  s :     1.251928
      pz      :    -0.036845  p :     0.053537
      px      :     0.075809
      py      :     0.014572
 12 H s       :     2.183696  s :     2.183696
      pz      :    -0.115709  p :     0.013630
      px      :     0.157910
      py      :    -0.028571
 13 H s       :     1.334509  s :     1.334509
      pz      :    -0.026171  p :     0.126555
      px      :     0.096307
      py      :     0.056420
 14 H s       :     1.213938  s :     1.213938
      pz      :    -0.008186  p :     0.028693
      px      :     0.082202
      py      :    -0.045323
 15 O s       :     3.888790  s :     3.888790
      pz      :     1.630057  p :     4.667457
      px      :     1.434806
      py      :     1.602595
      dz2     :     0.002467  d :    -0.004980
      dxz     :     0.006694
      dyz     :     0.000273
      dx2y2   :    -0.011514
      dxy     :    -0.002900
 16 O s       :     3.916463  s :     3.916463
      pz      :     1.525954  p :     4.631794
      px      :     1.364127
      py      :     1.741713
      dz2     :     0.006993  d :     0.019189
      dxz     :     0.003097
      dyz     :     0.004570
      dx2y2   :     0.003144
      dxy     :     0.001385
 17 C s       :     2.606825  s :     2.606825
      pz      :     0.695211  p :     2.422713
      px      :     0.890649
      py      :     0.836853
      dz2     :     0.122974  d :     0.380297
      dxz     :     0.055376
      dyz     :     0.033044
      dx2y2   :     0.078273
      dxy     :     0.090630
 18 H s       :     0.960970  s :     0.960970
      pz      :    -0.029393  p :    -0.010551
      px      :     0.019800
      py      :    -0.000958
 19 H s       :     1.279055  s :     1.279055
      pz      :    -0.005354  p :    -0.017809
      px      :    -0.041252
      py      :     0.028798
 20 C s       :     2.712522  s :     2.712522
      pz      :     0.903212  p :     2.507695
      px      :     0.926119
      py      :     0.678365
      dz2     :     0.078661  d :     0.581689
      dxz     :     0.256753
      dyz     :     0.062010
      dx2y2   :     0.037684
      dxy     :     0.146580
 21 C s       :     2.189584  s :     2.189584
      pz      :     0.787136  p :     2.560251
      px      :     0.875609
      py      :     0.897505
      dz2     :     0.067934  d :     0.688768
      dxz     :     0.230933
      dyz     :     0.169507
      dx2y2   :     0.023031
      dxy     :     0.197362
 22 H s       :     1.012007  s :     1.012007
      pz      :    -0.008293  p :     0.007797
      px      :     0.000059
      py      :     0.016031
 23 H s       :     1.679073  s :     1.679073
      pz      :     0.025035  p :     0.175685
      px      :    -0.074380
      py      :     0.225030
 24 H s       :     1.214711  s :     1.214711
      pz      :    -0.029093  p :    -0.046883
      px      :    -0.039852
      py      :     0.022062
 25 H s       :     0.998230  s :     0.998230
      pz      :     0.002176  p :     0.013114
      px      :     0.027088
      py      :    -0.016150
 26 C s       :     2.591336  s :     2.591336
      pz      :     0.873932  p :     2.522720
      px      :     0.727688
      py      :     0.921101
      dz2     :     0.193893  d :     0.558319
      dxz     :     0.040720
      dyz     :     0.073920
      dx2y2   :     0.226122
      dxy     :     0.023663
 27 H s       :     1.193104  s :     1.193104
      pz      :     0.045001  p :    -0.041176
      px      :    -0.040908
      py      :    -0.045269
 28 H s       :     1.237806  s :     1.237806
      pz      :    -0.060442  p :    -0.021191
      px      :     0.000548
      py      :     0.038703
 29 C s       :     2.747559  s :     2.747559
      pz      :     0.728095  p :     2.566407
      px      :     0.903457
      py      :     0.934854
      dz2     :     0.252778  d :     0.578436
      dxz     :    -0.000925
      dyz     :    -0.015413
      dx2y2   :     0.243641
      dxy     :     0.098355
 30 H s       :     1.243434  s :     1.243434
      pz      :    -0.048844  p :    -0.033578
      px      :     0.047623
      py      :    -0.032357
 31 H s       :     1.223699  s :     1.223699
      pz      :     0.095021  p :    -0.010148
      px      :    -0.058525
      py      :    -0.046644
 32 C s       :     2.444741  s :     2.444741
      pz      :     0.898726  p :     2.475079
      px      :     0.702456
      py      :     0.873897
      dz2     :     0.030670  d :     0.267836
      dxz     :     0.067432
      dyz     :     0.134214
      dx2y2   :     0.059195
      dxy     :    -0.023674
 33 H s       :     1.437006  s :     1.437006
      pz      :     0.061649  p :     0.002499
      px      :    -0.039788
      py      :    -0.019362
 34 H s       :     1.004283  s :     1.004283
      pz      :    -0.013923  p :    -0.001651
      px      :     0.058001
      py      :    -0.045729
 35 H s       :     0.952103  s :     0.952103
      pz      :    -0.005243  p :    -0.008451
      px      :     0.020692
      py      :    -0.023900
 36 H s       :     1.469252  s :     1.469252
      pz      :    -0.032204  p :    -0.021305
      px      :    -0.024259
      py      :     0.035158
 37 H s       :     1.176645  s :     1.176645
      pz      :    -0.010215  p :    -0.048664
      px      :    -0.054183
      py      :     0.015734
 38 H s       :     1.107816  s :     1.107816
      pz      :    -0.038620  p :    -0.041768
      px      :     0.026075
      py      :    -0.029223
 39 F s       :     4.019126  s :     4.019126
      pz      :     1.567356  p :     5.460272
      px      :     1.938308
      py      :     1.954608
      dz2     :     0.006821  d :     0.023905
      dxz     :    -0.000596
      dyz     :     0.008282
      dx2y2   :     0.002220
      dxy     :     0.007178


                     *******************************
                     * LOEWDIN POPULATION ANALYSIS *
                     *******************************

----------------------
LOEWDIN ATOMIC CHARGES
----------------------
   0 C :   -0.057890
   1 C :   -0.028738
   2 C :   -0.041728
   3 C :   -0.050067
   4 H :    0.038820
   5 H :    0.044073
   6 S :    1.112866
   7 C :   -0.205914
   8 N :    0.220171
   9 N :    0.217128
  10 H :   -0.016068
  11 H :   -0.012756
  12 H :   -0.120746
  13 H :   -0.125651
  14 H :   -0.003909
  15 O :   -0.420330
  16 O :   -0.418887
  17 C :   -0.039438
  18 H :    0.013119
  19 H :    0.012625
  20 C :   -0.043473
  21 C :   -0.040315
  22 H :    0.046810
  23 H :   -0.009109
  24 H :    0.044398
  25 H :    0.035612
  26 C :   -0.041307
  27 H :    0.021762
  28 H :    0.016198
  29 C :   -0.048441
  30 H :    0.030992
  31 H :    0.012039
  32 C :   -0.041155
  33 H :    0.029842
  34 H :    0.008794
  35 H :    0.025844
  36 H :    0.030634
  37 H :    0.026416
  38 H :    0.028877
  39 F :   -0.251100

-------------------------------
LOEWDIN REDUCED ORBITAL CHARGES
-------------------------------
  0 C s       :     2.667309  s :     2.667309
      pz      :     0.922662  p :     2.691431
      px      :     0.888103
      py      :     0.880667
      dz2     :     0.148200  d :     0.699150
      dxz     :     0.199446
      dyz     :     0.127394
      dx2y2   :     0.094732
      dxy     :     0.129378
  1 C s       :     2.658336  s :     2.658336
      pz      :     0.888039  p :     2.728738
      px      :     0.929441
      py      :     0.911259
      dz2     :     0.170519  d :     0.641663
      dxz     :     0.131294
      dyz     :     0.196243
      dx2y2   :     0.059660
      dxy     :     0.083948
  2 C s       :     2.670555  s :     2.670555
      pz      :     0.909939  p :     2.702153
      px      :     0.872133
      py      :     0.920080
      dz2     :     0.147707  d :     0.669020
      dxz     :     0.182232
      dyz     :     0.132159
      dx2y2   :     0.107553
      dxy     :     0.099370
  3 C s       :     2.707413  s :     2.707413
      pz      :     0.955145  p :     2.729001
      px      :     0.949322
      py      :     0.824535
      dz2     :     0.124894  d :     0.613653
      dxz     :     0.100742
      dyz     :     0.069416
      dx2y2   :     0.140992
      dxy     :     0.177608
  4 H s       :     0.706796  s :     0.706796
      pz      :     0.085077  p :     0.254384
      px      :     0.089947
      py      :     0.079360
  5 H s       :     0.698480  s :     0.698480
      pz      :     0.125290  p :     0.257446
      px      :     0.065702
      py      :     0.066455
  6 S s       :     4.663007  s :     4.663007
      pz      :     2.719511  p :     8.390274
      px      :     2.828698
      py      :     2.842065
      dz2     :     0.419875  d :     1.833853
      dxz     :     0.394935
      dyz     :     0.257122
      dx2y2   :     0.400670
      dxy     :     0.361250
  7 C s       :     2.626050  s :     2.626050
      pz      :     0.885482  p :     2.509334
      px      :     0.737464
      py      :     0.886388
      dz2     :     0.240554  d :     1.070530
      dxz     :     0.227888
      dyz     :     0.247188
      dx2y2   :     0.170440
      dxy     :     0.184460
  8 N s       :     2.899849  s :     2.899849
      pz      :     1.061338  p :     3.520335
      px      :     1.381608
      py      :     1.077390
      dz2     :     0.090597  d :     0.359645
      dxz     :     0.082214
      dyz     :     0.143773
      dx2y2   :     0.030451
      dxy     :     0.012610
  9 N s       :     2.920409  s :     2.920409
      pz      :     1.056870  p :     3.524260
      px      :     1.381725
      py      :     1.085665
      dz2     :     0.075611  d :     0.338204
      dxz     :     0.026416
      dyz     :     0.096776
      dx2y2   :     0.069488
      dxy     :     0.069913
 10 H s       :     0.639545  s :     0.639545
      pz      :     0.155930  p :     0.376523
      px      :     0.129404
      py      :     0.091188
 11 H s       :     0.662965  s :     0.662965
      pz      :     0.102590  p :     0.349791
      px      :     0.128587
      py      :     0.118613
 12 H s       :     0.694770  s :     0.694770
      pz      :     0.112125  p :     0.425976
      px      :     0.148030
      py      :     0.165821
 13 H s       :     0.599705  s :     0.599705
      pz      :     0.117199  p :     0.525945
      px      :     0.139406
      py      :     0.269340
 14 H s       :     0.661749  s :     0.661749
      pz      :     0.090749  p :     0.342160
      px      :     0.131941
      py      :     0.119470
 15 O s       :     3.498836  s :     3.498836
      pz      :     1.568981  p :     4.633097
      px      :     1.497096
      py      :     1.567020
      dz2     :     0.044195  d :     0.288398
      dxz     :     0.048207
      dyz     :     0.039951
      dx2y2   :     0.088354
      dxy     :     0.067691
 16 O s       :     3.547099  s :     3.547099
      pz      :     1.512096  p :     4.633620
      px      :     1.495615
      py      :     1.625909
      dz2     :     0.043860  d :     0.238168
      dxz     :     0.065036
      dyz     :     0.019010
      dx2y2   :     0.053192
      dxy     :     0.057070
 17 C s       :     2.682984  s :     2.682984
      pz      :     0.897919  p :     2.687934
      px      :     0.898541
      py      :     0.891474
      dz2     :     0.162042  d :     0.668520
      dxz     :     0.089363
      dyz     :     0.082489
      dx2y2   :     0.143781
      dxy     :     0.190844
 18 H s       :     0.710776  s :     0.710776
      pz      :     0.076157  p :     0.276105
      px      :     0.079989
      py      :     0.119958
 19 H s       :     0.719067  s :     0.719067
      pz      :     0.080983  p :     0.268308
      px      :     0.070722
      py      :     0.116603
 20 C s       :     2.677210  s :     2.677210
      pz      :     0.894268  p :     2.690312
      px      :     0.889683
      py      :     0.906361
      dz2     :     0.156236  d :     0.675951
      dxz     :     0.174737
      dyz     :     0.118493
      dx2y2   :     0.094957
      dxy     :     0.131528
 21 C s       :     2.667290  s :     2.667290
      pz      :     0.869796  p :     2.682505
      px      :     0.902448
      py      :     0.910261
      dz2     :     0.161542  d :     0.690521
      dxz     :     0.165210
      dyz     :     0.131189
      dx2y2   :     0.084683
      dxy     :     0.147898
 22 H s       :     0.713997  s :     0.713997
      pz      :     0.068429  p :     0.239193
      px      :     0.076895
      py      :     0.093869
 23 H s       :     0.691153  s :     0.691153
      pz      :     0.090897  p :     0.317956
      px      :     0.089972
      py      :     0.137087
 24 H s       :     0.711932  s :     0.711932
      pz      :     0.065559  p :     0.243670
      px      :     0.065252
      py      :     0.112860
 25 H s       :     0.693741  s :     0.693741
      pz      :     0.070999  p :     0.270646
      px      :     0.089591
      py      :     0.110056
 26 C s       :     2.676090  s :     2.676090
      pz      :     0.911118  p :     2.684917
      px      :     0.896752
      py      :     0.877048
      dz2     :     0.169953  d :     0.680299
      dxz     :     0.046390
      dyz     :     0.143934
      dx2y2   :     0.192858
      dxy     :     0.127166
 27 H s       :     0.723864  s :     0.723864
      pz      :     0.122870  p :     0.254374
      px      :     0.063281
      py      :     0.068223
 28 H s       :     0.718115  s :     0.718115
      pz      :     0.082126  p :     0.265687
      px      :     0.079097
      py      :     0.104464
 29 C s       :     2.676671  s :     2.676671
      pz      :     0.899057  p :     2.687099
      px      :     0.905995
      py      :     0.882046
      dz2     :     0.174172  d :     0.684672
      dxz     :     0.045531
      dyz     :     0.125823
      dx2y2   :     0.195583
      dxy     :     0.143563
 30 H s       :     0.721255  s :     0.721255
      pz      :     0.067428  p :     0.247753
      px      :     0.118724
      py      :     0.061601
 31 H s       :     0.699102  s :     0.699102
      pz      :     0.125075  p :     0.288859
      px      :     0.085404
      py      :     0.078380
 32 C s       :     2.681551  s :     2.681551
      pz      :     0.888769  p :     2.696426
      px      :     0.907891
      py      :     0.899766
      dz2     :     0.152072  d :     0.663179
      dxz     :     0.110021
      dyz     :     0.187664
      dx2y2   :     0.124079
      dxy     :     0.089343
 33 H s       :     0.720954  s :     0.720954
      pz      :     0.117937  p :     0.249204
      px      :     0.068364
      py      :     0.062903
 34 H s       :     0.706105  s :     0.706105
      pz      :     0.087029  p :     0.285101
      px      :     0.124988
      py      :     0.073085
 35 H s       :     0.705953  s :     0.705953
      pz      :     0.078310  p :     0.268202
      px      :     0.076789
      py      :     0.113103
 36 H s       :     0.722589  s :     0.722589
      pz      :     0.066273  p :     0.246777
      px      :     0.067953
      py      :     0.112551
 37 H s       :     0.722258  s :     0.722258
      pz      :     0.072419  p :     0.251325
      px      :     0.082838
      py      :     0.096068
 38 H s       :     0.720710  s :     0.720710
      pz      :     0.063911  p :     0.250412
      px      :     0.119817
      py      :     0.066685
 39 F s       :     3.660135  s :     3.660135
      pz      :     1.613676  p :     5.300086
      px      :     1.852998
      py      :     1.833412
      dz2     :     0.088390  d :     0.290879
      dxz     :     0.075304
      dyz     :     0.074320
      dx2y2   :     0.014342
      dxy     :     0.038523


                      *****************************
                      * MAYER POPULATION ANALYSIS *
                      *****************************

  NA   - Mulliken gross atomic population
  ZA   - Total nuclear charge
  QA   - Mulliken gross atomic charge
  VA   - Mayer's total valence
  BVA  - Mayer's bonded valence
  FA   - Mayer's free valence

  ATOM       NA         ZA         QA         VA         BVA        FA
  0 C      5.6602     6.0000     0.3398     5.0739     5.0739    -0.0000
  1 C      5.3750     6.0000     0.6250     3.1274     3.1274    -0.0000
  2 C      5.5163     6.0000     0.4837     4.5810     4.5810     0.0000
  3 C      5.5630     6.0000     0.4370     4.1426     4.1426     0.0000
  4 H      1.0717     1.0000    -0.0717     0.9335     0.9335     0.0000
  5 H      1.0808     1.0000    -0.0808     1.0394     1.0394     0.0000
  6 S     14.7081    16.0000     1.2919     5.0091     5.0091     0.0000
  7 C      5.4185     6.0000     0.5815     2.8703     2.8703     0.0000
  8 N      6.4533     7.0000     0.5467     3.9301     3.9301     0.0000
  9 N      6.7611     7.0000     0.2389     3.7881     3.7881    -0.0000
 10 H      1.0756     1.0000    -0.0756     0.8556     0.8556    -0.0000
 11 H      1.3055     1.0000    -0.3055     0.9197     0.9197    -0.0000
 12 H      2.1973     1.0000    -1.1973    -0.1711    -0.1711     0.0000
 13 H      1.4611     1.0000    -0.4611     0.9554     0.9554    -0.0000
 14 H      1.2426     1.0000    -0.2426     0.8444     0.8444    -0.0000
 15 O      8.5513     8.0000    -0.5513     1.6841     1.6841     0.0000
 16 O      8.5674     8.0000    -0.5674     1.7805     1.7805     0.0000
 17 C      5.4098     6.0000     0.5902     4.4385     4.4385     0.0000
 18 H      0.9504     1.0000     0.0496     0.9951     0.9951     0.0000
 19 H      1.2612     1.0000    -0.2612     0.9294     0.9294    -0.0000
 20 C      5.8019     6.0000     0.1981     5.0042     5.0042    -0.0000
 21 C      5.4386     6.0000     0.5614     4.3893     4.3893    -0.0000
 22 H      1.0198     1.0000    -0.0198     0.9892     0.9892     0.0000
 23 H      1.8548     1.0000    -0.8548     0.9172     0.9172     0.0000
 24 H      1.1678     1.0000    -0.1678     0.8791     0.8791     0.0000
 25 H      1.0113     1.0000    -0.0113     1.0295     1.0295     0.0000
 26 C      5.6724     6.0000     0.3276     4.8845     4.8845    -0.0000
 27 H      1.1519     1.0000    -0.1519     0.8952     0.8952    -0.0000
 28 H      1.2166     1.0000    -0.2166     0.8701     0.8701     0.0000
 29 C      5.8924     6.0000     0.1076     5.0764     5.0764    -0.0000
 30 H      1.2099     1.0000    -0.2099     0.8836     0.8836    -0.0000
 31 H      1.2136     1.0000    -0.2136     1.0454     1.0454    -0.0000
 32 C      5.1877     6.0000     0.8123     3.8341     3.8341     0.0000
 33 H      1.4395     1.0000    -0.4395     0.9547     0.9547    -0.0000
 34 H      1.0026     1.0000    -0.0026     1.0337     1.0337     0.0000
 35 H      0.9437     1.0000     0.0563     0.9899     0.9899    -0.0000
 36 H      1.4479     1.0000    -0.4479     0.8978     0.8978    -0.0000
 37 H      1.1280     1.0000    -0.1280     0.8836     0.8836    -0.0000
 38 H      1.0660     1.0000    -0.0660     0.8993     0.8993    -0.0000
 39 F      9.5033     9.0000    -0.5033     1.1455     1.1455     0.0000

  Mayer bond orders larger than 0.100000
B(  0-C ,  1-C ) :   1.0702 B(  0-C , 12-H ) :   0.9860 B(  0-C , 17-C ) :   1.0618 
B(  0-C , 18-H ) :   0.6483 B(  0-C , 19-H ) :   0.8087 B(  0-C , 26-C ) :   0.1929 
B(  0-C , 27-H ) :   0.2203 B(  0-C , 28-H ) :   0.1248 B(  0-C , 30-H ) :  -0.1448 
B(  1-C ,  7-C ) :   1.7424 B(  1-C ,  8-N ) :   0.2923 B(  1-C ,  9-N ) :   0.3417 
B(  1-C , 12-H ) :  -1.0189 B(  1-C , 17-C ) :   0.1416 B(  1-C , 18-H ) :   0.4982 
B(  1-C , 19-H ) :   0.1755 B(  2-C ,  3-C ) :   1.1772 B(  2-C ,  5-H ) :   0.2968 
B(  2-C , 20-C ) :   0.1718 B(  2-C , 21-C ) :   1.1262 B(  2-C , 22-H ) :   0.1153 
B(  2-C , 24-H ) :   0.7239 B(  2-C , 25-H ) :   0.8196 B(  3-C ,  4-H ) :   0.8886 
B(  3-C ,  5-H ) :   0.6434 B(  3-C ,  6-S ) :   0.9752 B(  3-C , 21-C ) :   0.2033 
B(  3-C , 25-H ) :   0.1103 B(  6-S , 15-O ) :   1.4423 B(  6-S , 16-O ) :   1.6030 
B(  6-S , 39-F ) :   0.7088 B(  7-C ,  8-N ) :   0.9139 B(  7-C ,  9-N ) :   0.9219 
B(  7-C , 11-H ) :  -0.1416 B(  7-C , 12-H ) :  -0.1355 B(  7-C , 13-H ) :  -0.2805 
B(  7-C , 14-H ) :  -0.1093 B(  8-N ,  9-N ) :   0.1001 B(  8-N , 13-H ) :   1.2400 
B(  8-N , 14-H ) :   1.2631 B(  9-N , 10-H ) :   1.0806 B(  9-N , 11-H ) :   1.2801 
B( 10-H , 11-H ) :  -0.2046 B( 12-H , 14-H ) :  -0.1047 B( 12-H , 18-H ) :  -0.2456 
B( 12-H , 39-F ) :   0.3381 B( 13-H , 14-H ) :  -0.2469 B( 13-H , 15-O ) :   0.1777 
B( 17-C , 18-H ) :   0.1352 B( 17-C , 26-C ) :   1.2603 B( 17-C , 27-H ) :   0.7283 
B( 17-C , 28-H ) :   0.6278 B( 17-C , 30-H ) :   0.1134 B( 17-C , 31-H ) :   0.1801 
B( 17-C , 32-C ) :   0.1005 B( 18-H , 19-H ) :  -0.1201 B( 20-C , 21-C ) :   1.2137 
B( 20-C , 22-H ) :   0.1149 B( 20-C , 23-H ) :   0.1701 B( 20-C , 29-C ) :   0.1981 
B( 20-C , 32-C ) :   1.1063 B( 20-C , 35-H ) :   0.8248 B( 20-C , 36-H ) :   0.8670 
B( 20-C , 38-H ) :   0.2787 B( 21-C , 22-H ) :   0.6465 B( 21-C , 23-H ) :   0.3533 
B( 21-C , 24-H ) :   0.2089 B( 21-C , 25-H ) :   0.1061 B( 21-C , 35-H ) :   0.1139 
B( 21-C , 36-H ) :   0.2146 B( 22-H , 23-H ) :   0.2424 B( 23-H , 34-H ) :   0.1553 
B( 26-C , 27-H ) :   0.1273 B( 26-C , 28-H ) :   0.2799 B( 26-C , 29-C ) :   1.2047 
B( 26-C , 30-H ) :   0.7660 B( 26-C , 31-H ) :   0.8130 B( 26-C , 33-H ) :   0.1438 
B( 26-C , 34-H ) :   0.1183 B( 27-H , 28-H ) :  -0.1621 B( 29-C , 30-H ) :   0.1532 
B( 29-C , 31-H ) :   0.1361 B( 29-C , 32-C ) :   1.1021 B( 29-C , 33-H ) :   0.9389 
B( 29-C , 34-H ) :   0.8275 B( 29-C , 37-H ) :   0.3532 B( 29-C , 38-H ) :   0.1356 
B( 31-H , 35-H ) :   0.1047 B( 32-C , 37-H ) :   0.5868 B( 32-C , 38-H ) :   0.6206 
B( 37-H , 38-H ) :  -0.1413 

-------
TIMINGS
-------

Total SCF time: 0 days 0 hours 5 min 49 sec 

Total time                  ....     349.675 sec
Sum of individual times     ....     348.400 sec  ( 99.6%)

Fock matrix formation       ....     340.101 sec  ( 97.3%)
  Split-RI-J                ....      17.312 sec  (  5.1% of F)
  Chain of spheres X        ....     291.546 sec  ( 85.7% of F)
  XC integration            ....      30.962 sec  (  9.1% of F)
    Basis function eval.    ....       8.236 sec  ( 26.6% of XC)
    Density eval.           ....      10.988 sec  ( 35.5% of XC)
    XC-Functional eval.     ....       1.070 sec  (  3.5% of XC)
    XC-Potential eval.      ....       9.624 sec  ( 31.1% of XC)
Diagonalization             ....       0.703 sec  (  0.2%)
Density matrix formation    ....       0.052 sec  (  0.0%)
Population analysis         ....       0.087 sec  (  0.0%)
Initial guess               ....       1.500 sec  (  0.4%)
Orbital Transformation      ....       0.000 sec  (  0.0%)
Orbital Orthonormalization  ....       0.000 sec  (  0.0%)
DIIS solution               ....       0.390 sec  (  0.1%)
SOSCF solution              ....       0.569 sec  (  0.2%)
Grid generation             ....       4.997 sec  (  1.4%)

Maximum memory used throughout the entire SCF-calculation: 107.0 MB

-------------------------   --------------------
FINAL SINGLE POINT ENERGY     -1188.116616556286
-------------------------   --------------------


                            ***************************************
                            *     ORCA property calculations      *
                            ***************************************

                                    ---------------------
                                    Active property flags
                                    ---------------------
   (+) Dipole Moment


------------------------------------------------------------------------------
                       ORCA ELECTRIC PROPERTIES CALCULATION
------------------------------------------------------------------------------

Dipole Moment Calculation                       ... on
Quadrupole Moment Calculation                   ... off
Polarizability Calculation                      ... off
GBWName                                         ... 28Oct_SVPD_LC_BLYP_D7_wb97.gbw
Electron density file                           ... 28Oct_SVPD_LC_BLYP_D7_wb97.scfp
The origin for moment calculation is the CENTER OF MASS  = ( 8.550773, -1.056590 -8.835577)

-------------
DIPOLE MOMENT
-------------
                                X             Y             Z
Electronic contribution:    -18.39548       3.96805     -17.97306
Nuclear contribution   :     18.74089      -4.92611      17.99644
                        -----------------------------------------
Total Dipole Moment    :      0.34541      -0.95806       0.02338
                        -----------------------------------------
Magnitude (a.u.)       :      1.01869
Magnitude (Debye)      :      2.58930



--------------------
Rotational spectrum 
--------------------
 
Rotational constants in cm-1:     0.014210     0.012324     0.007480 
Rotational constants in MHz :   425.991442   369.455467   224.259162 

 Dipole components along the rotational axes: 
x,y,z [a.u.] :    -0.153055     0.994178    -0.160970 
x,y,z [Debye]:    -0.389035     2.526999    -0.409153 

 

Timings for individual modules:

Sum of individual times         ...      350.945 sec (=   5.849 min)
GTO integral calculation        ...        0.924 sec (=   0.015 min)   0.3 %
SCF iterations                  ...      350.021 sec (=   5.834 min)  99.7 %
                             ****ORCA TERMINATED NORMALLY****
TOTAL RUN TIME: 0 days 0 hours 5 minutes 51 seconds 551 msec
