
                                        *****************
                                        * O   R   C   A *
                                        *****************

                                            #,                                       
                                            ###                                      
                                            ####                                     
                                            #####                                    
                                            ######                                   
                                           ########,                                 
                                     ,,################,,,,,                         
                               ,,#################################,,                 
                          ,,##########################################,,             
                       ,#########################################, ''#####,          
                    ,#############################################,,   '####,        
                  ,##################################################,,,,####,       
                ,###########''''           ''''###############################       
              ,#####''   ,,,,##########,,,,          '''####'''          '####       
            ,##' ,,,,###########################,,,                        '##       
           ' ,,###''''                  '''############,,,                           
         ,,##''                                '''############,,,,        ,,,,,,###''
      ,#''                                            '''#######################'''  
     '                                                          ''''####''''         
             ,#######,   #######,   ,#######,      ##                                
            ,#'     '#,  ##    ##  ,#'     '#,    #''#        ######   ,####,        
            ##       ##  ##   ,#'  ##            #'  '#       #        #'  '#        
            ##       ##  #######   ##           ,######,      #####,   #    #        
            '#,     ,#'  ##    ##  '#,     ,#' ,#      #,         ##   #,  ,#        
             '#######'   ##     ##  '#######'  #'      '#     #####' # '####'        



                  #######################################################
                  #                        -***-                        #
                  #          Department of theory and spectroscopy      #
                  #    Directorship and core code : Frank Neese         #
                  #        Max Planck Institute fuer Kohlenforschung    #
                  #                Kaiser Wilhelm Platz 1               #
                  #                 D-45470 Muelheim/Ruhr               #
                  #                      Germany                        #
                  #                                                     #
                  #                  All rights reserved                #
                  #                        -***-                        #
                  #######################################################


                         Program Version 5.0.0 -  RELEASE  -
                                (SVN: $Rev: 19529$)
                ($Date: 2021-06-28 11:36:33 +0200 (Mo, 28 Jun 2021) $)


 With contributions from (in alphabetic order):
   Daniel Aravena         : Magnetic Suceptibility
   Michael Atanasov       : Ab Initio Ligand Field Theory (pilot matlab implementation)
   Alexander A. Auer      : GIAO ZORA, VPT2 properties, NMR spectrum
   Ute Becker             : Parallelization
   Giovanni Bistoni       : ED, misc. LED, open-shell LED, HFLD
   Martin Brehm           : Molecular dynamics
   Dmytro Bykov           : SCF Hessian
   Vijay G. Chilkuri      : MRCI spin determinant printing, contributions to CSF-ICE
   Dipayan Datta          : RHF DLPNO-CCSD density
   Achintya Kumar Dutta   : EOM-CC, STEOM-CC
   Dmitry Ganyushin       : Spin-Orbit,Spin-Spin,Magnetic field MRCI
   Miquel Garcia          : C-PCM Hessian, Gaussian charge scheme
   Yang Guo               : DLPNO-NEVPT2, F12-NEVPT2, CIM, IAO-localization
   Andreas Hansen         : Spin unrestricted coupled pair/coupled cluster methods
   Benjamin Helmich-Paris : MC-RPA, TRAH-SCF, COSX integrals
   Lee Huntington         : MR-EOM, pCC
   Robert Izsak           : Overlap fitted RIJCOSX, COSX-SCS-MP3, EOM
   Marcus Kettner         : VPT2
   Christian Kollmar      : KDIIS, OOCD, Brueckner-CCSD(T), CCSD density, CASPT2, CASPT2-K
   Simone Kossmann        : Meta GGA functionals, TD-DFT gradient, OOMP2, MP2 Hessian
   Martin Krupicka        : Initial AUTO-CI
   Lucas Lang             : DCDCAS
   Marvin Lechner         : AUTO-CI (C++ implementation), FIC-MRCC
   Dagmar Lenk            : GEPOL surface, SMD
   Dimitrios Liakos       : Extrapolation schemes; Compound Job, initial MDCI parallelization
   Dimitrios Manganas     : Further ROCIS development; embedding schemes
   Dimitrios Pantazis     : SARC Basis sets
   Anastasios Papadopoulos: AUTO-CI, single reference methods and gradients
   Taras Petrenko         : DFT Hessian,TD-DFT gradient, ASA, ECA, R-Raman, ABS, FL, XAS/XES, NRVS
   Peter Pinski           : DLPNO-MP2, DLPNO-MP2 Gradient
   Christoph Reimann      : Effective Core Potentials
   Marius Retegan         : Local ZFS, SOC
   Christoph Riplinger    : Optimizer, TS searches, QM/MM, DLPNO-CCSD(T), (RO)-DLPNO pert. Triples
   Tobias Risthaus        : Range-separated hybrids, TD-DFT gradient, RPA, STAB
   Michael Roemelt        : Original ROCIS implementation
   Masaaki Saitow         : Open-shell DLPNO-CCSD energy and density
   Barbara Sandhoefer     : DKH picture change effects
   Avijit Sen             : IP-ROCIS
   Kantharuban Sivalingam : CASSCF convergence, NEVPT2, FIC-MRCI
   Bernardo de Souza      : ESD, SOC TD-DFT
   Georgi Stoychev        : AutoAux, RI-MP2 NMR
   Willem Van den Heuvel  : Paramagnetic NMR
   Boris Wezisla          : Elementary symmetry handling
   Frank Wennmohs         : Technical directorship


 We gratefully acknowledge several colleagues who have allowed us to
 interface, adapt or use parts of their codes:
   Stefan Grimme, W. Hujo, H. Kruse, P. Pracht,  : VdW corrections, initial TS optimization,
                  C. Bannwarth, S. Ehlert          DFT functionals, gCP, sTDA/sTD-DF
   Ed Valeev, F. Pavosevic, A. Kumar             : LibInt (2-el integral package), F12 methods
   Garnet Chan, S. Sharma, J. Yang, R. Olivares  : DMRG
   Ulf Ekstrom                                   : XCFun DFT Library
   Mihaly Kallay                                 : mrcc  (arbitrary order and MRCC methods)
   Jiri Pittner, Ondrej Demel                    : Mk-CCSD
   Frank Weinhold                                : gennbo (NPA and NBO analysis)
   Christopher J. Cramer and Donald G. Truhlar   : smd solvation model
   Lars Goerigk                                  : TD-DFT with DH, B97 family of functionals
   V. Asgeirsson, H. Jonsson                     : NEB implementation
   FAccTs GmbH                                   : IRC, NEB, NEB-TS, DLPNO-Multilevel, CI-OPT
                                                   MM, QMMM, 2- and 3-layer-ONIOM, Crystal-QMMM,
                                                   LR-CPCM, SF, NACMEs, symmetry and pop. for TD-DFT,
                                                   nearIR, NL-DFT gradient (VV10), updates on ESD,
                                                   ML-optimized integration grids
   S Lehtola, MJT Oliveira, MAL Marques          : LibXC Library
   Liviu Ungur et al                             : ANISO software


 Your calculation uses the libint2 library for the computation of 2-el integrals
 For citations please refer to: http://libint.valeyev.net

 Your ORCA version has been built with support for libXC version: 5.1.0
 For citations please refer to: https://tddft.org/programs/libxc/

 This ORCA versions uses:
   CBLAS   interface :  Fast vector & matrix operations
   LAPACKE interface :  Fast linear algebra routines
   SCALAPACK package :  Parallel linear algebra routines
   Shared memory     :  Shared parallel matrices
   BLAS/LAPACK       :  OpenBLAS 0.3.15  USE64BITINT DYNAMIC_ARCH NO_AFFINITY Haswell SINGLE_THREADED
        Core in use  :  Haswell
   Copyright (c) 2011-2014, The OpenBLAS Project




***************************************
The coordinates will be read from file: D1.xyz
***************************************


Your calculation utilizes the atom-pairwise dispersion correction
with the Becke-Johnson damping scheme (D3BJ)
Cite in your paper:
S.Grimme, S.Ehrlich, L.Goerigk, J Comput Chem, (2011), 32, 1456–1465 
S.Grimme, J.Antony, S.Ehrlich and H.Krieg, J.Chem.Phys., 132, (2010), 154104 
   

================================================================================

----- Orbital basis set information -----
Your calculation utilizes the basis: def2-TZVP
   F. Weigend and R. Ahlrichs, Phys. Chem. Chem. Phys. 7, 3297 (2005).

----- AuxJ basis set information -----
Your calculation utilizes the auxiliary basis: def2/J
   F. Weigend, Phys. Chem. Chem. Phys. 8, 1057 (2006).

================================================================================
                                        WARNINGS
                       Please study these warnings very carefully!
================================================================================



WARNING: Found flag for RIJCOSX approximation but no HF exchange needed!
  ===> : RIJCOSX  will be disabled and Split-RI-J is turned on

INFO   : the flag for use of the SHARK integral package has been found!

================================================================================
                                       INPUT FILE
================================================================================
NAME = TPSS_D1_wb97.com
|  1> !TPSS D3BJ RIJCOSX def2-TZVP def2/J TightSCF xyzfile                                                                                         
|  2> 
|  3> *xyzfile 0 1 D1.xyz
|  4> 
|  5> %MaxCore 64000
|  6> 
|  7> %pal nprocs 18                                                                                                                                                  
|  8> end  
|  9> 
| 10> %scf
| 11>   MaxIter 150
| 12> end
| 13> 
| 14> 
| 15>                          ****END OF INPUT****
================================================================================

                       ****************************
                       * Single Point Calculation *
                       ****************************

---------------------------------
CARTESIAN COORDINATES (ANGSTROEM)
---------------------------------
  C      1.364014    0.468742   -2.813764
  C      0.428844    0.321402   -1.655312
  C      0.968045    1.630639   -3.715749
  C     -0.508347    1.722679   -4.124300
  S     -1.328608    0.146737   -4.435781
  H     -0.591511    2.294958   -5.047219
  H     -1.114114    2.235610   -3.374362
  H      0.748578   -0.400542   -1.001345
  H     -0.461053    0.023332   -2.077731
  H      0.310258    1.201375   -1.134948
  F     -2.571347    0.475733   -5.068341
  O     -1.514963   -0.400512   -3.063420
  H      1.294847   -0.468742   -3.364684
  H      2.376216    0.597400   -2.431495
  H      1.578688    1.520652   -4.612733
  H      1.266653    2.575988   -3.250448
  O     -0.377928   -0.627558   -5.201141

----------------------------
CARTESIAN COORDINATES (A.U.)
----------------------------
  NO LB      ZA    FRAG     MASS         X           Y           Z
   0 C     6.0000    0    12.011    2.577613    0.885794   -5.317243
   1 C     6.0000    0    12.011    0.810397    0.607362   -3.128086
   2 C     6.0000    0    12.011    1.829340    3.081460   -7.021748
   3 C     6.0000    0    12.011   -0.960637    3.255391   -7.793797
   4 S    16.0000    0    32.060   -2.510706    0.277293   -8.382411
   5 H     1.0000    0     1.008   -1.117793    4.336842   -9.537861
   6 H     1.0000    0     1.008   -2.105370    4.224692   -6.376620
   7 H     1.0000    0     1.008    1.414607   -0.756914   -1.892268
   8 H     1.0000    0     1.008   -0.871263    0.044091   -3.926343
   9 H     1.0000    0     1.008    0.586304    2.270269   -2.144740
  10 F     9.0000    0    18.998   -4.859141    0.899004   -9.577777
  11 O     8.0000    0    15.999   -2.862865   -0.756858   -5.789025
  12 H     1.0000    0     1.008    2.446907   -0.885794   -6.358332
  13 H     1.0000    0     1.008    4.490397    1.128923   -4.594859
  14 H     1.0000    0     1.008    2.983289    2.873617   -8.716802
  15 H     1.0000    0     1.008    2.393627    4.867912   -6.142456
  16 O     8.0000    0    15.999   -0.714181   -1.185912   -9.828732

--------------------------------
INTERNAL COORDINATES (ANGSTROEM)
--------------------------------
 C      0   0   0     0.000000000000     0.00000000     0.00000000
 C      1   0   0     1.496082644153     0.00000000     0.00000000
 C      1   2   0     1.523276986165   111.78574835     0.00000000
 C      3   1   2     1.534639907758   116.96610613   312.35687673
 S      4   3   1     1.803729576901   115.53546181   322.90164793
 H      4   3   1     1.089127713397   109.30310525   203.31009572
 H      4   3   1     1.091997757689   112.27304617    84.70998257
 H      2   1   3     1.025234739163   111.61251220   185.58989743
 H      2   1   3     1.029174108930   104.54812007    67.76448551
 H      2   1   3     1.029170891533   112.29201844   307.54130561
 F      5   4   3     1.432748531584   105.66805202   192.14346639
 O      5   4   3     1.489155407372   102.64126396    74.09187164
 H      1   2   3     1.089574803285   105.49200082   240.58245163
 H      1   2   3     1.089603298998   108.70200745   122.93184163
 H      3   1   2     1.090670582737   105.33866757   191.12355848
 H      3   1   2     1.095151687265   109.63126824    76.89996065
 O      5   4   3     1.445372423700   105.09276026   316.90631317

---------------------------
INTERNAL COORDINATES (A.U.)
---------------------------
 C      0   0   0     0.000000000000     0.00000000     0.00000000
 C      1   0   0     2.827186471163     0.00000000     0.00000000
 C      1   2   0     2.878576329958   111.78574835     0.00000000
 C      3   1   2     2.900049139849   116.96610613   312.35687673
 S      4   3   1     3.408554919996   115.53546181   322.90164793
 H      4   3   1     2.058153103184   109.30310525   203.31009572
 H      4   3   1     2.063576700888   112.27304617    84.70998257
 H      2   1   3     1.937412880000   111.61251220   185.58989743
 H      2   1   3     1.944857210000   104.54812007    67.76448551
 H      2   1   3     1.944851130000   112.29201844   307.54130561
 F      5   4   3     2.707502343471   105.66805202   192.14346639
 O      5   4   3     2.814095890782   102.64126396    74.09187164
 H      1   2   3     2.058997980629   105.49200082   240.58245163
 H      1   2   3     2.059051829723   108.70200745   122.93184163
 H      3   1   2     2.061068703697   105.33866757   191.12355848
 H      3   1   2     2.069536764032   109.63126824    76.89996065
 O      5   4   3     2.731358042316   105.09276026   316.90631317

---------------------
BASIS SET INFORMATION
---------------------
There are 5 groups of distinct atoms

 Group   1 Type C   : 11s6p2d1f contracted to 5s3p2d1f pattern {62111/411/11/1}
 Group   2 Type S   : 14s9p3d1f contracted to 5s5p2d1f pattern {73211/51111/21/1}
 Group   3 Type H   : 5s1p contracted to 3s1p pattern {311/1}
 Group   4 Type F   : 11s6p2d1f contracted to 5s3p2d1f pattern {62111/411/11/1}
 Group   5 Type O   : 11s6p2d1f contracted to 5s3p2d1f pattern {62111/411/11/1}

Atom   0C    basis set group =>   1
Atom   1C    basis set group =>   1
Atom   2C    basis set group =>   1
Atom   3C    basis set group =>   1
Atom   4S    basis set group =>   2
Atom   5H    basis set group =>   3
Atom   6H    basis set group =>   3
Atom   7H    basis set group =>   3
Atom   8H    basis set group =>   3
Atom   9H    basis set group =>   3
Atom  10F    basis set group =>   4
Atom  11O    basis set group =>   5
Atom  12H    basis set group =>   3
Atom  13H    basis set group =>   3
Atom  14H    basis set group =>   3
Atom  15H    basis set group =>   3
Atom  16O    basis set group =>   5
---------------------------------
AUXILIARY/J BASIS SET INFORMATION
---------------------------------
There are 5 groups of distinct atoms

 Group   1 Type C   : 12s5p4d2f1g contracted to 6s4p3d1f1g pattern {711111/2111/211/2/1}
 Group   2 Type S   : 14s5p5d2f1g contracted to 8s4p3d1f1g pattern {71111111/2111/311/2/1}
 Group   3 Type H   : 5s2p1d contracted to 3s1p1d pattern {311/2/1}
 Group   4 Type F   : 12s5p4d2f1g contracted to 6s4p3d1f1g pattern {711111/2111/211/2/1}
 Group   5 Type O   : 12s5p4d2f1g contracted to 6s4p3d1f1g pattern {711111/2111/211/2/1}

Atom   0C    basis set group =>   1
Atom   1C    basis set group =>   1
Atom   2C    basis set group =>   1
Atom   3C    basis set group =>   1
Atom   4S    basis set group =>   2
Atom   5H    basis set group =>   3
Atom   6H    basis set group =>   3
Atom   7H    basis set group =>   3
Atom   8H    basis set group =>   3
Atom   9H    basis set group =>   3
Atom  10F    basis set group =>   4
Atom  11O    basis set group =>   5
Atom  12H    basis set group =>   3
Atom  13H    basis set group =>   3
Atom  14H    basis set group =>   3
Atom  15H    basis set group =>   3
Atom  16O    basis set group =>   5


           ************************************************************
           *        Program running with 18 parallel MPI-processes    *
           *              working on a common directory               *
           ************************************************************
------------------------------------------------------------------------------
                           ORCA GTO INTEGRAL CALCULATION
                           -- RI-GTO INTEGRALS CHOSEN --
------------------------------------------------------------------------------
------------------------------------------------------------------------------
                   ___                                                        
                  /   \      - P O W E R E D   B Y -                         
                 /     \                                                     
                 |  |  |   _    _      __       _____    __    __             
                 |  |  |  | |  | |    /  \     |  _  \  |  |  /  |          
                  \  \/   | |  | |   /    \    | | | |  |  | /  /          
                 / \  \   | |__| |  /  /\  \   | |_| |  |  |/  /          
                |  |  |   |  __  | /  /__\  \  |    /   |      \           
                |  |  |   | |  | | |   __   |  |    \   |  |\   \          
                \     /   | |  | | |  |  |  |  | |\  \  |  | \   \       
                 \___/    |_|  |_| |__|  |__|  |_| \__\ |__|  \__/        
                                                                              
                      - O R C A' S   B I G   F R I E N D -                    
                                      &                                       
                       - I N T E G R A L  F E E D E R -                       
                                                                              
 v1 FN, 2020, v2 2021                                                         
------------------------------------------------------------------------------


Reading SHARK input file TPSS_D1_wb97.SHARKINP.tmp ... ok
----------------------
SHARK INTEGRAL PACKAGE
----------------------

Number of atoms                             ...     17
Number of basis functions                   ...    308
Number of shells                            ...    126
Maximum angular momentum                    ...      3
Integral batch strategy                     ... SHARK/LIBINT Hybrid
RI-J (if used) integral strategy            ... SPLIT-RIJ (Revised 2003 algorithm where possible)
Printlevel                                  ...      1
Contraction scheme used                     ... SEGMENTED contraction
Coulomb Range Separation                    ... NOT USED
Exchange Range Separation                   ... NOT USED
Finite Nucleus Model                        ... NOT USED
Auxiliary Coulomb fitting basis             ... AVAILABLE
   # of basis functions in Aux-J            ...    493
   # of shells in Aux-J                     ...    167
   Maximum angular momentum in Aux-J        ...      4
Auxiliary J/K fitting basis                 ... NOT available
Auxiliary Correlation fitting basis         ... NOT available
Auxiliary 'external' fitting basis          ... NOT available
Integral threshold                          ...     2.500000e-11
Primitive cut-off                           ...     2.500000e-12
Primitive pair pre-selection threshold      ...     2.500000e-12

Calculating pre-screening integrals         ... done (  0.1 sec) Dimension = 126
Organizing shell pair data                  ... done (  0.1 sec)
Shell pair information
Total number of shell pairs                 ...      8001
Shell pairs after pre-screening             ...      7339
Total number of primitive shell pairs       ...     24748
Primitive shell pairs kept                  ...     16831
          la=0 lb=0:   2009 shell pairs
          la=1 lb=0:   2170 shell pairs
          la=1 lb=1:    603 shell pairs
          la=2 lb=0:    977 shell pairs
          la=2 lb=1:    534 shell pairs
          la=2 lb=2:    130 shell pairs
          la=3 lb=0:    492 shell pairs
          la=3 lb=1:    268 shell pairs
          la=3 lb=2:    122 shell pairs
          la=3 lb=3:     34 shell pairs

Calculating one electron integrals          ... done (  0.0 sec)
Calculating RI/J V-Matrix + Cholesky decomp.... done (  0.0 sec)
Calculating Nuclear repulsion               ... done (  0.0 sec) ENN=    554.013078765983 Eh

SHARK setup successfully completed in   0.3 seconds

Maximum memory used throughout the entire GTOINT-calculation: 15.4 MB


           ************************************************************
           *        Program running with 18 parallel MPI-processes    *
           *              working on a common directory               *
           ************************************************************
-------------------------------------------------------------------------------
                                 ORCA SCF
-------------------------------------------------------------------------------

------------
SCF SETTINGS
------------
Hamiltonian:
 Density Functional     Method          .... DFT(GTOs)
 Exchange Functional    Exchange        .... TPSS
 Correlation Functional Correlation     .... TPSS
 LDA part of GGA corr.  LDAOpt          .... PW91-LDA
 Gradients option       PostSCFGGA      .... off
   Density functional embedding theory  .... OFF
   NL short-range parameter             ....  5.000000
 RI-approximation to the Coulomb term is turned on
   Number of AuxJ basis functions       .... 493


General Settings:
 Integral files         IntName         .... TPSS_D1_wb97
 Hartree-Fock type      HFTyp           .... RHF
 Total Charge           Charge          ....    0
 Multiplicity           Mult            ....    1
 Number of Electrons    NEL             ....   74
 Basis Dimension        Dim             ....  308
 Nuclear Repulsion      ENuc            ....    554.0130787660 Eh

Convergence Acceleration:
 DIIS                   CNVDIIS         .... on
   Start iteration      DIISMaxIt       ....    12
   Startup error        DIISStart       ....  0.200000
   # of expansion vecs  DIISMaxEq       ....     5
   Bias factor          DIISBfac        ....   1.050
   Max. coefficient     DIISMaxC        ....  10.000
 Trust-Rad. Augm. Hess. CNVTRAH         .... auto
   Auto Start mean grad. ratio tolernc. ....  1.125000
   Auto Start start iteration           ....    20
   Auto Start num. interpolation iter.  ....    10
   Max. Number of Micro iterations      ....    16
   Max. Number of Macro iterations      .... Maxiter - #DIIS iter
   Number of Davidson start vectors     ....     2
   Converg. threshold I  (grad. norm)   ....   1.000e-05
   Converg. threshold II (energy diff.) ....   1.000e-08
   Grad. Scal. Fac. for Micro threshold ....   0.100
   Minimum threshold for Micro iter.    ....   0.010
   NR start threshold (gradient norm)   ....   0.001
   Initial trust radius                 ....   0.400
   Minimum AH scaling param. (alpha)    ....   1.000
   Maximum AH scaling param. (alpha)    .... 1000.000
   Orbital update algorithm             .... Taylor
   White noise on init. David. guess    .... on
   Maximum white noise                  ....   0.010
   Quad. conv. algorithm                .... NR
 SOSCF                  CNVSOSCF        .... on
   Start iteration      SOSCFMaxIt      ....   150
   Startup grad/error   SOSCFStart      ....  0.003300
 Level Shifting         CNVShift        .... on
   Level shift para.    LevelShift      ....    0.2500
   Turn off err/grad.   ShiftErr        ....    0.0010
 Zerner damping         CNVZerner       .... off
 Static damping         CNVDamp         .... on
   Fraction old density DampFac         ....    0.7000
   Max. Damping (<1)    DampMax         ....    0.9800
   Min. Damping (>=0)   DampMin         ....    0.0000
   Turn off err/grad.   DampErr         ....    0.1000
 Fernandez-Rico         CNVRico         .... off

SCF Procedure:
 Maximum # iterations   MaxIter         ....   150
 SCF integral mode      SCFMode         .... Direct
   Integral package                     .... SHARK and LIBINT hybrid scheme
 Reset frequency        DirectResetFreq ....    20
 Integral Threshold     Thresh          ....  2.500e-11 Eh
 Primitive CutOff       TCut            ....  2.500e-12 Eh

Convergence Tolerance:
 Convergence Check Mode ConvCheckMode   .... Total+1el-Energy
 Convergence forced     ConvForced      .... 0
 Energy Change          TolE            ....  1.000e-08 Eh
 1-El. energy change                    ....  1.000e-05 Eh
 Orbital Gradient       TolG            ....  1.000e-05
 Orbital Rotation angle TolX            ....  1.000e-05
 DIIS Error             TolErr          ....  5.000e-07


Diagonalization of the overlap matrix:
Smallest eigenvalue                        ... 1.470e-04
Time for diagonalization                   ...    0.023 sec
Threshold for overlap eigenvalues          ... 1.000e-08
Number of eigenvalues below threshold      ... 0
Time for construction of square roots      ...    0.038 sec
Total time needed                          ...    0.062 sec

Time for model grid setup =    0.069 sec

------------------------------
INITIAL GUESS: MODEL POTENTIAL
------------------------------
Loading Hartree-Fock densities                     ... done
Calculating cut-offs                               ... done
Initializing the effective Hamiltonian             ... done
Setting up the integral package (SHARK)            ... done
Starting the Coulomb interaction                   ... done (   0.0 sec)
Reading the grid                                   ... done
Mapping shells                                     ... done
Starting the XC term evaluation                    ... done (   0.0 sec)
  promolecular density results
     # of electrons  =     73.993114148
     EX              =    -74.542686747
     EC              =     -2.609795633
     EX+EC           =    -77.152482379
Transforming the Hamiltonian                       ... done (   0.0 sec)
Diagonalizing the Hamiltonian                      ... done (   0.0 sec)
Back transforming the eigenvectors                 ... done (   0.0 sec)
Now organizing SCF variables                       ... done
                      ------------------
                      INITIAL GUESS DONE (   0.2 sec)
                      ------------------
-------------------
DFT GRID GENERATION
-------------------

General Integration Accuracy     IntAcc      ... 4.388
Radial Grid Type                 RadialGrid  ... OptM3 with GC (2021)
Angular Grid (max. ang.)         AngularGrid ... 4 (Lebedev-302)
Angular grid pruning method      GridPruning ... 4 (adaptive)
Weight generation scheme         WeightScheme... Becke
Basis function cutoff            BFCut       ... 1.0000e-11
Integration weight cutoff        WCut        ... 1.0000e-14
Angular grids for H and He will be reduced by one unit
Partially contracted basis set               ... off
Rotationally invariant grid construction     ... off

Total number of grid points                  ...    78217
Total number of batches                      ...     1230
Average number of points per batch           ...       63
Average number of grid points per atom       ...     4601
Time for grid setup =    0.410 sec

--------------
SCF ITERATIONS
--------------
ITER       Energy         Delta-E        Max-DP      RMS-DP      [F,P]     Damp
               ***  Starting incremental Fock matrix formation  ***
  0   -806.0627321993   0.000000000000 0.18107872  0.00177991  0.2865961 0.7000
  1   -806.2898757626  -0.227143563244 0.05659366  0.00106539  0.1096294 0.7000
                               ***Turning on DIIS***
  2   -806.3461859758  -0.056310213213 0.05646658  0.00131048  0.0351619 0.0000
  3   -806.4823378747  -0.136151898960 0.05427106  0.00083564  0.0667478 0.0000
  4   -806.4967943626  -0.014456487822 0.02842688  0.00028691  0.0329050 0.0000
  5   -806.5015398448  -0.004745482245 0.00459562  0.00009504  0.0049721 0.0000
  6   -806.5017092461  -0.000169401309 0.00177948  0.00003669  0.0038800 0.0000
                      *** Initiating the SOSCF procedure ***
                           *** Shutting down DIIS ***
                      *** Re-Reading the Fockian *** 
                      *** Removing any level shift *** 
ITER      Energy       Delta-E        Grad      Rot      Max-DP    RMS-DP
  7   -806.50175552  -0.0000462716  0.000134  0.000134  0.000877  0.000021
               *** Restarting incremental Fock matrix formation ***
  8   -806.50175644  -0.0000009247  0.000208  0.000605  0.000680  0.000014
  9   -806.50175104   0.0000054052  0.000412  0.000521  0.000466  0.000011
 10   -806.50175755  -0.0000065172  0.000055  0.000163  0.000307  0.000005
 11   -806.50175700   0.0000005582  0.000140  0.000095  0.000179  0.000004
 12   -806.50175770  -0.0000007041  0.000011  0.000031  0.000046  0.000001
 13   -806.50175768   0.0000000238  0.000027  0.000025  0.000033  0.000001
 14   -806.50175771  -0.0000000287  0.000003  0.000006  0.000022  0.000000
 15   -806.50175770   0.0000000066  0.000005  0.000004  0.000012  0.000000
                  ***Gradient check signals convergence***
              ***Rediagonalizing the Fockian in SOSCF/NRSCF***

               *****************************************************
               *                     SUCCESS                       *
               *           SCF CONVERGED AFTER  16 CYCLES          *
               *****************************************************


----------------
TOTAL SCF ENERGY
----------------

Total Energy       :         -806.50175770 Eh          -21946.02854 eV

Components:
Nuclear Repulsion  :          554.01307877 Eh           15075.46229 eV
Electronic Energy  :        -1360.51483647 Eh          -37021.49084 eV
One Electron Energy:        -2207.97418384 Eh          -60082.03205 eV
Two Electron Energy:          847.45934737 Eh           23060.54122 eV

Virial components:
Potential Energy   :        -1611.37872666 Eh          -43847.84433 eV
Kinetic Energy     :          804.87696896 Eh           21901.81579 eV
Virial Ratio       :            2.00201868


DFT components:
N(Alpha)           :       36.999934387502 electrons
N(Beta)            :       36.999934387502 electrons
N(Total)           :       73.999868775004 electrons
E(X)               :      -76.279033050029 Eh       
E(C)               :       -2.608356353645 Eh       
E(XC)              :      -78.887389403675 Eh       
DFET-embed. en.    :        0.000000000000 Eh       

---------------
SCF CONVERGENCE
---------------

  Last Energy change         ...   -4.7411e-09  Tolerance :   1.0000e-08
  Last MAX-Density change    ...    2.6359e-06  Tolerance :   1.0000e-07
  Last RMS-Density change    ...    5.9170e-08  Tolerance :   5.0000e-09
  Last Orbital Gradient      ...    1.5127e-07  Tolerance :   1.0000e-05
  Last Orbital Rotation      ...    3.5450e-07  Tolerance :   1.0000e-05

             **** THE GBW FILE WAS UPDATED (TPSS_D1_wb97.gbw) ****
             **** DENSITY TPSS_D1_wb97.scfp WAS UPDATED ****
             **** ENERGY FILE WAS UPDATED (TPSS_D1_wb97.en.tmp) ****
             **** THE GBW FILE WAS UPDATED (TPSS_D1_wb97.gbw) ****
             **** DENSITY TPSS_D1_wb97.scfp WAS UPDATED ****
----------------
ORBITAL ENERGIES
----------------

  NO   OCC          E(Eh)            E(eV) 
   0   2.0000     -88.587974     -2410.6013 
   1   2.0000     -24.532694      -667.5685 
   2   2.0000     -18.898225      -514.2468 
   3   2.0000     -18.886677      -513.9326 
   4   2.0000     -10.041276      -273.2370 
   5   2.0000     -10.005021      -272.2505 
   6   2.0000      -9.969867      -271.2939 
   7   2.0000      -9.914805      -269.7956 
   8   2.0000      -7.937656      -215.9946 
   9   2.0000      -5.920870      -161.1151 
  10   2.0000      -5.914300      -160.9363 
  11   2.0000      -5.913633      -160.9181 
  12   2.0000      -1.310611       -35.6635 
  13   2.0000      -1.035537       -28.1784 
  14   2.0000      -0.944771       -25.7085 
  15   2.0000      -0.769797       -20.9472 
  16   2.0000      -0.715296       -19.4642 
  17   2.0000      -0.663986       -18.0680 
  18   2.0000      -0.623133       -16.9563 
  19   2.0000      -0.554385       -15.0856 
  20   2.0000      -0.536130       -14.5888 
  21   2.0000      -0.522280       -14.2120 
  22   2.0000      -0.499035       -13.5794 
  23   2.0000      -0.458028       -12.4636 
  24   2.0000      -0.450060       -12.2468 
  25   2.0000      -0.412926       -11.2363 
  26   2.0000      -0.409144       -11.1334 
  27   2.0000      -0.382076       -10.3968 
  28   2.0000      -0.364337        -9.9141 
  29   2.0000      -0.359211        -9.7746 
  30   2.0000      -0.341521        -9.2933 
  31   2.0000      -0.315517        -8.5857 
  32   2.0000      -0.306627        -8.3438 
  33   2.0000      -0.285729        -7.7751 
  34   2.0000      -0.281650        -7.6641 
  35   2.0000      -0.270065        -7.3489 
  36   2.0000      -0.240791        -6.5522 
  37   0.0000      -0.009547        -0.2598 
  38   0.0000       0.010091         0.2746 
  39   0.0000       0.034083         0.9274 
  40   0.0000       0.042779         1.1641 
  41   0.0000       0.052129         1.4185 
  42   0.0000       0.064623         1.7585 
  43   0.0000       0.064697         1.7605 
  44   0.0000       0.089108         2.4248 
  45   0.0000       0.097302         2.6477 
  46   0.0000       0.111263         3.0276 
  47   0.0000       0.128857         3.5064 
  48   0.0000       0.136504         3.7145 
  49   0.0000       0.149985         4.0813 
  50   0.0000       0.161524         4.3953 
  51   0.0000       0.179194         4.8761 
  52   0.0000       0.195266         5.3134 
  53   0.0000       0.207410         5.6439 
  54   0.0000       0.214082         5.8255 
  55   0.0000       0.224100         6.0981 
  56   0.0000       0.236687         6.4406 
  57   0.0000       0.246156         6.6983 
  58   0.0000       0.257195         6.9986 
  59   0.0000       0.259270         7.0551 
  60   0.0000       0.266534         7.2528 
  61   0.0000       0.288592         7.8530 
  62   0.0000       0.303877         8.2689 
  63   0.0000       0.336487         9.1563 
  64   0.0000       0.354176         9.6376 
  65   0.0000       0.363343         9.8871 
  66   0.0000       0.381652        10.3853 
  67   0.0000       0.383986        10.4488 
  68   0.0000       0.390791        10.6340 
  69   0.0000       0.405599        11.0369 
  70   0.0000       0.409433        11.1412 
  71   0.0000       0.417021        11.3477 
  72   0.0000       0.424319        11.5463 
  73   0.0000       0.431855        11.7514 
  74   0.0000       0.436668        11.8823 
  75   0.0000       0.446135        12.1399 
  76   0.0000       0.456886        12.4325 
  77   0.0000       0.464934        12.6515 
  78   0.0000       0.473877        12.8949 
  79   0.0000       0.486391        13.2354 
  80   0.0000       0.505394        13.7525 
  81   0.0000       0.524173        14.2635 
  82   0.0000       0.541706        14.7406 
  83   0.0000       0.570593        15.5266 
  84   0.0000       0.584217        15.8974 
  85   0.0000       0.587137        15.9768 
  86   0.0000       0.602314        16.3898 
  87   0.0000       0.613157        16.6849 
  88   0.0000       0.652599        17.7581 
  89   0.0000       0.658522        17.9193 
  90   0.0000       0.665445        18.1077 
  91   0.0000       0.686996        18.6941 
  92   0.0000       0.705975        19.2105 
  93   0.0000       0.728746        19.8302 
  94   0.0000       0.746964        20.3259 
  95   0.0000       0.778845        21.1935 
  96   0.0000       0.795217        21.6390 
  97   0.0000       0.822845        22.3908 
  98   0.0000       0.829244        22.5649 
  99   0.0000       0.839539        22.8450 
 100   0.0000       0.858302        23.3556 
 101   0.0000       0.869756        23.6673 
 102   0.0000       0.897665        24.4267 
 103   0.0000       0.915997        24.9255 
 104   0.0000       0.931023        25.3344 
 105   0.0000       0.936458        25.4823 
 106   0.0000       0.978059        26.6144 
 107   0.0000       1.006079        27.3768 
 108   0.0000       1.037936        28.2437 
 109   0.0000       1.053641        28.6710 
 110   0.0000       1.075775        29.2733 
 111   0.0000       1.088037        29.6070 
 112   0.0000       1.108566        30.1656 
 113   0.0000       1.118478        30.4353 
 114   0.0000       1.150992        31.3201 
 115   0.0000       1.178722        32.0746 
 116   0.0000       1.194484        32.5036 
 117   0.0000       1.205738        32.8098 
 118   0.0000       1.277034        34.7499 
 119   0.0000       1.328526        36.1510 
 120   0.0000       1.337868        36.4052 
 121   0.0000       1.369290        37.2603 
 122   0.0000       1.373172        37.3659 
 123   0.0000       1.379646        37.5421 
 124   0.0000       1.428313        38.8664 
 125   0.0000       1.471681        40.0465 
 126   0.0000       1.477405        40.2022 
 127   0.0000       1.492087        40.6018 
 128   0.0000       1.502781        40.8927 
 129   0.0000       1.514606        41.2145 
 130   0.0000       1.527347        41.5612 
 131   0.0000       1.553939        42.2848 
 132   0.0000       1.569977        42.7213 
 133   0.0000       1.575080        42.8601 
 134   0.0000       1.583873        43.0994 
 135   0.0000       1.594762        43.3957 
 136   0.0000       1.610431        43.8220 
 137   0.0000       1.636618        44.5346 
 138   0.0000       1.645247        44.7694 
 139   0.0000       1.655180        45.0397 
 140   0.0000       1.660701        45.1900 
 141   0.0000       1.691554        46.0295 
 142   0.0000       1.732483        47.1433 
 143   0.0000       1.757461        47.8229 
 144   0.0000       1.787389        48.6373 
 145   0.0000       1.793956        48.8160 
 146   0.0000       1.816063        49.4176 
 147   0.0000       1.834299        49.9138 
 148   0.0000       1.855948        50.5029 
 149   0.0000       1.886609        51.3372 
 150   0.0000       1.890603        51.4459 
 151   0.0000       1.921179        52.2779 
 152   0.0000       1.923087        52.3299 
 153   0.0000       1.973839        53.7109 
 154   0.0000       1.989949        54.1493 
 155   0.0000       2.001047        54.4513 
 156   0.0000       2.024252        55.0827 
 157   0.0000       2.057242        55.9804 
 158   0.0000       2.075974        56.4901 
 159   0.0000       2.099890        57.1409 
 160   0.0000       2.127959        57.9047 
 161   0.0000       2.138115        58.1811 
 162   0.0000       2.168069        58.9961 
 163   0.0000       2.174563        59.1729 
 164   0.0000       2.242037        61.0089 
 165   0.0000       2.247231        61.1503 
 166   0.0000       2.281789        62.0906 
 167   0.0000       2.295606        62.4666 
 168   0.0000       2.322371        63.1949 
 169   0.0000       2.356275        64.1175 
 170   0.0000       2.358935        64.1899 
 171   0.0000       2.386398        64.9372 
 172   0.0000       2.403059        65.3906 
 173   0.0000       2.407250        65.5046 
 174   0.0000       2.428663        66.0873 
 175   0.0000       2.469133        67.1885 
 176   0.0000       2.476559        67.3906 
 177   0.0000       2.489776        67.7502 
 178   0.0000       2.520679        68.5912 
 179   0.0000       2.542700        69.1904 
 180   0.0000       2.556772        69.5733 
 181   0.0000       2.573558        70.0301 
 182   0.0000       2.576232        70.1028 
 183   0.0000       2.592052        70.5333 
 184   0.0000       2.605896        70.9100 
 185   0.0000       2.618842        71.2623 
 186   0.0000       2.627648        71.5019 
 187   0.0000       2.642450        71.9047 
 188   0.0000       2.652653        72.1824 
 189   0.0000       2.684557        73.0505 
 190   0.0000       2.698435        73.4282 
 191   0.0000       2.718420        73.9720 
 192   0.0000       2.730744        74.3073 
 193   0.0000       2.749739        74.8242 
 194   0.0000       2.770221        75.3815 
 195   0.0000       2.778796        75.6149 
 196   0.0000       2.814820        76.5951 
 197   0.0000       2.827970        76.9530 
 198   0.0000       2.858893        77.7944 
 199   0.0000       2.883389        78.4610 
 200   0.0000       2.908914        79.1556 
 201   0.0000       2.948786        80.2405 
 202   0.0000       2.964727        80.6743 
 203   0.0000       2.972513        80.8862 
 204   0.0000       3.003973        81.7423 
 205   0.0000       3.031196        82.4830 
 206   0.0000       3.041562        82.7651 
 207   0.0000       3.070076        83.5410 
 208   0.0000       3.090097        84.0858 
 209   0.0000       3.141632        85.4881 
 210   0.0000       3.162750        86.0628 
 211   0.0000       3.177850        86.4737 
 212   0.0000       3.191944        86.8572 
 213   0.0000       3.209378        87.3316 
 214   0.0000       3.219691        87.6122 
 215   0.0000       3.242630        88.2365 
 216   0.0000       3.280608        89.2699 
 217   0.0000       3.305258        89.9407 
 218   0.0000       3.315464        90.2184 
 219   0.0000       3.356347        91.3308 
 220   0.0000       3.362699        91.5037 
 221   0.0000       3.373697        91.8030 
 222   0.0000       3.395985        92.4094 
 223   0.0000       3.411730        92.8379 
 224   0.0000       3.444547        93.7309 
 225   0.0000       3.461668        94.1968 
 226   0.0000       3.482618        94.7669 
 227   0.0000       3.496533        95.1455 
 228   0.0000       3.531935        96.1088 
 229   0.0000       3.547947        96.5446 
 230   0.0000       3.598281        97.9142 
 231   0.0000       3.651952        99.3747 
 232   0.0000       3.709379       100.9373 
 233   0.0000       3.740627       101.7876 
 234   0.0000       3.764615       102.4404 
 235   0.0000       3.784187       102.9730 
 236   0.0000       3.813594       103.7732 
 237   0.0000       3.847122       104.6855 
 238   0.0000       3.863754       105.1381 
 239   0.0000       3.900286       106.1322 
 240   0.0000       3.955462       107.6336 
 241   0.0000       3.998637       108.8084 
 242   0.0000       4.012210       109.1778 
 243   0.0000       4.064669       110.6053 
 244   0.0000       4.071398       110.7884 
 245   0.0000       4.134761       112.5126 
 246   0.0000       4.153864       113.0324 
 247   0.0000       4.177664       113.6800 
 248   0.0000       4.406434       119.9052 
 249   0.0000       4.448878       121.0601 
 250   0.0000       4.483379       121.9989 
 251   0.0000       4.503608       122.5494 
 252   0.0000       4.570295       124.3641 
 253   0.0000       4.610577       125.4602 
 254   0.0000       4.669688       127.0687 
 255   0.0000       4.699107       127.8692 
 256   0.0000       4.746925       129.1704 
 257   0.0000       4.825093       131.2974 
 258   0.0000       4.866251       132.4174 
 259   0.0000       4.878094       132.7397 
 260   0.0000       4.928753       134.1182 
 261   0.0000       5.124042       139.4323 
 262   0.0000       5.134338       139.7124 
 263   0.0000       5.156754       140.3224 
 264   0.0000       5.158131       140.3599 
 265   0.0000       5.177954       140.8993 
 266   0.0000       5.207559       141.7049 
 267   0.0000       5.268478       143.3626 
 268   0.0000       5.331229       145.0701 
 269   0.0000       5.424419       147.6059 
 270   0.0000       5.443481       148.1246 
 271   0.0000       5.493752       149.4926 
 272   0.0000       5.559835       151.2908 
 273   0.0000       5.635525       153.3504 
 274   0.0000       5.658169       153.9666 
 275   0.0000       6.247392       170.0002 
 276   0.0000       6.292845       171.2370 
 277   0.0000       6.381181       173.6408 
 278   0.0000       6.517165       177.3411 
 279   0.0000       6.543402       178.0550 
 280   0.0000       6.644938       180.8180 
 281   0.0000       6.724859       182.9927 
 282   0.0000       6.741965       183.4582 
 283   0.0000       6.764791       184.0793 
 284   0.0000       6.785421       184.6407 
 285   0.0000       6.814053       185.4198 
 286   0.0000       6.828741       185.8195 
 287   0.0000       6.847575       186.3320 
 288   0.0000       6.882962       187.2949 
 289   0.0000       6.892215       187.5467 
 290   0.0000       6.995133       190.3472 
 291   0.0000       7.072680       192.4574 
 292   0.0000       8.172973       222.3979 
 293   0.0000       8.180516       222.6031 
 294   0.0000       8.548563       232.6182 
 295   0.0000       8.587153       233.6683 
 296   0.0000       8.645712       235.2618 
 297   0.0000       9.255603       251.8578 
 298   0.0000       9.457608       257.3546 
 299   0.0000       9.681984       263.4602 
 300   0.0000      22.095278       601.2431 
 301   0.0000      22.409947       609.8057 
 302   0.0000      22.453479       610.9902 
 303   0.0000      22.508737       612.4939 
 304   0.0000      22.709000       617.9433 
 305   0.0000      43.477244      1183.0759 
 306   0.0000      43.713293      1189.4992 
 307   0.0000      57.002796      1551.1249 

                    ********************************
                    * MULLIKEN POPULATION ANALYSIS *
                    ********************************

-----------------------
MULLIKEN ATOMIC CHARGES
-----------------------
   0 C :   -0.214260
   1 C :   -0.339641
   2 C :   -0.159259
   3 C :   -0.265430
   4 S :    0.746382
   5 H :    0.134844
   6 H :    0.143305
   7 H :    0.093968
   8 H :    0.172973
   9 H :    0.071893
  10 F :   -0.063258
  11 O :   -0.382332
  12 H :    0.128090
  13 H :    0.085032
  14 H :    0.106672
  15 H :    0.107609
  16 O :   -0.366586
Sum of atomic charges:   -0.0000000

--------------------------------
MULLIKEN REDUCED ORBITAL CHARGES
--------------------------------
  0 C s       :     3.183991  s :     3.183991
      pz      :     0.953898  p :     2.916815
      px      :     1.004499
      py      :     0.958418
      dz2     :     0.026408  d :     0.106400
      dxz     :     0.013971
      dyz     :     0.028879
      dx2y2   :     0.026882
      dxy     :     0.010261
      f0      :     0.001233  f :     0.007054
      f+1     :     0.000647
      f-1     :     0.001033
      f+2     :     0.001731
      f-2     :     0.001160
      f+3     :     0.000558
      f-3     :     0.000692
  1 C s       :     3.180811  s :     3.180811
      pz      :     0.977467  p :     3.095082
      px      :     1.075242
      py      :     1.042373
      dz2     :     0.010445  d :     0.059177
      dxz     :     0.010362
      dyz     :     0.019692
      dx2y2   :     0.012415
      dxy     :     0.006263
      f0      :     0.000676  f :     0.004570
      f+1     :     0.000584
      f-1     :     0.000413
      f+2     :     0.001357
      f-2     :     0.000960
      f+3     :     0.000233
      f-3     :     0.000347
  2 C s       :     3.149504  s :     3.149504
      pz      :     1.019016  p :     2.900757
      px      :     0.886173
      py      :     0.995567
      dz2     :     0.018094  d :     0.102358
      dxz     :     0.029886
      dyz     :     0.012391
      dx2y2   :     0.023993
      dxy     :     0.017994
      f0      :     0.000600  f :     0.006640
      f+1     :     0.001102
      f-1     :     0.000761
      f+2     :     0.001500
      f-2     :     0.000725
      f+3     :     0.000926
      f-3     :     0.001026
  3 C s       :     3.190899  s :     3.190899
      pz      :     1.063364  p :     2.974725
      px      :     0.980949
      py      :     0.930412
      dz2     :     0.011398  d :     0.094142
      dxz     :     0.024555
      dyz     :     0.016848
      dx2y2   :     0.012450
      dxy     :     0.028891
      f0      :     0.000597  f :     0.005665
      f+1     :     0.000684
      f-1     :     0.000761
      f+2     :     0.000896
      f-2     :     0.000661
      f+3     :     0.001131
      f-3     :     0.000935
  4 S s       :     5.404242  s :     5.404242
      pz      :     2.824379  p :     8.601153
      px      :     2.795766
      py      :     2.981008
      dz2     :     0.255077  d :     1.127432
      dxz     :     0.248554
      dyz     :     0.204379
      dx2y2   :     0.221256
      dxy     :     0.198166
      f0      :     0.017911  f :     0.120790
      f+1     :     0.030314
      f-1     :     0.013086
      f+2     :     0.019094
      f-2     :     0.013049
      f+3     :     0.014250
      f-3     :     0.013086
  5 H s       :     0.844200  s :     0.844200
      pz      :     0.009114  p :     0.020956
      px      :     0.004861
      py      :     0.006981
  6 H s       :     0.836116  s :     0.836116
      pz      :     0.007855  p :     0.020579
      px      :     0.006503
      py      :     0.006221
  7 H s       :     0.883766  s :     0.883766
      pz      :     0.007854  p :     0.022265
      px      :     0.006479
      py      :     0.007932
  8 H s       :     0.784402  s :     0.784402
      pz      :     0.013655  p :     0.042626
      px      :     0.020708
      py      :     0.008262
  9 H s       :     0.906319  s :     0.906319
      pz      :     0.007117  p :     0.021789
      px      :     0.006256
      py      :     0.008416
 10 F s       :     3.898845  s :     3.898845
      pz      :     1.765935  p :     5.142374
      px      :     1.570942
      py      :     1.805497
      dz2     :     0.003273  d :     0.021102
      dxz     :     0.006110
      dyz     :     0.001624
      dx2y2   :     0.005105
      dxy     :     0.004989
      f0      :     0.000089  f :     0.000937
      f+1     :     0.000192
      f-1     :     0.000018
      f+2     :     0.000184
      f-2     :     0.000132
      f+3     :     0.000157
      f-3     :     0.000166
 11 O s       :     3.842522  s :     3.842522
      pz      :     1.245710  p :     4.505128
      px      :     1.636057
      py      :     1.623360
      dz2     :     0.010001  d :     0.032821
      dxz     :     0.009685
      dyz     :     0.008656
      dx2y2   :     0.002385
      dxy     :     0.002093
      f0      :     0.000575  f :     0.001861
      f+1     :     0.000366
      f-1     :     0.000492
      f+2     :     0.000182
      f-2     :     0.000202
      f+3     :     0.000018
      f-3     :     0.000026
 12 H s       :     0.851791  s :     0.851791
      pz      :     0.006313  p :     0.020120
      px      :     0.004421
      py      :     0.009385
 13 H s       :     0.894976  s :     0.894976
      pz      :     0.005462  p :     0.019992
      px      :     0.010296
      py      :     0.004234
 14 H s       :     0.873224  s :     0.873224
      pz      :     0.008914  p :     0.020104
      px      :     0.006428
      py      :     0.004762
 15 H s       :     0.872520  s :     0.872520
      pz      :     0.005693  p :     0.019871
      px      :     0.004816
      py      :     0.009362
 16 O s       :     3.845770  s :     3.845770
      pz      :     1.560036  p :     4.485433
      px      :     1.387102
      py      :     1.538295
      dz2     :     0.006208  d :     0.033349
      dxz     :     0.006791
      dyz     :     0.005515
      dx2y2   :     0.007707
      dxy     :     0.007129
      f0      :     0.000166  f :     0.002034
      f+1     :     0.000323
      f-1     :     0.000233
      f+2     :     0.000317
      f-2     :     0.000379
      f+3     :     0.000319
      f-3     :     0.000298


                     *******************************
                     * LOEWDIN POPULATION ANALYSIS *
                     *******************************

----------------------
LOEWDIN ATOMIC CHARGES
----------------------
   0 C :   -0.299006
   1 C :   -0.307202
   2 C :   -0.269836
   3 C :   -0.366333
   4 S :    0.495512
   5 H :    0.133584
   6 H :    0.139168
   7 H :    0.102348
   8 H :    0.084362
   9 H :    0.097669
  10 F :    0.120393
  11 O :   -0.250561
  12 H :    0.139944
  13 H :    0.130116
  14 H :    0.142009
  15 H :    0.143562
  16 O :   -0.235729

-------------------------------
LOEWDIN REDUCED ORBITAL CHARGES
-------------------------------
  0 C s       :     2.770424  s :     2.770424
      pz      :     1.029739  p :     3.061481
      px      :     1.023847
      py      :     1.007894
      dz2     :     0.086597  d :     0.423522
      dxz     :     0.073311
      dyz     :     0.113847
      dx2y2   :     0.109852
      dxy     :     0.039916
      f0      :     0.009530  f :     0.043579
      f+1     :     0.004717
      f-1     :     0.005986
      f+2     :     0.006614
      f-2     :     0.007606
      f+3     :     0.004435
      f-3     :     0.004691
  1 C s       :     2.787726  s :     2.787726
      pz      :     1.042968  p :     3.205036
      px      :     1.098390
      py      :     1.063678
      dz2     :     0.047582  d :     0.283895
      dxz     :     0.058908
      dyz     :     0.093728
      dx2y2   :     0.054881
      dxy     :     0.028797
      f0      :     0.007076  f :     0.030545
      f+1     :     0.004940
      f-1     :     0.002476
      f+2     :     0.005065
      f-2     :     0.005174
      f+3     :     0.002564
      f-3     :     0.003250
  2 C s       :     2.781759  s :     2.781759
      pz      :     1.032671  p :     3.045351
      px      :     0.980406
      py      :     1.032274
      dz2     :     0.064636  d :     0.403217
      dxz     :     0.104602
      dyz     :     0.059374
      dx2y2   :     0.103505
      dxy     :     0.071101
      f0      :     0.004116  f :     0.039508
      f+1     :     0.007253
      f-1     :     0.004571
      f+2     :     0.005983
      f-2     :     0.004886
      f+3     :     0.006070
      f-3     :     0.006628
  3 C s       :     2.851952  s :     2.851952
      pz      :     1.059855  p :     3.117053
      px      :     1.056814
      py      :     1.000384
      dz2     :     0.047368  d :     0.365586
      dxz     :     0.077995
      dyz     :     0.066060
      dx2y2   :     0.066807
      dxy     :     0.107356
      f0      :     0.003206  f :     0.031741
      f+1     :     0.004522
      f-1     :     0.003830
      f+2     :     0.004330
      f-2     :     0.003830
      f+3     :     0.006418
      f-3     :     0.005605
  4 S s       :     4.763765  s :     4.763765
      pz      :     2.844517  p :     8.579341
      px      :     2.810215
      py      :     2.924609
      dz2     :     0.397065  d :     1.784646
      dxz     :     0.396940
      dyz     :     0.316387
      dx2y2   :     0.343314
      dxy     :     0.330939
      f0      :     0.059504  f :     0.376737
      f+1     :     0.083603
      f-1     :     0.043114
      f+2     :     0.058581
      f-2     :     0.044360
      f+3     :     0.044056
      f-3     :     0.043518
  5 H s       :     0.803184  s :     0.803184
      pz      :     0.029377  p :     0.063231
      px      :     0.013511
      py      :     0.020344
  6 H s       :     0.797825  s :     0.797825
      pz      :     0.025327  p :     0.063007
      px      :     0.019345
      py      :     0.018335
  7 H s       :     0.825092  s :     0.825092
      pz      :     0.024330  p :     0.072560
      px      :     0.021767
      py      :     0.026463
  8 H s       :     0.775530  s :     0.775530
      pz      :     0.045373  p :     0.140108
      px      :     0.069221
      py      :     0.025514
  9 H s       :     0.830587  s :     0.830587
      pz      :     0.021614  p :     0.071743
      px      :     0.020084
      py      :     0.030046
 10 F s       :     3.656226  s :     3.656226
      pz      :     1.753606  p :     5.179797
      px      :     1.663161
      py      :     1.763031
      dz2     :     0.005449  d :     0.041730
      dxz     :     0.013571
      dyz     :     0.002897
      dx2y2   :     0.011253
      dxy     :     0.008560
      f0      :     0.000217  f :     0.001853
      f+1     :     0.000330
      f-1     :     0.000038
      f+2     :     0.000403
      f-2     :     0.000253
      f+3     :     0.000292
      f-3     :     0.000319
 11 O s       :     3.574200  s :     3.574200
      pz      :     1.413601  p :     4.598327
      px      :     1.584763
      py      :     1.599963
      dz2     :     0.027701  d :     0.073438
      dxz     :     0.018629
      dyz     :     0.019796
      dx2y2   :     0.003963
      dxy     :     0.003349
      f0      :     0.001435  f :     0.004597
      f+1     :     0.000660
      f-1     :     0.001431
      f+2     :     0.000500
      f-2     :     0.000454
      f+3     :     0.000048
      f-3     :     0.000069
 12 H s       :     0.799832  s :     0.799832
      pz      :     0.018629  p :     0.060225
      px      :     0.013508
      py      :     0.028088
 13 H s       :     0.811401  s :     0.811401
      pz      :     0.016307  p :     0.058483
      px      :     0.029376
      py      :     0.012801
 14 H s       :     0.799022  s :     0.799022
      pz      :     0.026925  p :     0.058969
      px      :     0.018167
      py      :     0.013877
 15 H s       :     0.798021  s :     0.798021
      pz      :     0.017410  p :     0.058417
      px      :     0.013205
      py      :     0.027802
 16 O s       :     3.569452  s :     3.569452
      pz      :     1.574769  p :     4.592610
      px      :     1.466338
      py      :     1.551502
      dz2     :     0.008965  d :     0.068950
      dxz     :     0.017717
      dyz     :     0.012805
      dx2y2   :     0.011187
      dxy     :     0.018276
      f0      :     0.000574  f :     0.004717
      f+1     :     0.000570
      f-1     :     0.000394
      f+2     :     0.000602
      f-2     :     0.001274
      f+3     :     0.000567
      f-3     :     0.000737


                      *****************************
                      * MAYER POPULATION ANALYSIS *
                      *****************************

  NA   - Mulliken gross atomic population
  ZA   - Total nuclear charge
  QA   - Mulliken gross atomic charge
  VA   - Mayer's total valence
  BVA  - Mayer's bonded valence
  FA   - Mayer's free valence

  ATOM       NA         ZA         QA         VA         BVA        FA
  0 C      6.2143     6.0000    -0.2143     3.9798     3.9798    -0.0000
  1 C      6.3396     6.0000    -0.3396     3.8542     3.8542    -0.0000
  2 C      6.1593     6.0000    -0.1593     3.9552     3.9552     0.0000
  3 C      6.2654     6.0000    -0.2654     3.9347     3.9347     0.0000
  4 S     15.2536    16.0000     0.7464     5.9346     5.9346    -0.0000
  5 H      0.8652     1.0000     0.1348     0.9646     0.9646    -0.0000
  6 H      0.8567     1.0000     0.1433     0.9676     0.9676     0.0000
  7 H      0.9060     1.0000     0.0940     0.9786     0.9786    -0.0000
  8 H      0.8270     1.0000     0.1730     1.0541     1.0541     0.0000
  9 H      0.9281     1.0000     0.0719     0.9748     0.9748     0.0000
 10 F      9.0633     9.0000    -0.0633     1.2709     1.2709    -0.0000
 11 O      8.3823     8.0000    -0.3823     1.9872     1.9872    -0.0000
 12 H      0.8719     1.0000     0.1281     0.9773     0.9773    -0.0000
 13 H      0.9150     1.0000     0.0850     0.9681     0.9681     0.0000
 14 H      0.8933     1.0000     0.1067     0.9744     0.9744     0.0000
 15 H      0.8924     1.0000     0.1076     0.9683     0.9683    -0.0000
 16 O      8.3666     8.0000    -0.3666     2.0789     2.0789    -0.0000

  Mayer bond orders larger than 0.100000
B(  0-C ,  1-C ) :   0.9993 B(  0-C ,  2-C ) :   1.0307 B(  0-C , 12-H ) :   0.9618 
B(  0-C , 13-H ) :   0.9439 B(  1-C ,  7-H ) :   0.9592 B(  1-C ,  8-H ) :   0.9481 
B(  1-C ,  9-H ) :   0.9640 B(  2-C ,  3-C ) :   1.0083 B(  2-C , 14-H ) :   0.9499 
B(  2-C , 15-H ) :   0.9351 B(  3-C ,  4-S ) :   0.9285 B(  3-C ,  5-H ) :   0.9271 
B(  3-C ,  6-H ) :   0.9273 B(  4-S , 10-F ) :   1.1689 B(  4-S , 11-O ) :   1.8076 
B(  4-S , 16-O ) :   1.9261 

-------
TIMINGS
-------

Total SCF time: 0 days 0 hours 0 min 6 sec 

Total time                  ....       6.811 sec
Sum of individual times     ....       6.438 sec  ( 94.5%)

Fock matrix formation       ....       5.297 sec  ( 77.8%)
  Split-RI-J                ....       1.388 sec  ( 26.2% of F)
  XC integration            ....       3.795 sec  ( 71.6% of F)
    Basis function eval.    ....       0.567 sec  ( 14.9% of XC)
    Density eval.           ....       1.286 sec  ( 33.9% of XC)
    XC-Functional eval.     ....       0.170 sec  (  4.5% of XC)
    XC-Potential eval.      ....       1.487 sec  ( 39.2% of XC)
Diagonalization             ....       0.208 sec  (  3.1%)
Density matrix formation    ....       0.022 sec  (  0.3%)
Population analysis         ....       0.022 sec  (  0.3%)
Initial guess               ....       0.114 sec  (  1.7%)
Orbital Transformation      ....       0.000 sec  (  0.0%)
Orbital Orthonormalization  ....       0.000 sec  (  0.0%)
DIIS solution               ....       0.126 sec  (  1.8%)
SOSCF solution              ....       0.170 sec  (  2.5%)
Grid generation             ....       0.480 sec  (  7.0%)

Maximum memory used throughout the entire SCF-calculation: 34.6 MB


-------------------------------------------------------------------------------
                          DFT DISPERSION CORRECTION                            
                                                                               
                              DFTD3 V3.1  Rev 1                                
                          USING Becke-Johnson damping                          
-------------------------------------------------------------------------------
The TPSS functional is recognized
Active option DFTDOPT                   ...         4   

molecular C6(AA) [au] = 2866.742845 


            DFT-D V3
 parameters
 s6 scaling factor         :     1.0000 
 a1 scaling factor         :     0.4535 
 s8 scaling factor         :     1.9435 
 a2 scaling factor         :     4.4752 
 ad hoc parameters k1-k3   :    16.0000     1.3333    -4.0000 

 Edisp/kcal,au: -13.999476733305  -0.022309583869 
 E6   /kcal   :  -7.007242836 
 E8   /kcal   :  -6.992233897 
 % E8         :  49.946394641 

-------------------------   ----------------
Dispersion correction           -0.022309584
-------------------------   ----------------


-------------------------   --------------------
FINAL SINGLE POINT ENERGY      -806.524067287213
-------------------------   --------------------


                            ***************************************
                            *     ORCA property calculations      *
                            ***************************************

                                    ---------------------
                                    Active property flags
                                    ---------------------
   (+) Dipole Moment


------------------------------------------------------------------------------
                       ORCA ELECTRIC PROPERTIES CALCULATION
------------------------------------------------------------------------------

Dipole Moment Calculation                       ... on
Quadrupole Moment Calculation                   ... off
Polarizability Calculation                      ... off
GBWName                                         ... TPSS_D1_wb97.gbw
Electron density file                           ... TPSS_D1_wb97.scfp
The origin for moment calculation is the CENTER OF MASS  = (-1.202854,  0.764643 -7.348410)

-------------
DIPOLE MOMENT
-------------
                                X             Y             Z
Electronic contribution:    -12.48260      -4.15871      -9.71083
Nuclear contribution   :     12.25227       5.48563       9.26621
                        -----------------------------------------
Total Dipole Moment    :     -0.23033       1.32692      -0.44462
                        -----------------------------------------
Magnitude (a.u.)       :      1.41826
Magnitude (Debye)      :      3.60494



--------------------
Rotational spectrum 
--------------------
 
Rotational constants in cm-1:     0.103176     0.044975     0.040960 
Rotational constants in MHz :  3093.138469  1348.317425  1227.945122 

 Dipole components along the rotational axes: 
x,y,z [a.u.] :    -0.233306    -1.023968     0.953166 
x,y,z [Debye]:    -0.593018    -2.602719     2.422756 

 

Timings for individual modules:

Sum of individual times         ...        7.926 sec (=   0.132 min)
GTO integral calculation        ...        0.731 sec (=   0.012 min)   9.2 %
SCF iterations                  ...        7.195 sec (=   0.120 min)  90.8 %
                             ****ORCA TERMINATED NORMALLY****
TOTAL RUN TIME: 0 days 0 hours 0 minutes 8 seconds 556 msec
