
                                        *****************
                                        * O   R   C   A *
                                        *****************

                                            #,                                       
                                            ###                                      
                                            ####                                     
                                            #####                                    
                                            ######                                   
                                           ########,                                 
                                     ,,################,,,,,                         
                               ,,#################################,,                 
                          ,,##########################################,,             
                       ,#########################################, ''#####,          
                    ,#############################################,,   '####,        
                  ,##################################################,,,,####,       
                ,###########''''           ''''###############################       
              ,#####''   ,,,,##########,,,,          '''####'''          '####       
            ,##' ,,,,###########################,,,                        '##       
           ' ,,###''''                  '''############,,,                           
         ,,##''                                '''############,,,,        ,,,,,,###''
      ,#''                                            '''#######################'''  
     '                                                          ''''####''''         
             ,#######,   #######,   ,#######,      ##                                
            ,#'     '#,  ##    ##  ,#'     '#,    #''#        ######   ,####,        
            ##       ##  ##   ,#'  ##            #'  '#       #        #'  '#        
            ##       ##  #######   ##           ,######,      #####,   #    #        
            '#,     ,#'  ##    ##  '#,     ,#' ,#      #,         ##   #,  ,#        
             '#######'   ##     ##  '#######'  #'      '#     #####' # '####'        



                  #######################################################
                  #                        -***-                        #
                  #          Department of theory and spectroscopy      #
                  #    Directorship and core code : Frank Neese         #
                  #        Max Planck Institute fuer Kohlenforschung    #
                  #                Kaiser Wilhelm Platz 1               #
                  #                 D-45470 Muelheim/Ruhr               #
                  #                      Germany                        #
                  #                                                     #
                  #                  All rights reserved                #
                  #                        -***-                        #
                  #######################################################


                         Program Version 5.0.0 -  RELEASE  -
                                (SVN: $Rev: 19529$)
                ($Date: 2021-06-28 11:36:33 +0200 (Mo, 28 Jun 2021) $)


 With contributions from (in alphabetic order):
   Daniel Aravena         : Magnetic Suceptibility
   Michael Atanasov       : Ab Initio Ligand Field Theory (pilot matlab implementation)
   Alexander A. Auer      : GIAO ZORA, VPT2 properties, NMR spectrum
   Ute Becker             : Parallelization
   Giovanni Bistoni       : ED, misc. LED, open-shell LED, HFLD
   Martin Brehm           : Molecular dynamics
   Dmytro Bykov           : SCF Hessian
   Vijay G. Chilkuri      : MRCI spin determinant printing, contributions to CSF-ICE
   Dipayan Datta          : RHF DLPNO-CCSD density
   Achintya Kumar Dutta   : EOM-CC, STEOM-CC
   Dmitry Ganyushin       : Spin-Orbit,Spin-Spin,Magnetic field MRCI
   Miquel Garcia          : C-PCM Hessian, Gaussian charge scheme
   Yang Guo               : DLPNO-NEVPT2, F12-NEVPT2, CIM, IAO-localization
   Andreas Hansen         : Spin unrestricted coupled pair/coupled cluster methods
   Benjamin Helmich-Paris : MC-RPA, TRAH-SCF, COSX integrals
   Lee Huntington         : MR-EOM, pCC
   Robert Izsak           : Overlap fitted RIJCOSX, COSX-SCS-MP3, EOM
   Marcus Kettner         : VPT2
   Christian Kollmar      : KDIIS, OOCD, Brueckner-CCSD(T), CCSD density, CASPT2, CASPT2-K
   Simone Kossmann        : Meta GGA functionals, TD-DFT gradient, OOMP2, MP2 Hessian
   Martin Krupicka        : Initial AUTO-CI
   Lucas Lang             : DCDCAS
   Marvin Lechner         : AUTO-CI (C++ implementation), FIC-MRCC
   Dagmar Lenk            : GEPOL surface, SMD
   Dimitrios Liakos       : Extrapolation schemes; Compound Job, initial MDCI parallelization
   Dimitrios Manganas     : Further ROCIS development; embedding schemes
   Dimitrios Pantazis     : SARC Basis sets
   Anastasios Papadopoulos: AUTO-CI, single reference methods and gradients
   Taras Petrenko         : DFT Hessian,TD-DFT gradient, ASA, ECA, R-Raman, ABS, FL, XAS/XES, NRVS
   Peter Pinski           : DLPNO-MP2, DLPNO-MP2 Gradient
   Christoph Reimann      : Effective Core Potentials
   Marius Retegan         : Local ZFS, SOC
   Christoph Riplinger    : Optimizer, TS searches, QM/MM, DLPNO-CCSD(T), (RO)-DLPNO pert. Triples
   Tobias Risthaus        : Range-separated hybrids, TD-DFT gradient, RPA, STAB
   Michael Roemelt        : Original ROCIS implementation
   Masaaki Saitow         : Open-shell DLPNO-CCSD energy and density
   Barbara Sandhoefer     : DKH picture change effects
   Avijit Sen             : IP-ROCIS
   Kantharuban Sivalingam : CASSCF convergence, NEVPT2, FIC-MRCI
   Bernardo de Souza      : ESD, SOC TD-DFT
   Georgi Stoychev        : AutoAux, RI-MP2 NMR
   Willem Van den Heuvel  : Paramagnetic NMR
   Boris Wezisla          : Elementary symmetry handling
   Frank Wennmohs         : Technical directorship


 We gratefully acknowledge several colleagues who have allowed us to
 interface, adapt or use parts of their codes:
   Stefan Grimme, W. Hujo, H. Kruse, P. Pracht,  : VdW corrections, initial TS optimization,
                  C. Bannwarth, S. Ehlert          DFT functionals, gCP, sTDA/sTD-DF
   Ed Valeev, F. Pavosevic, A. Kumar             : LibInt (2-el integral package), F12 methods
   Garnet Chan, S. Sharma, J. Yang, R. Olivares  : DMRG
   Ulf Ekstrom                                   : XCFun DFT Library
   Mihaly Kallay                                 : mrcc  (arbitrary order and MRCC methods)
   Jiri Pittner, Ondrej Demel                    : Mk-CCSD
   Frank Weinhold                                : gennbo (NPA and NBO analysis)
   Christopher J. Cramer and Donald G. Truhlar   : smd solvation model
   Lars Goerigk                                  : TD-DFT with DH, B97 family of functionals
   V. Asgeirsson, H. Jonsson                     : NEB implementation
   FAccTs GmbH                                   : IRC, NEB, NEB-TS, DLPNO-Multilevel, CI-OPT
                                                   MM, QMMM, 2- and 3-layer-ONIOM, Crystal-QMMM,
                                                   LR-CPCM, SF, NACMEs, symmetry and pop. for TD-DFT,
                                                   nearIR, NL-DFT gradient (VV10), updates on ESD,
                                                   ML-optimized integration grids
   S Lehtola, MJT Oliveira, MAL Marques          : LibXC Library
   Liviu Ungur et al                             : ANISO software


 Your calculation uses the libint2 library for the computation of 2-el integrals
 For citations please refer to: http://libint.valeyev.net

 Your ORCA version has been built with support for libXC version: 5.1.0
 For citations please refer to: https://tddft.org/programs/libxc/

 This ORCA versions uses:
   CBLAS   interface :  Fast vector & matrix operations
   LAPACKE interface :  Fast linear algebra routines
   SCALAPACK package :  Parallel linear algebra routines
   Shared memory     :  Shared parallel matrices
   BLAS/LAPACK       :  OpenBLAS 0.3.15  USE64BITINT DYNAMIC_ARCH NO_AFFINITY Haswell SINGLE_THREADED
        Core in use  :  Haswell
   Copyright (c) 2011-2014, The OpenBLAS Project


Your calculation utilizes the atom-pairwise dispersion correction
with the zero-damping scheme (D30)
Cite in your paper:
S.Grimme, J.Antony, S.Ehrlich and H.Krieg, J.Chem.Phys., 132, (2010), 154104 
   

XCFun DFT library Copyright 2009-2010 Ulf Ekstrom and contributors.
See http://admol.org/xcfun for more information.
This is free software; see the source code for copying conditions.
There is ABSOLUTELY NO WARRANTY; not even for MERCHANTABILITY or FITNESS FOR A PARTICULAR PURPOSE.
For details see the documentation.
Scientific users of this library should cite U. Ekstrom, L. Visscher, R. Bast, A. J. Thorvaldsen and K. Ruud;
J.Chem.Theor.Comp. 2010, DOI: 10.1021/ct100117s
XCFun Version 0.99 

================================================================================

----- Orbital basis set information -----
Your calculation utilizes the basis: def2-TZVPD
   F. Weigend and R. Ahlrichs, Phys. Chem. Chem. Phys. 7, 3297 (2005).
   D. Rappoport and F. Furche, J. Chem. Phys. 133 134105 (2010).

----- AuxJ basis set information -----
Your calculation utilizes the auxiliary basis: def2/J
   F. Weigend, Phys. Chem. Chem. Phys. 8, 1057 (2006).

================================================================================
                                        WARNINGS
                       Please study these warnings very carefully!
================================================================================


WARNING: Minnesota functionals are quite sensitive to the integration grid.
         see SE Wheeler, KN Houk, JCTC 2010, 6, 395,
             N Mardirossian, M Head-Gordon, JCTC 2016, 12, 4303.
         DEFGRID3 seems to be a minimum grid for reliable results with these functionals!
  ===> : Please increase the integration grid!


INFO   : the flag for use of the SHARK integral package has been found!

================================================================================
                                       INPUT FILE
================================================================================
NAME = TZVPD_M062X_A_wt_dlpno_pos.com
|  1> !M062X D3Zero RIJCOSX def2-TZVPD def2/J TightSCF
|  2> *xyz 1 1
|  3> C          1.36401        0.46874       -2.81376
|  4> N          0.42884        0.32140       -1.65531
|  5> C          0.96805        1.63064       -3.71575
|  6> H          0.74858       -0.40054       -1.00134
|  7> H         -0.46105        0.02333       -2.07773
|  8> H          0.31026        1.20137       -1.13495
|  9> H          1.29485       -0.46874       -3.36468
| 10> H          2.37622        0.59740       -2.43149
| 11> H          1.65923        1.70213       -4.52942
| 12> H          0.98421        2.54058       -3.15304
| 13> H         -0.01744        1.46536       -4.09838
| 14> *
| 15> %MaxCore 64000
| 16> 
| 17> %pal nprocs 4
| 18> end  
| 19> 
| 20> %scf
| 21>   MaxIter 150
| 22> end
| 23> 
| 24> 
| 25>                          ****END OF INPUT****
================================================================================

                       ****************************
                       * Single Point Calculation *
                       ****************************

---------------------------------
CARTESIAN COORDINATES (ANGSTROEM)
---------------------------------
  C      1.364010    0.468740   -2.813760
  N      0.428840    0.321400   -1.655310
  C      0.968050    1.630640   -3.715750
  H      0.748580   -0.400540   -1.001340
  H     -0.461050    0.023330   -2.077730
  H      0.310260    1.201370   -1.134950
  H      1.294850   -0.468740   -3.364680
  H      2.376220    0.597400   -2.431490
  H      1.659230    1.702130   -4.529420
  H      0.984210    2.540580   -3.153040
  H     -0.017440    1.465360   -4.098380

----------------------------
CARTESIAN COORDINATES (A.U.)
----------------------------
  NO LB      ZA    FRAG     MASS         X           Y           Z
   0 C     6.0000    0    12.011    2.577605    0.885790   -5.317236
   1 N     7.0000    0    14.007    0.810390    0.607358   -3.128083
   2 C     6.0000    0    12.011    1.829349    3.081463   -7.021750
   3 H     1.0000    0     1.008    1.414611   -0.756911   -1.892258
   4 H     1.0000    0     1.008   -0.871258    0.044087   -3.926341
   5 H     1.0000    0     1.008    0.586306    2.270260   -2.144745
   6 H     1.0000    0     1.008    2.446912   -0.885790   -6.358324
   7 H     1.0000    0     1.008    4.490405    1.128922   -4.594850
   8 H     1.0000    0     1.008    3.135490    3.216560   -8.559363
   9 H     1.0000    0     1.008    1.859887    4.801000   -5.958382
  10 H     1.0000    0     1.008   -0.032957    2.769129   -7.744816

--------------------------------
INTERNAL COORDINATES (ANGSTROEM)
--------------------------------
 C      0   0   0     0.000000000000     0.00000000     0.00000000
 N      1   0   0     1.496081016189     0.00000000     0.00000000
 C      1   2   0     1.523279978106   111.78608065     0.00000000
 H      2   1   3     1.025235481292   111.61239405   185.59051269
 H      2   1   3     1.029168884780   104.54799300    67.76470872
 H      2   1   3     1.029166141544   112.29171607   307.54133605
 H      1   2   3     1.089570879934   105.49223069   240.58209387
 H      1   2   3     1.089611321802   108.70216197   122.93165872
 H      3   1   2     1.069999757664   109.47135980   180.00038686
 H      3   1   2     1.069997426773   109.47121668    59.99985958
 H      3   1   2     1.070006418392   109.47113752   300.00021037

---------------------------
INTERNAL COORDINATES (A.U.)
---------------------------
 C      0   0   0     0.000000000000     0.00000000     0.00000000
 N      1   0   0     2.827183394755     0.00000000     0.00000000
 C      1   2   0     2.878581983907   111.78608065     0.00000000
 H      2   1   3     1.937414282421   111.61239405   185.59051269
 H      2   1   3     1.944847337788   104.54799300    67.76470872
 H      2   1   3     1.944842153822   112.29171607   307.54133605
 H      1   2   3     2.058990566571   105.49223069   240.58209387
 H      1   2   3     2.059066990626   108.70216197   122.93165872
 H      3   1   2     2.022006505346   109.47135980   180.00038686
 H      3   1   2     2.022002100601   109.47121668    59.99985958
 H      3   1   2     2.022019092299   109.47113752   300.00021037

---------------------
BASIS SET INFORMATION
---------------------
There are 3 groups of distinct atoms

 Group   1 Type C   : 12s6p3d1f contracted to 6s3p3d1f pattern {621111/411/111/1}
 Group   2 Type N   : 12s6p3d1f contracted to 6s3p3d1f pattern {621111/411/111/1}
 Group   3 Type H   : 5s2p contracted to 3s2p pattern {311/11}

Atom   0C    basis set group =>   1
Atom   1N    basis set group =>   2
Atom   2C    basis set group =>   1
Atom   3H    basis set group =>   3
Atom   4H    basis set group =>   3
Atom   5H    basis set group =>   3
Atom   6H    basis set group =>   3
Atom   7H    basis set group =>   3
Atom   8H    basis set group =>   3
Atom   9H    basis set group =>   3
Atom  10H    basis set group =>   3
---------------------------------
AUXILIARY/J BASIS SET INFORMATION
---------------------------------
There are 3 groups of distinct atoms

 Group   1 Type C   : 12s5p4d2f1g contracted to 6s4p3d1f1g pattern {711111/2111/211/2/1}
 Group   2 Type N   : 12s5p4d2f1g contracted to 6s4p3d1f1g pattern {711111/2111/211/2/1}
 Group   3 Type H   : 5s2p1d contracted to 3s1p1d pattern {311/2/1}

Atom   0C    basis set group =>   1
Atom   1N    basis set group =>   2
Atom   2C    basis set group =>   1
Atom   3H    basis set group =>   3
Atom   4H    basis set group =>   3
Atom   5H    basis set group =>   3
Atom   6H    basis set group =>   3
Atom   7H    basis set group =>   3
Atom   8H    basis set group =>   3
Atom   9H    basis set group =>   3
Atom  10H    basis set group =>   3


           ************************************************************
           *        Program running with 4 parallel MPI-processes     *
           *              working on a common directory               *
           ************************************************************
------------------------------------------------------------------------------
                           ORCA GTO INTEGRAL CALCULATION
                           -- RI-GTO INTEGRALS CHOSEN --
------------------------------------------------------------------------------
------------------------------------------------------------------------------
                   ___                                                        
                  /   \      - P O W E R E D   B Y -                         
                 /     \                                                     
                 |  |  |   _    _      __       _____    __    __             
                 |  |  |  | |  | |    /  \     |  _  \  |  |  /  |          
                  \  \/   | |  | |   /    \    | | | |  |  | /  /          
                 / \  \   | |__| |  /  /\  \   | |_| |  |  |/  /          
                |  |  |   |  __  | /  /__\  \  |    /   |      \           
                |  |  |   | |  | | |   __   |  |    \   |  |\   \          
                \     /   | |  | | |  |  |  |  | |\  \  |  | \   \       
                 \___/    |_|  |_| |__|  |__|  |_| \__\ |__|  \__/        
                                                                              
                      - O R C A' S   B I G   F R I E N D -                    
                                      &                                       
                       - I N T E G R A L  F E E D E R -                       
                                                                              
 v1 FN, 2020, v2 2021                                                         
------------------------------------------------------------------------------


Reading SHARK input file TZVPD_M062X_A_wt_dlpno_pos.SHARKINP.tmp ... ok
----------------------
SHARK INTEGRAL PACKAGE
----------------------

Number of atoms                             ...     11
Number of basis functions                   ...    183
Number of shells                            ...     79
Maximum angular momentum                    ...      3
Integral batch strategy                     ... SHARK/LIBINT Hybrid
RI-J (if used) integral strategy            ... SPLIT-RIJ (Revised 2003 algorithm where possible)
Printlevel                                  ...      1
Contraction scheme used                     ... SEGMENTED contraction
Coulomb Range Separation                    ... NOT USED
Exchange Range Separation                   ... NOT USED
Finite Nucleus Model                        ... NOT USED
Auxiliary Coulomb fitting basis             ... AVAILABLE
   # of basis functions in Aux-J            ...    235
   # of shells in Aux-J                     ...     85
   Maximum angular momentum in Aux-J        ...      4
Auxiliary J/K fitting basis                 ... NOT available
Auxiliary Correlation fitting basis         ... NOT available
Auxiliary 'external' fitting basis          ... NOT available
Integral threshold                          ...     2.500000e-11
Primitive cut-off                           ...     2.500000e-12
Primitive pair pre-selection threshold      ...     2.500000e-12

Calculating pre-screening integrals         ... done (  0.1 sec) Dimension = 79
Organizing shell pair data                  ... done (  0.0 sec)
Shell pair information
Total number of shell pairs                 ...      3160
Shell pairs after pre-screening             ...      3136
Total number of primitive shell pairs       ...      7593
Primitive shell pairs kept                  ...      6639
          la=0 lb=0:    884 shell pairs
          la=1 lb=0:   1046 shell pairs
          la=1 lb=1:    325 shell pairs
          la=2 lb=0:    377 shell pairs
          la=2 lb=1:    225 shell pairs
          la=2 lb=2:     45 shell pairs
          la=3 lb=0:    126 shell pairs
          la=3 lb=1:     75 shell pairs
          la=3 lb=2:     27 shell pairs
          la=3 lb=3:      6 shell pairs

Calculating one electron integrals          ... done (  0.0 sec)
Calculating RI/J V-Matrix + Cholesky decomp.... done (  0.0 sec)
Calculating Nuclear repulsion               ... done (  0.0 sec) ENN=     90.474320163511 Eh

SHARK setup successfully completed in   0.2 seconds

Maximum memory used throughout the entire GTOINT-calculation: 13.8 MB


           ************************************************************
           *        Program running with 4 parallel MPI-processes     *
           *              working on a common directory               *
           ************************************************************
-------------------------------------------------------------------------------
                                 ORCA SCF
-------------------------------------------------------------------------------

------------
SCF SETTINGS
------------
Hamiltonian:
 Density Functional     Method          .... DFT(GTOs)
 Exchange Functional    Exchange        .... M062X
 Correlation Functional Correlation     .... M062X
 Gradients option       PostSCFGGA      .... off
 Hybrid DFT is turned on
   Fraction HF Exchange ScalHFX         ....  0.540000
   Scaling of DF-GGA-X  ScalDFX         ....  0.460000
   Scaling of DF-GGA-C  ScalDFC         ....  1.000000
   Scaling of DF-LDA-C  ScalLDAC        ....  1.000000
   Perturbative correction              ....  0.000000
   Density functional embedding theory  .... OFF
 RI-approximation to the Coulomb term is turned on
   Number of AuxJ basis functions       .... 235
   RIJ-COSX (HFX calculated with COS-X)).... on


General Settings:
 Integral files         IntName         .... TZVPD_M062X_A_wt_dlpno_pos
 Hartree-Fock type      HFTyp           .... RHF
 Total Charge           Charge          ....    1
 Multiplicity           Mult            ....    1
 Number of Electrons    NEL             ....   26
 Basis Dimension        Dim             ....  183
 Nuclear Repulsion      ENuc            ....     90.4743201635 Eh

Convergence Acceleration:
 DIIS                   CNVDIIS         .... on
   Start iteration      DIISMaxIt       ....    12
   Startup error        DIISStart       ....  0.200000
   # of expansion vecs  DIISMaxEq       ....     5
   Bias factor          DIISBfac        ....   1.050
   Max. coefficient     DIISMaxC        ....  10.000
 Trust-Rad. Augm. Hess. CNVTRAH         .... auto
   Auto Start mean grad. ratio tolernc. ....  1.125000
   Auto Start start iteration           ....    20
   Auto Start num. interpolation iter.  ....    10
   Max. Number of Micro iterations      ....    16
   Max. Number of Macro iterations      .... Maxiter - #DIIS iter
   Number of Davidson start vectors     ....     2
   Converg. threshold I  (grad. norm)   ....   1.000e-05
   Converg. threshold II (energy diff.) ....   1.000e-08
   Grad. Scal. Fac. for Micro threshold ....   0.100
   Minimum threshold for Micro iter.    ....   0.010
   NR start threshold (gradient norm)   ....   0.001
   Initial trust radius                 ....   0.400
   Minimum AH scaling param. (alpha)    ....   1.000
   Maximum AH scaling param. (alpha)    .... 1000.000
   Orbital update algorithm             .... Taylor
   White noise on init. David. guess    .... on
   Maximum white noise                  ....   0.010
   Quad. conv. algorithm                .... NR
 SOSCF                  CNVSOSCF        .... on
   Start iteration      SOSCFMaxIt      ....   150
   Startup grad/error   SOSCFStart      ....  0.003300
 Level Shifting         CNVShift        .... on
   Level shift para.    LevelShift      ....    0.2500
   Turn off err/grad.   ShiftErr        ....    0.0010
 Zerner damping         CNVZerner       .... off
 Static damping         CNVDamp         .... on
   Fraction old density DampFac         ....    0.7000
   Max. Damping (<1)    DampMax         ....    0.9800
   Min. Damping (>=0)   DampMin         ....    0.0000
   Turn off err/grad.   DampErr         ....    0.1000
 Fernandez-Rico         CNVRico         .... off

SCF Procedure:
 Maximum # iterations   MaxIter         ....   150
 SCF integral mode      SCFMode         .... Direct
   Integral package                     .... SHARK and LIBINT hybrid scheme
 Reset frequency        DirectResetFreq ....    20
 Integral Threshold     Thresh          ....  2.500e-11 Eh
 Primitive CutOff       TCut            ....  2.500e-12 Eh

Convergence Tolerance:
 Convergence Check Mode ConvCheckMode   .... Total+1el-Energy
 Convergence forced     ConvForced      .... 0
 Energy Change          TolE            ....  1.000e-08 Eh
 1-El. energy change                    ....  1.000e-05 Eh
 Orbital Gradient       TolG            ....  1.000e-05
 Orbital Rotation angle TolX            ....  1.000e-05
 DIIS Error             TolErr          ....  5.000e-07


Diagonalization of the overlap matrix:
Smallest eigenvalue                        ... 1.233e-05
Time for diagonalization                   ...    0.010 sec
Threshold for overlap eigenvalues          ... 1.000e-08
Number of eigenvalues below threshold      ... 0
Time for construction of square roots      ...    0.007 sec
Total time needed                          ...    0.017 sec

Time for model grid setup =    0.061 sec

------------------------------
INITIAL GUESS: MODEL POTENTIAL
------------------------------
Loading Hartree-Fock densities                     ... done
Calculating cut-offs                               ... done
Initializing the effective Hamiltonian             ... done
Setting up the integral package (SHARK)            ... done
Starting the Coulomb interaction                   ... done (   0.0 sec)
Reading the grid                                   ... done
Mapping shells                                     ... done
Starting the XC term evaluation                    ... done (   0.1 sec)
  promolecular density results
     # of electrons  =     26.997312130
     EX              =    -19.170996255
     EC              =     -0.866428890
     EX+EC           =    -20.037425145
Transforming the Hamiltonian                       ... done (   0.0 sec)
Diagonalizing the Hamiltonian                      ... done (   0.0 sec)
Back transforming the eigenvectors                 ... done (   0.0 sec)
Now organizing SCF variables                       ... done
                      ------------------
                      INITIAL GUESS DONE (   0.2 sec)
                      ------------------
-------------------
DFT GRID GENERATION
-------------------

General Integration Accuracy     IntAcc      ... 4.388
Radial Grid Type                 RadialGrid  ... OptM3 with GC (2021)
Angular Grid (max. ang.)         AngularGrid ... 4 (Lebedev-302)
Angular grid pruning method      GridPruning ... 4 (adaptive)
Weight generation scheme         WeightScheme... Becke
Basis function cutoff            BFCut       ... 1.0000e-11
Integration weight cutoff        WCut        ... 1.0000e-14
Angular grids for H and He will be reduced by one unit
Partially contracted basis set               ... off
Rotationally invariant grid construction     ... off

Total number of grid points                  ...    46471
Total number of batches                      ...      732
Average number of points per batch           ...       63
Average number of grid points per atom       ...     4225
Time for grid setup =    0.292 sec

--------------------
COSX GRID GENERATION
--------------------

GRIDX 1
-------
General Integration Accuracy     IntAcc      ... 3.816
Radial Grid Type                 RadialGrid  ... OptM3 with GC (2021)
Angular Grid (max. ang.)         AngularGrid ... 1 (Lebedev-50)
Angular grid pruning method      GridPruning ... 4 (adaptive)
Weight generation scheme         WeightScheme... Becke
Basis function cutoff            BFCut       ... 1.0000e-11
Integration weight cutoff        WCut        ... 1.0000e-14
Angular grids for H and He will be reduced by one unit
Partially contracted basis set               ... on
Rotationally invariant grid construction     ... off

Total number of grid points                  ...     5823
Total number of batches                      ...       97
Average number of points per batch           ...       60
Average number of grid points per atom       ...      529
UseSFitting                                  ... on

GRIDX 2
-------
General Integration Accuracy     IntAcc      ... 4.020
Radial Grid Type                 RadialGrid  ... OptM3 with GC (2021)
Angular Grid (max. ang.)         AngularGrid ... 2 (Lebedev-110)
Angular grid pruning method      GridPruning ... 4 (adaptive)
Weight generation scheme         WeightScheme... Becke
Basis function cutoff            BFCut       ... 1.0000e-11
Integration weight cutoff        WCut        ... 1.0000e-14
Angular grids for H and He will be reduced by one unit
Partially contracted basis set               ... on
Rotationally invariant grid construction     ... off

Total number of grid points                  ...    13429
Total number of batches                      ...      215
Average number of points per batch           ...       62
Average number of grid points per atom       ...     1221
UseSFitting                                  ... on

GRIDX 3
-------
General Integration Accuracy     IntAcc      ... 4.338
Radial Grid Type                 RadialGrid  ... OptM3 with GC (2021)
Angular Grid (max. ang.)         AngularGrid ... 3 (Lebedev-194)
Angular grid pruning method      GridPruning ... 4 (adaptive)
Weight generation scheme         WeightScheme... Becke
Basis function cutoff            BFCut       ... 1.0000e-11
Integration weight cutoff        WCut        ... 1.0000e-14
Angular grids for H and He will be reduced by one unit
Partially contracted basis set               ... on
Rotationally invariant grid construction     ... off

Total number of grid points                  ...    30683
Total number of batches                      ...      485
Average number of points per batch           ...       63
Average number of grid points per atom       ...     2789
UseSFitting                                  ... on

Time for X-Grid setup             =    0.292 sec

--------------
SCF ITERATIONS
--------------
ITER       Energy         Delta-E        Max-DP      RMS-DP      [F,P]     Damp
               ***  Starting incremental Fock matrix formation  ***
  0   -135.4127052516   0.000000000000 0.06729667  0.00210842  0.1794370 0.7000
  1   -135.4525452915  -0.039840039888 0.05779941  0.00180905  0.1011227 0.7000
                               ***Turning on DIIS***
  2   -135.4723038368  -0.019758545246 0.12920766  0.00395102  0.0457219 0.0000
  3   -135.5029216981  -0.030617861331 0.03620958  0.00070596  0.0490024 0.0000
  4   -135.5084263053  -0.005504607147 0.01376682  0.00019641  0.0051242 0.0000
                      *** Initiating the SOSCF procedure ***
                           *** Shutting down DIIS ***
                      *** Re-Reading the Fockian *** 
                      *** Removing any level shift *** 
ITER      Energy       Delta-E        Grad      Rot      Max-DP    RMS-DP
  5   -135.50852801  -0.0001017010  0.000408  0.000408  0.002241  0.000055
               *** Restarting incremental Fock matrix formation ***
  6   -135.50853821  -0.0000102086  0.000141  0.000236  0.001234  0.000037
  7   -135.50853911  -0.0000008920  0.000157  0.000137  0.000582  0.000011
  8   -135.50853973  -0.0000006272  0.000014  0.000016  0.000137  0.000004
  9   -135.50853974  -0.0000000020  0.000006  0.000004  0.000017  0.000001
                  ***Gradient check signals convergence***
              ***Rediagonalizing the Fockian in SOSCF/NRSCF***

               *****************************************************
               *                     SUCCESS                       *
               *           SCF CONVERGED AFTER  10 CYCLES          *
               *****************************************************

Old exchange energy                            =    -10.588748812 Eh
New exchange energy                            =    -10.588767400 Eh
Exchange energy change after final integration =     -0.000018589 Eh
Total energy after final integration           =   -135.508558327 Eh
Final COS-X integration done in                =     1.847 sec

----------------
TOTAL SCF ENERGY
----------------

Total Energy       :         -135.50855833 Eh           -3687.37533 eV

Components:
Nuclear Repulsion  :           90.47432016 Eh            2461.93141 eV
Electronic Energy  :         -225.98287849 Eh           -6149.30675 eV
One Electron Energy:         -353.82455058 Eh           -9628.05550 eV
Two Electron Energy:          127.84167209 Eh            3478.74875 eV
Max COSX asymmetry :            0.00000220 Eh               0.00006 eV

Virial components:
Potential Energy   :         -270.39111238 Eh           -7357.71623 eV
Kinetic Energy     :          134.88255406 Eh            3670.34089 eV
Virial Ratio       :            2.00464111


DFT components:
N(Alpha)           :       12.999971896801 electrons
N(Beta)            :       12.999971896801 electrons
N(Total)           :       25.999943793602 electrons
E(XC)              :       -9.871381183124 Eh       
DFET-embed. en.    :        0.000000000000 Eh       

---------------
SCF CONVERGENCE
---------------

  Last Energy change         ...   -2.2059e-09  Tolerance :   1.0000e-08
  Last MAX-Density change    ...    7.7716e-16  Tolerance :   1.0000e-07
  Last RMS-Density change    ...    1.3526e-17  Tolerance :   5.0000e-09
  Last Orbital Gradient      ...    8.7910e-07  Tolerance :   1.0000e-05
  Last Orbital Rotation      ...    9.3206e-07  Tolerance :   1.0000e-05

             **** THE GBW FILE WAS UPDATED (TZVPD_M062X_A_wt_dlpno_pos.gbw) ****
             **** DENSITY TZVPD_M062X_A_wt_dlpno_pos.scfp WAS UPDATED ****
             **** ENERGY FILE WAS UPDATED (TZVPD_M062X_A_wt_dlpno_pos.en.tmp) ****
             **** THE GBW FILE WAS UPDATED (TZVPD_M062X_A_wt_dlpno_pos.gbw) ****
             **** DENSITY TZVPD_M062X_A_wt_dlpno_pos.scfp WAS UPDATED ****
----------------
ORBITAL ENERGIES
----------------

  NO   OCC          E(Eh)            E(eV) 
   0   2.0000     -15.081046      -410.3761 
   1   2.0000     -10.791398      -293.6489 
   2   2.0000     -10.710292      -291.4419 
   3   2.0000      -1.323873       -36.0244 
   4   2.0000      -1.062048       -28.8998 
   5   2.0000      -0.929413       -25.2906 
   6   2.0000      -0.878987       -23.9184 
   7   2.0000      -0.862619       -23.4731 
   8   2.0000      -0.762844       -20.7580 
   9   2.0000      -0.713638       -19.4191 
  10   2.0000      -0.648568       -17.6484 
  11   2.0000      -0.630878       -17.1671 
  12   2.0000      -0.617216       -16.7953 
  13   0.0000      -0.177174        -4.8211 
  14   0.0000      -0.120580        -3.2812 
  15   0.0000      -0.120268        -3.2727 
  16   0.0000      -0.114193        -3.1074 
  17   0.0000      -0.082693        -2.2502 
  18   0.0000      -0.071683        -1.9506 
  19   0.0000      -0.063872        -1.7380 
  20   0.0000      -0.053231        -1.4485 
  21   0.0000      -0.037695        -1.0257 
  22   0.0000      -0.022524        -0.6129 
  23   0.0000      -0.017446        -0.4747 
  24   0.0000      -0.013852        -0.3769 
  25   0.0000       0.000682         0.0186 
  26   0.0000       0.018065         0.4916 
  27   0.0000       0.026795         0.7291 
  28   0.0000       0.028533         0.7764 
  29   0.0000       0.049738         1.3534 
  30   0.0000       0.060741         1.6529 
  31   0.0000       0.078043         2.1236 
  32   0.0000       0.083654         2.2763 
  33   0.0000       0.091285         2.4840 
  34   0.0000       0.101570         2.7639 
  35   0.0000       0.113145         3.0788 
  36   0.0000       0.117401         3.1946 
  37   0.0000       0.125136         3.4051 
  38   0.0000       0.126632         3.4458 
  39   0.0000       0.143599         3.9075 
  40   0.0000       0.150149         4.0858 
  41   0.0000       0.159989         4.3535 
  42   0.0000       0.163189         4.4406 
  43   0.0000       0.167307         4.5527 
  44   0.0000       0.172712         4.6997 
  45   0.0000       0.180097         4.9007 
  46   0.0000       0.198315         5.3964 
  47   0.0000       0.200546         5.4571 
  48   0.0000       0.225187         6.1277 
  49   0.0000       0.228711         6.2235 
  50   0.0000       0.239295         6.5115 
  51   0.0000       0.242736         6.6052 
  52   0.0000       0.253789         6.9059 
  53   0.0000       0.255816         6.9611 
  54   0.0000       0.264475         7.1967 
  55   0.0000       0.277580         7.5533 
  56   0.0000       0.281310         7.6548 
  57   0.0000       0.282672         7.6919 
  58   0.0000       0.296692         8.0734 
  59   0.0000       0.300442         8.1754 
  60   0.0000       0.327160         8.9025 
  61   0.0000       0.336053         9.1445 
  62   0.0000       0.356072         9.6892 
  63   0.0000       0.384973        10.4756 
  64   0.0000       0.413246        11.2450 
  65   0.0000       0.428453        11.6588 
  66   0.0000       0.454631        12.3711 
  67   0.0000       0.471255        12.8235 
  68   0.0000       0.482431        13.1276 
  69   0.0000       0.492485        13.4012 
  70   0.0000       0.507217        13.8021 
  71   0.0000       0.532382        14.4869 
  72   0.0000       0.544961        14.8292 
  73   0.0000       0.557273        15.1642 
  74   0.0000       0.576266        15.6810 
  75   0.0000       0.578102        15.7310 
  76   0.0000       0.585819        15.9410 
  77   0.0000       0.593599        16.1527 
  78   0.0000       0.614249        16.7146 
  79   0.0000       0.630489        17.1565 
  80   0.0000       0.634707        17.2713 
  81   0.0000       0.674163        18.3449 
  82   0.0000       0.711146        19.3513 
  83   0.0000       0.732699        19.9378 
  84   0.0000       0.762481        20.7482 
  85   0.0000       0.784413        21.3450 
  86   0.0000       0.806840        21.9552 
  87   0.0000       0.902518        24.5588 
  88   0.0000       0.912906        24.8414 
  89   0.0000       0.981327        26.7033 
  90   0.0000       1.001910        27.2633 
  91   0.0000       1.052040        28.6275 
  92   0.0000       1.072421        29.1821 
  93   0.0000       1.093178        29.7469 
  94   0.0000       1.158409        31.5219 
  95   0.0000       1.193652        32.4809 
  96   0.0000       1.256799        34.1992 
  97   0.0000       1.312919        35.7263 
  98   0.0000       1.334196        36.3053 
  99   0.0000       1.435001        39.0484 
 100   0.0000       1.439797        39.1789 
 101   0.0000       1.516050        41.2538 
 102   0.0000       1.595281        43.4098 
 103   0.0000       1.622151        44.1410 
 104   0.0000       1.633289        44.4441 
 105   0.0000       1.636447        44.5300 
 106   0.0000       1.649720        44.8912 
 107   0.0000       1.706538        46.4373 
 108   0.0000       1.720311        46.8121 
 109   0.0000       1.727229        47.0003 
 110   0.0000       1.734560        47.1998 
 111   0.0000       1.803687        49.0808 
 112   0.0000       1.842045        50.1246 
 113   0.0000       1.863705        50.7140 
 114   0.0000       1.903310        51.7917 
 115   0.0000       1.992915        54.2300 
 116   0.0000       2.021914        55.0191 
 117   0.0000       2.031810        55.2884 
 118   0.0000       2.064648        56.1819 
 119   0.0000       2.111347        57.4527 
 120   0.0000       2.201621        59.9091 
 121   0.0000       2.214080        60.2482 
 122   0.0000       2.234337        60.7994 
 123   0.0000       2.272610        61.8409 
 124   0.0000       2.324522        63.2535 
 125   0.0000       2.341738        63.7219 
 126   0.0000       2.364752        64.3482 
 127   0.0000       2.384752        64.8924 
 128   0.0000       2.449963        66.6669 
 129   0.0000       2.474843        67.3439 
 130   0.0000       2.501495        68.0691 
 131   0.0000       2.523529        68.6687 
 132   0.0000       2.563869        69.7664 
 133   0.0000       2.568745        69.8991 
 134   0.0000       2.586827        70.3911 
 135   0.0000       2.601240        70.7833 
 136   0.0000       2.647929        72.0538 
 137   0.0000       2.698601        73.4327 
 138   0.0000       2.724908        74.1485 
 139   0.0000       2.789701        75.9116 
 140   0.0000       2.848480        77.5111 
 141   0.0000       2.875375        78.2429 
 142   0.0000       2.958981        80.5180 
 143   0.0000       2.981307        81.1255 
 144   0.0000       3.006887        81.8216 
 145   0.0000       3.041188        82.7549 
 146   0.0000       3.095583        84.2351 
 147   0.0000       3.110771        84.6484 
 148   0.0000       3.154829        85.8473 
 149   0.0000       3.198284        87.0297 
 150   0.0000       3.215514        87.4986 
 151   0.0000       3.281526        89.2949 
 152   0.0000       3.302116        89.8551 
 153   0.0000       3.362139        91.4884 
 154   0.0000       3.459640        94.1416 
 155   0.0000       3.578300        97.3705 
 156   0.0000       3.594192        97.8029 
 157   0.0000       3.632359        98.8415 
 158   0.0000       3.717890       101.1689 
 159   0.0000       3.777526       102.7917 
 160   0.0000       3.846588       104.6710 
 161   0.0000       3.915639       106.5500 
 162   0.0000       4.030458       109.6743 
 163   0.0000       4.108057       111.7859 
 164   0.0000       4.154708       113.0554 
 165   0.0000       4.320816       117.5754 
 166   0.0000       4.337274       118.0232 
 167   0.0000       4.453450       121.1845 
 168   0.0000       4.506609       122.6311 
 169   0.0000       4.539322       123.5212 
 170   0.0000       4.621966       125.7701 
 171   0.0000       4.629860       125.9849 
 172   0.0000       4.684301       127.4663 
 173   0.0000       4.801508       130.6557 
 174   0.0000       4.857035       132.1666 
 175   0.0000       4.939773       134.4180 
 176   0.0000       5.080067       138.2357 
 177   0.0000       5.211894       141.8228 
 178   0.0000       5.287134       143.8702 
 179   0.0000       5.595216       152.2536 
 180   0.0000      22.429878       610.3480 
 181   0.0000      22.491845       612.0342 
 182   0.0000      32.061331       872.4332 

                    ********************************
                    * MULLIKEN POPULATION ANALYSIS *
                    ********************************

-----------------------
MULLIKEN ATOMIC CHARGES
-----------------------
   0 C :   -0.308583
   1 N :   -0.478497
   2 C :   -1.178239
   3 H :    0.397280
   4 H :    0.403829
   5 H :    0.384224
   6 H :    0.338962
   7 H :    0.345639
   8 H :    0.327531
   9 H :    0.380624
  10 H :    0.387232
Sum of atomic charges:    1.0000000

--------------------------------
MULLIKEN REDUCED ORBITAL CHARGES
--------------------------------
  0 C s       :     3.339198  s :     3.339198
      pz      :     0.839276  p :     2.991103
      px      :     1.011836
      py      :     1.139991
      dz2     :    -0.016850  d :    -0.028449
      dxz     :    -0.007489
      dyz     :     0.022441
      dx2y2   :    -0.005749
      dxy     :    -0.020803
      f0      :     0.000862  f :     0.006731
      f+1     :     0.001113
      f-1     :     0.001038
      f+2     :     0.001413
      f-2     :     0.001060
      f+3     :     0.000672
      f-3     :     0.000572
  1 N s       :     3.502514  s :     3.502514
      pz      :     1.281186  p :     3.910106
      px      :     1.310843
      py      :     1.318076
      dz2     :     0.014799  d :     0.063987
      dxz     :     0.004555
      dyz     :     0.023037
      dx2y2   :     0.016087
      dxy     :     0.005508
      f0      :     0.000279  f :     0.001891
      f+1     :     0.000209
      f-1     :     0.000128
      f+2     :     0.000614
      f-2     :     0.000419
      f+3     :     0.000084
      f-3     :     0.000158
  2 C s       :     3.488870  s :     3.488870
      pz      :     1.208202  p :     3.637269
      px      :     1.361669
      py      :     1.067398
      dz2     :    -0.017232  d :     0.048971
      dxz     :     0.021827
      dyz     :     0.022654
      dx2y2   :     0.029110
      dxy     :    -0.007388
      f0      :     0.000245  f :     0.003129
      f+1     :     0.000296
      f-1     :     0.000599
      f+2     :     0.000968
      f-2     :     0.000382
      f+3     :     0.000234
      f-3     :     0.000405
  3 H s       :     0.560130  s :     0.560130
      pz      :     0.014331  p :     0.042590
      px      :     0.009543
      py      :     0.018716
  4 H s       :     0.553683  s :     0.553683
      pz      :     0.010969  p :     0.042489
      px      :     0.022187
      py      :     0.009332
  5 H s       :     0.570068  s :     0.570068
      pz      :     0.011680  p :     0.045707
      px      :     0.008032
      py      :     0.025996
  6 H s       :     0.612623  s :     0.612623
      pz      :     0.015980  p :     0.048415
      px      :     0.009313
      py      :     0.023122
  7 H s       :     0.602146  s :     0.602146
      pz      :     0.011147  p :     0.052215
      px      :     0.025661
      py      :     0.015407
  8 H s       :     0.592740  s :     0.592740
      pz      :     0.035459  p :     0.079729
      px      :     0.027182
      py      :     0.017088
  9 H s       :     0.554007  s :     0.554007
      pz      :     0.006272  p :     0.065369
      px      :     0.031719
      py      :     0.027378
 10 H s       :     0.549463  s :     0.549463
      pz      :     0.024958  p :     0.063306
      px      :     0.026163
      py      :     0.012185


                     *******************************
                     * LOEWDIN POPULATION ANALYSIS *
                     *******************************

----------------------
LOEWDIN ATOMIC CHARGES
----------------------
   0 C :   -0.199169
   1 N :    0.177051
   2 C :   -0.056335
   3 H :    0.180668
   4 H :    0.181901
   5 H :    0.183437
   6 H :    0.135662
   7 H :    0.135621
   8 H :    0.093820
   9 H :    0.083718
  10 H :    0.083627

-------------------------------
LOEWDIN REDUCED ORBITAL CHARGES
-------------------------------
  0 C s       :     2.687976  s :     2.687976
      pz      :     0.839616  p :     2.715822
      px      :     0.894003
      py      :     0.982202
      dz2     :     0.150870  d :     0.744011
      dxz     :     0.170095
      dyz     :     0.167168
      dx2y2   :     0.174167
      dxy     :     0.081712
      f0      :     0.008479  f :     0.051361
      f+1     :     0.009556
      f-1     :     0.006446
      f+2     :     0.008847
      f-2     :     0.008029
      f+3     :     0.005077
      f-3     :     0.004927
  1 N s       :     2.910500  s :     2.910500
      pz      :     1.163238  p :     3.496333
      px      :     1.177368
      py      :     1.155728
      dz2     :     0.084984  d :     0.405956
      dxz     :     0.079612
      dyz     :     0.123244
      dx2y2   :     0.075149
      dxy     :     0.042967
      f0      :     0.002680  f :     0.010160
      f+1     :     0.001320
      f-1     :     0.000793
      f+2     :     0.001512
      f-2     :     0.001772
      f+3     :     0.000890
      f-3     :     0.001193
  2 C s       :     2.726113  s :     2.726113
      pz      :     0.961268  p :     2.895600
      px      :     0.985856
      py      :     0.948476
      dz2     :     0.059169  d :     0.407838
      dxz     :     0.089531
      dyz     :     0.097288
      dx2y2   :     0.117468
      dxy     :     0.044382
      f0      :     0.003697  f :     0.026784
      f+1     :     0.002898
      f-1     :     0.004502
      f+2     :     0.005234
      f-2     :     0.003317
      f+3     :     0.003398
      f-3     :     0.003738
  3 H s       :     0.595041  s :     0.595041
      pz      :     0.081165  p :     0.224291
      px      :     0.057581
      py      :     0.085545
  4 H s       :     0.587562  s :     0.587562
      pz      :     0.067681  p :     0.230537
      px      :     0.107488
      py      :     0.055369
  5 H s       :     0.590795  s :     0.590795
      pz      :     0.070936  p :     0.225769
      px      :     0.049702
      py      :     0.105131
  6 H s       :     0.675335  s :     0.675335
      pz      :     0.056137  p :     0.189002
      px      :     0.045262
      py      :     0.087603
  7 H s       :     0.678474  s :     0.678474
      pz      :     0.047601  p :     0.185904
      px      :     0.088632
      py      :     0.049672
  8 H s       :     0.691515  s :     0.691515
      pz      :     0.084884  p :     0.214665
      px      :     0.078220
      py      :     0.051562
  9 H s       :     0.699828  s :     0.699828
      pz      :     0.071013  p :     0.216453
      px      :     0.056435
      py      :     0.089006
 10 H s       :     0.699722  s :     0.699722
      pz      :     0.060641  p :     0.216652
      px      :     0.102034
      py      :     0.053977


                      *****************************
                      * MAYER POPULATION ANALYSIS *
                      *****************************

  NA   - Mulliken gross atomic population
  ZA   - Total nuclear charge
  QA   - Mulliken gross atomic charge
  VA   - Mayer's total valence
  BVA  - Mayer's bonded valence
  FA   - Mayer's free valence

  ATOM       NA         ZA         QA         VA         BVA        FA
  0 C      6.3086     6.0000    -0.3086     2.9168     2.9168    -0.0000
  1 N      7.4785     7.0000    -0.4785     3.3829     3.3829     0.0000
  2 C      7.1782     6.0000    -1.1782     3.3506     3.3506     0.0000
  3 H      0.6027     1.0000     0.3973     0.8467     0.8467     0.0000
  4 H      0.5962     1.0000     0.4038     0.8369     0.8369     0.0000
  5 H      0.6158     1.0000     0.3842     0.8739     0.8739     0.0000
  6 H      0.6610     1.0000     0.3390     0.9526     0.9526     0.0000
  7 H      0.6544     1.0000     0.3456     0.9495     0.9495    -0.0000
  8 H      0.6725     1.0000     0.3275     1.0538     1.0538     0.0000
  9 H      0.6194     1.0000     0.3806     0.9814     0.9814     0.0000
 10 H      0.6128     1.0000     0.3872     0.9827     0.9827     0.0000

  Mayer bond orders larger than 0.100000
B(  0-C ,  1-N ) :   0.8026 B(  0-C ,  2-C ) :   0.5099 B(  0-C ,  6-H ) :   0.9283 
B(  0-C ,  7-H ) :   0.9185 B(  1-N ,  3-H ) :   0.8436 B(  1-N ,  4-H ) :   0.8405 
B(  1-N ,  5-H ) :   0.8491 B(  2-C ,  8-H ) :   0.9947 B(  2-C ,  9-H ) :   0.9052 
B(  2-C , 10-H ) :   0.9018 

-------
TIMINGS
-------

Total SCF time: 0 days 0 hours 0 min 16 sec 

Total time                  ....      16.083 sec
Sum of individual times     ....      15.872 sec  ( 98.7%)

Fock matrix formation       ....      14.976 sec  ( 93.1%)
  Split-RI-J                ....       0.794 sec  (  5.3% of F)
  Chain of spheres X        ....       8.856 sec  ( 59.1% of F)
  XC integration            ....       5.291 sec  ( 35.3% of F)
    Basis function eval.    ....       0.734 sec  ( 13.9% of XC)
    Density eval.           ....       1.568 sec  ( 29.6% of XC)
    XC-Functional eval.     ....       0.282 sec  (  5.3% of XC)
    XC-Potential eval.      ....       2.431 sec  ( 45.9% of XC)
Diagonalization             ....       0.054 sec  (  0.3%)
Density matrix formation    ....       0.005 sec  (  0.0%)
Population analysis         ....       0.008 sec  (  0.1%)
Initial guess               ....       0.126 sec  (  0.8%)
Orbital Transformation      ....       0.000 sec  (  0.0%)
Orbital Orthonormalization  ....       0.000 sec  (  0.0%)
DIIS solution               ....       0.030 sec  (  0.2%)
SOSCF solution              ....       0.030 sec  (  0.2%)
Grid generation             ....       0.644 sec  (  4.0%)

Maximum memory used throughout the entire SCF-calculation: 66.6 MB


-------------------------------------------------------------------------------
                          DFT DISPERSION CORRECTION                            
                                                                               
                              DFTD3 V3.1  Rev 1                                
                              USING zero damping                               
-------------------------------------------------------------------------------
The M062X functional is recognized
Active option DFTDOPT                   ...         3   

molecular C6(AA) [au] = 702.298690 


            DFT-D V3
 parameters
 s6 scaling factor         :     1.0000 
 rs6 scaling factor        :     1.6190 
 s8 scaling factor         :     0.0000 
 rs8 scaling factor        :     1.0000 
 Damping factor alpha6     :    14.0000 
 Damping factor alpha8     :    16.0000 
 ad hoc parameters k1-k3   :    16.0000     1.3333    -4.0000 

 Edisp/kcal,au: -0.033163424364  -0.000052849275 
 E6   /kcal   :  -0.033163424 
 E8   /kcal   :  -0.000000000 
 % E8         :   0.000000000 

-------------------------   ----------------
Dispersion correction           -0.000052849
-------------------------   ----------------


-------------------------   --------------------
FINAL SINGLE POINT ENERGY      -135.508611176009
-------------------------   --------------------


                            ***************************************
                            *     ORCA property calculations      *
                            ***************************************

                                    ---------------------
                                    Active property flags
                                    ---------------------
   (+) Dipole Moment


------------------------------------------------------------------------------
                       ORCA ELECTRIC PROPERTIES CALCULATION
------------------------------------------------------------------------------

Dipole Moment Calculation                       ... on
Quadrupole Moment Calculation                   ... off
Polarizability Calculation                      ... off
GBWName                                         ... TZVPD_M062X_A_wt_dlpno_pos.gbw
Electron density file                           ... TZVPD_M062X_A_wt_dlpno_pos.scfp
The origin for moment calculation is the CENTER OF MASS  = ( 1.679576,  1.493630 -5.066434)

-------------
DIPOLE MOMENT
-------------
                                X             Y             Z
Electronic contribution:     -0.33629      -0.93775       1.55062
Nuclear contribution   :     -0.20470       0.31427      -0.31587
                        -----------------------------------------
Total Dipole Moment    :     -0.54099      -0.62349       1.23475
                        -----------------------------------------
Magnitude (a.u.)       :      1.48527
Magnitude (Debye)      :      3.77525



--------------------
Rotational spectrum 
--------------------
 
Rotational constants in cm-1:     1.011480     0.279280     0.248378 
Rotational constants in MHz : 30323.408050  8372.602834  7446.185305 

 Dipole components along the rotational axes: 
x,y,z [a.u.] :     1.463301     0.253180     0.025827 
x,y,z [Debye]:     3.719416     0.643532     0.065648 

 

Timings for individual modules:

Sum of individual times         ...       20.475 sec (=   0.341 min)
GTO integral calculation        ...        2.577 sec (=   0.043 min)  12.6 %
SCF iterations                  ...       17.898 sec (=   0.298 min)  87.4 %
                             ****ORCA TERMINATED NORMALLY****
TOTAL RUN TIME: 0 days 0 hours 0 minutes 21 seconds 17 msec
