
                                        *****************
                                        * O   R   C   A *
                                        *****************

                                            #,                                       
                                            ###                                      
                                            ####                                     
                                            #####                                    
                                            ######                                   
                                           ########,                                 
                                     ,,################,,,,,                         
                               ,,#################################,,                 
                          ,,##########################################,,             
                       ,#########################################, ''#####,          
                    ,#############################################,,   '####,        
                  ,##################################################,,,,####,       
                ,###########''''           ''''###############################       
              ,#####''   ,,,,##########,,,,          '''####'''          '####       
            ,##' ,,,,###########################,,,                        '##       
           ' ,,###''''                  '''############,,,                           
         ,,##''                                '''############,,,,        ,,,,,,###''
      ,#''                                            '''#######################'''  
     '                                                          ''''####''''         
             ,#######,   #######,   ,#######,      ##                                
            ,#'     '#,  ##    ##  ,#'     '#,    #''#        ######   ,####,        
            ##       ##  ##   ,#'  ##            #'  '#       #        #'  '#        
            ##       ##  #######   ##           ,######,      #####,   #    #        
            '#,     ,#'  ##    ##  '#,     ,#' ,#      #,         ##   #,  ,#        
             '#######'   ##     ##  '#######'  #'      '#     #####' # '####'        



                  #######################################################
                  #                        -***-                        #
                  #          Department of theory and spectroscopy      #
                  #    Directorship and core code : Frank Neese         #
                  #        Max Planck Institute fuer Kohlenforschung    #
                  #                Kaiser Wilhelm Platz 1               #
                  #                 D-45470 Muelheim/Ruhr               #
                  #                      Germany                        #
                  #                                                     #
                  #                  All rights reserved                #
                  #                        -***-                        #
                  #######################################################


                         Program Version 5.0.0 -  RELEASE  -
                                (SVN: $Rev: 19529$)
                ($Date: 2021-06-28 11:36:33 +0200 (Mo, 28 Jun 2021) $)


 With contributions from (in alphabetic order):
   Daniel Aravena         : Magnetic Suceptibility
   Michael Atanasov       : Ab Initio Ligand Field Theory (pilot matlab implementation)
   Alexander A. Auer      : GIAO ZORA, VPT2 properties, NMR spectrum
   Ute Becker             : Parallelization
   Giovanni Bistoni       : ED, misc. LED, open-shell LED, HFLD
   Martin Brehm           : Molecular dynamics
   Dmytro Bykov           : SCF Hessian
   Vijay G. Chilkuri      : MRCI spin determinant printing, contributions to CSF-ICE
   Dipayan Datta          : RHF DLPNO-CCSD density
   Achintya Kumar Dutta   : EOM-CC, STEOM-CC
   Dmitry Ganyushin       : Spin-Orbit,Spin-Spin,Magnetic field MRCI
   Miquel Garcia          : C-PCM Hessian, Gaussian charge scheme
   Yang Guo               : DLPNO-NEVPT2, F12-NEVPT2, CIM, IAO-localization
   Andreas Hansen         : Spin unrestricted coupled pair/coupled cluster methods
   Benjamin Helmich-Paris : MC-RPA, TRAH-SCF, COSX integrals
   Lee Huntington         : MR-EOM, pCC
   Robert Izsak           : Overlap fitted RIJCOSX, COSX-SCS-MP3, EOM
   Marcus Kettner         : VPT2
   Christian Kollmar      : KDIIS, OOCD, Brueckner-CCSD(T), CCSD density, CASPT2, CASPT2-K
   Simone Kossmann        : Meta GGA functionals, TD-DFT gradient, OOMP2, MP2 Hessian
   Martin Krupicka        : Initial AUTO-CI
   Lucas Lang             : DCDCAS
   Marvin Lechner         : AUTO-CI (C++ implementation), FIC-MRCC
   Dagmar Lenk            : GEPOL surface, SMD
   Dimitrios Liakos       : Extrapolation schemes; Compound Job, initial MDCI parallelization
   Dimitrios Manganas     : Further ROCIS development; embedding schemes
   Dimitrios Pantazis     : SARC Basis sets
   Anastasios Papadopoulos: AUTO-CI, single reference methods and gradients
   Taras Petrenko         : DFT Hessian,TD-DFT gradient, ASA, ECA, R-Raman, ABS, FL, XAS/XES, NRVS
   Peter Pinski           : DLPNO-MP2, DLPNO-MP2 Gradient
   Christoph Reimann      : Effective Core Potentials
   Marius Retegan         : Local ZFS, SOC
   Christoph Riplinger    : Optimizer, TS searches, QM/MM, DLPNO-CCSD(T), (RO)-DLPNO pert. Triples
   Tobias Risthaus        : Range-separated hybrids, TD-DFT gradient, RPA, STAB
   Michael Roemelt        : Original ROCIS implementation
   Masaaki Saitow         : Open-shell DLPNO-CCSD energy and density
   Barbara Sandhoefer     : DKH picture change effects
   Avijit Sen             : IP-ROCIS
   Kantharuban Sivalingam : CASSCF convergence, NEVPT2, FIC-MRCI
   Bernardo de Souza      : ESD, SOC TD-DFT
   Georgi Stoychev        : AutoAux, RI-MP2 NMR
   Willem Van den Heuvel  : Paramagnetic NMR
   Boris Wezisla          : Elementary symmetry handling
   Frank Wennmohs         : Technical directorship


 We gratefully acknowledge several colleagues who have allowed us to
 interface, adapt or use parts of their codes:
   Stefan Grimme, W. Hujo, H. Kruse, P. Pracht,  : VdW corrections, initial TS optimization,
                  C. Bannwarth, S. Ehlert          DFT functionals, gCP, sTDA/sTD-DF
   Ed Valeev, F. Pavosevic, A. Kumar             : LibInt (2-el integral package), F12 methods
   Garnet Chan, S. Sharma, J. Yang, R. Olivares  : DMRG
   Ulf Ekstrom                                   : XCFun DFT Library
   Mihaly Kallay                                 : mrcc  (arbitrary order and MRCC methods)
   Jiri Pittner, Ondrej Demel                    : Mk-CCSD
   Frank Weinhold                                : gennbo (NPA and NBO analysis)
   Christopher J. Cramer and Donald G. Truhlar   : smd solvation model
   Lars Goerigk                                  : TD-DFT with DH, B97 family of functionals
   V. Asgeirsson, H. Jonsson                     : NEB implementation
   FAccTs GmbH                                   : IRC, NEB, NEB-TS, DLPNO-Multilevel, CI-OPT
                                                   MM, QMMM, 2- and 3-layer-ONIOM, Crystal-QMMM,
                                                   LR-CPCM, SF, NACMEs, symmetry and pop. for TD-DFT,
                                                   nearIR, NL-DFT gradient (VV10), updates on ESD,
                                                   ML-optimized integration grids
   S Lehtola, MJT Oliveira, MAL Marques          : LibXC Library
   Liviu Ungur et al                             : ANISO software


 Your calculation uses the libint2 library for the computation of 2-el integrals
 For citations please refer to: http://libint.valeyev.net

 Your ORCA version has been built with support for libXC version: 5.1.0
 For citations please refer to: https://tddft.org/programs/libxc/

 This ORCA versions uses:
   CBLAS   interface :  Fast vector & matrix operations
   LAPACKE interface :  Fast linear algebra routines
   SCALAPACK package :  Parallel linear algebra routines
   Shared memory     :  Shared parallel matrices
   BLAS/LAPACK       :  OpenBLAS 0.3.15  USE64BITINT DYNAMIC_ARCH NO_AFFINITY Haswell SINGLE_THREADED
        Core in use  :  Haswell
   Copyright (c) 2011-2014, The OpenBLAS Project


Your calculation utilizes the atom-pairwise dispersion correction
with the Becke-Johnson damping scheme (D3BJ)
Cite in your paper:
S.Grimme, S.Ehrlich, L.Goerigk, J Comput Chem, (2011), 32, 1456–1465 
S.Grimme, J.Antony, S.Ehrlich and H.Krieg, J.Chem.Phys., 132, (2010), 154104 
   

================================================================================

----- Orbital basis set information -----
Your calculation utilizes the basis: def2-SVPD
   F. Weigend and R. Ahlrichs, Phys. Chem. Chem. Phys. 7, 3297 (2005).
   D. Rappoport and F. Furche, J. Chem. Phys. 133 134105 (2010).

----- AuxJ basis set information -----
Your calculation utilizes the auxiliary basis: def2/J
   F. Weigend, Phys. Chem. Chem. Phys. 8, 1057 (2006).

================================================================================
                                        WARNINGS
                       Please study these warnings very carefully!
================================================================================



WARNING: Found flag for RIJCOSX approximation but no HF exchange needed!
  ===> : RIJCOSX  will be disabled and Split-RI-J is turned on

INFO   : the flag for use of the SHARK integral package has been found!

================================================================================
                                       INPUT FILE
================================================================================
NAME = SVPD_PBE_C2_wt_dlpno_pos.com
|  1> !PBE D3BJ RIJCOSX def2-SVPD def2/J TightSCF
|  2> *xyz 0 1
|  3> C          1.64703       -2.34528       -5.02041
|  4> C          2.20996       -2.81239       -3.66571
|  5> C          2.48901       -1.66851       -2.73754
|  6> N          3.59631       -0.94761       -2.95225
|  7> C          1.66394       -1.41369       -1.77781
|  8> H          0.81164       -1.96318       -1.70275
|  9> H          1.84550       -0.63508       -1.15875
| 10> H          4.20535       -1.17600       -3.73383
| 11> H          3.81723       -0.12585       -2.40604
| 12> H          3.14311       -3.36280       -3.81152
| 13> H          1.48768       -3.45893       -3.16521
| 14> H          1.46566       -3.19589       -5.64368
| 15> H          2.35406       -1.69850       -5.49654
| 16> H          0.73014       -1.81680       -4.86253
| 17> *
| 18> 
| 19> %MaxCore 64000
| 20> %pal nprocs 4
| 21> end  
| 22> 
| 23> %scf
| 24>   MaxIter 150
| 25> end
| 26> 
| 27> 
| 28>                          ****END OF INPUT****
================================================================================

                       ****************************
                       * Single Point Calculation *
                       ****************************

---------------------------------
CARTESIAN COORDINATES (ANGSTROEM)
---------------------------------
  C      1.647030   -2.345280   -5.020410
  C      2.209960   -2.812390   -3.665710
  C      2.489010   -1.668510   -2.737540
  N      3.596310   -0.947610   -2.952250
  C      1.663940   -1.413690   -1.777810
  H      0.811640   -1.963180   -1.702750
  H      1.845500   -0.635080   -1.158750
  H      4.205350   -1.176000   -3.733830
  H      3.817230   -0.125850   -2.406040
  H      3.143110   -3.362800   -3.811520
  H      1.487680   -3.458930   -3.165210
  H      1.465660   -3.195890   -5.643680
  H      2.354060   -1.698500   -5.496540
  H      0.730140   -1.816800   -4.862530

----------------------------
CARTESIAN COORDINATES (A.U.)
----------------------------
  NO LB      ZA    FRAG     MASS         X           Y           Z
   0 C     6.0000    0    12.011    3.112436   -4.431937   -9.487200
   1 C     6.0000    0    12.011    4.176219   -5.314647   -6.927188
   2 C     6.0000    0    12.011    4.703547   -3.153027   -5.173201
   3 N     7.0000    0    14.007    6.796041   -1.790723   -5.578944
   4 C     6.0000    0    12.011    3.144391   -2.671487   -3.359574
   5 H     1.0000    0     1.008    1.533777   -3.709873   -3.217731
   6 H     1.0000    0     1.008    3.487490   -1.200127   -2.189720
   7 H     1.0000    0     1.008    7.946960   -2.222318   -7.055916
   8 H     1.0000    0     1.008    7.213519   -0.237822   -4.546757
   9 H     1.0000    0     1.008    5.939617   -6.354771   -7.202729
  10 H     1.0000    0     1.008    2.811308   -6.536430   -5.981380
  11 H     1.0000    0     1.008    2.769696   -6.039357  -10.665010
  12 H     1.0000    0     1.008    4.448529   -3.209700  -10.386955
  13 H     1.0000    0     1.008    1.379765   -3.433254   -9.188850

--------------------------------
INTERNAL COORDINATES (ANGSTROEM)
--------------------------------
 C      0   0   0     0.000000000000     0.00000000     0.00000000
 C      1   0   0     1.539575924403     0.00000000     0.00000000
 C      2   1   0     1.499276460764   112.41487602     0.00000000
 N      3   2   1     1.338622607048   117.74534069   282.67999189
 C      3   2   1     1.291028818501   119.46262227   102.41240062
 H      5   3   2     1.016852277226   118.93875800   356.56161909
 H      5   3   2     1.011154216378   119.49556415   180.77765573
 H      4   3   2     1.016837750135   119.85311119     0.99564669
 H      4   3   2     1.011158003529   122.12376033   175.86157171
 H      2   1   3     1.093151703425   110.33565258   239.46838079
 H      2   1   3     1.090964078235   109.96279536   119.02208714
 H      1   2   3     1.069999038271   109.47118841   179.99977864
 H      1   2   3     1.070007273901   109.47133769    59.99982829
 H      1   2   3     1.070002092007   109.47146625   300.00005003

---------------------------
INTERNAL COORDINATES (A.U.)
---------------------------
 C      0   0   0     0.000000000000     0.00000000     0.00000000
 C      1   0   0     2.909376859499     0.00000000     0.00000000
 C      2   1   0     2.833221909878   112.41487602     0.00000000
 N      3   2   1     2.529630123996   117.74534069   282.67999189
 C      3   2   1     2.439690897967   119.46262227   102.41240062
 H      5   3   2     1.921572322612   118.93875800   356.56161909
 H      5   3   2     1.910804548115   119.49556415   180.77765573
 H      4   3   2     1.921544870388   119.85311119     0.99564669
 H      4   3   2     1.910811704792   122.12376033   175.86157171
 H      2   1   3     2.065757342302   110.33565258   239.46838079
 H      2   1   3     2.061623329811   109.96279536   119.02208714
 H      1   2   3     2.022005145891   109.47118841   179.99977864
 H      1   2   3     2.022020708976   109.47133769    59.99982829
 H      1   2   3     2.022010916617   109.47146625   300.00005003

---------------------
BASIS SET INFORMATION
---------------------
There are 3 groups of distinct atoms

 Group   1 Type C   : 8s4p2d contracted to 4s2p2d pattern {5111/31/11}
 Group   2 Type N   : 8s4p2d contracted to 4s2p2d pattern {5111/31/11}
 Group   3 Type H   : 4s2p contracted to 2s2p pattern {31/11}

Atom   0C    basis set group =>   1
Atom   1C    basis set group =>   1
Atom   2C    basis set group =>   1
Atom   3N    basis set group =>   2
Atom   4C    basis set group =>   1
Atom   5H    basis set group =>   3
Atom   6H    basis set group =>   3
Atom   7H    basis set group =>   3
Atom   8H    basis set group =>   3
Atom   9H    basis set group =>   3
Atom  10H    basis set group =>   3
Atom  11H    basis set group =>   3
Atom  12H    basis set group =>   3
Atom  13H    basis set group =>   3
---------------------------------
AUXILIARY/J BASIS SET INFORMATION
---------------------------------
There are 3 groups of distinct atoms

 Group   1 Type C   : 12s5p4d2f1g contracted to 6s4p3d1f1g pattern {711111/2111/211/2/1}
 Group   2 Type N   : 12s5p4d2f1g contracted to 6s4p3d1f1g pattern {711111/2111/211/2/1}
 Group   3 Type H   : 5s2p1d contracted to 3s1p1d pattern {311/2/1}

Atom   0C    basis set group =>   1
Atom   1C    basis set group =>   1
Atom   2C    basis set group =>   1
Atom   3N    basis set group =>   2
Atom   4C    basis set group =>   1
Atom   5H    basis set group =>   3
Atom   6H    basis set group =>   3
Atom   7H    basis set group =>   3
Atom   8H    basis set group =>   3
Atom   9H    basis set group =>   3
Atom  10H    basis set group =>   3
Atom  11H    basis set group =>   3
Atom  12H    basis set group =>   3
Atom  13H    basis set group =>   3


           ************************************************************
           *        Program running with 4 parallel MPI-processes     *
           *              working on a common directory               *
           ************************************************************
------------------------------------------------------------------------------
                           ORCA GTO INTEGRAL CALCULATION
                           -- RI-GTO INTEGRALS CHOSEN --
------------------------------------------------------------------------------
------------------------------------------------------------------------------
                   ___                                                        
                  /   \      - P O W E R E D   B Y -                         
                 /     \                                                     
                 |  |  |   _    _      __       _____    __    __             
                 |  |  |  | |  | |    /  \     |  _  \  |  |  /  |          
                  \  \/   | |  | |   /    \    | | | |  |  | /  /          
                 / \  \   | |__| |  /  /\  \   | |_| |  |  |/  /          
                |  |  |   |  __  | /  /__\  \  |    /   |      \           
                |  |  |   | |  | | |   __   |  |    \   |  |\   \          
                \     /   | |  | | |  |  |  |  | |\  \  |  | \   \       
                 \___/    |_|  |_| |__|  |__|  |_| \__\ |__|  \__/        
                                                                              
                      - O R C A' S   B I G   F R I E N D -                    
                                      &                                       
                       - I N T E G R A L  F E E D E R -                       
                                                                              
 v1 FN, 2020, v2 2021                                                         
------------------------------------------------------------------------------


Reading SHARK input file SVPD_PBE_C2_wt_dlpno_pos.SHARKINP.tmp ... ok
----------------------
SHARK INTEGRAL PACKAGE
----------------------

Number of atoms                             ...     14
Number of basis functions                   ...    172
Number of shells                            ...     76
Maximum angular momentum                    ...      2
Integral batch strategy                     ... SHARK/LIBINT Hybrid
RI-J (if used) integral strategy            ... SPLIT-RIJ (Revised 2003 algorithm where possible)
Printlevel                                  ...      1
Contraction scheme used                     ... SEGMENTED contraction
Coulomb Range Separation                    ... NOT USED
Exchange Range Separation                   ... NOT USED
Finite Nucleus Model                        ... NOT USED
Auxiliary Coulomb fitting basis             ... AVAILABLE
   # of basis functions in Aux-J            ...    344
   # of shells in Aux-J                     ...    120
   Maximum angular momentum in Aux-J        ...      4
Auxiliary J/K fitting basis                 ... NOT available
Auxiliary Correlation fitting basis         ... NOT available
Auxiliary 'external' fitting basis          ... NOT available
Integral threshold                          ...     2.500000e-11
Primitive cut-off                           ...     2.500000e-12
Primitive pair pre-selection threshold      ...     2.500000e-12

Calculating pre-screening integrals         ... done (  0.0 sec) Dimension = 76
Organizing shell pair data                  ... done (  0.0 sec)
Shell pair information
Total number of shell pairs                 ...      2926
Shell pairs after pre-screening             ...      2911
Total number of primitive shell pairs       ...      7842
Primitive shell pairs kept                  ...      6668
          la=0 lb=0:    734 shell pairs
          la=1 lb=0:   1058 shell pairs
          la=1 lb=1:    404 shell pairs
          la=2 lb=0:    380 shell pairs
          la=2 lb=1:    280 shell pairs
          la=2 lb=2:     55 shell pairs

Calculating one electron integrals          ... done (  0.0 sec)
Calculating RI/J V-Matrix + Cholesky decomp.... done (  0.0 sec)
Calculating Nuclear repulsion               ... done (  0.0 sec) ENN=    181.353421613082 Eh

SHARK setup successfully completed in   0.2 seconds

Maximum memory used throughout the entire GTOINT-calculation: 8.9 MB


           ************************************************************
           *        Program running with 4 parallel MPI-processes     *
           *              working on a common directory               *
           ************************************************************
-------------------------------------------------------------------------------
                                 ORCA SCF
-------------------------------------------------------------------------------

------------
SCF SETTINGS
------------
Hamiltonian:
 Density Functional     Method          .... DFT(GTOs)
 Exchange Functional    Exchange        .... PBE
   PBE kappa parameter   XKappa         ....  0.804000
   PBE mue parameter    XMuePBE         ....  0.219520
 Correlation Functional Correlation     .... PBE
   PBE beta parameter  CBetaPBE         ....  0.066725
 LDA part of GGA corr.  LDAOpt          .... PW91-LDA
 Gradients option       PostSCFGGA      .... off
   Density functional embedding theory  .... OFF
   NL short-range parameter             ....  6.400000
 RI-approximation to the Coulomb term is turned on
   Number of AuxJ basis functions       .... 344


General Settings:
 Integral files         IntName         .... SVPD_PBE_C2_wt_dlpno_pos
 Hartree-Fock type      HFTyp           .... RHF
 Total Charge           Charge          ....    0
 Multiplicity           Mult            ....    1
 Number of Electrons    NEL             ....   40
 Basis Dimension        Dim             ....  172
 Nuclear Repulsion      ENuc            ....    181.3534216131 Eh

Convergence Acceleration:
 DIIS                   CNVDIIS         .... on
   Start iteration      DIISMaxIt       ....    12
   Startup error        DIISStart       ....  0.200000
   # of expansion vecs  DIISMaxEq       ....     5
   Bias factor          DIISBfac        ....   1.050
   Max. coefficient     DIISMaxC        ....  10.000
 Trust-Rad. Augm. Hess. CNVTRAH         .... auto
   Auto Start mean grad. ratio tolernc. ....  1.125000
   Auto Start start iteration           ....    20
   Auto Start num. interpolation iter.  ....    10
   Max. Number of Micro iterations      ....    16
   Max. Number of Macro iterations      .... Maxiter - #DIIS iter
   Number of Davidson start vectors     ....     2
   Converg. threshold I  (grad. norm)   ....   1.000e-05
   Converg. threshold II (energy diff.) ....   1.000e-08
   Grad. Scal. Fac. for Micro threshold ....   0.100
   Minimum threshold for Micro iter.    ....   0.010
   NR start threshold (gradient norm)   ....   0.001
   Initial trust radius                 ....   0.400
   Minimum AH scaling param. (alpha)    ....   1.000
   Maximum AH scaling param. (alpha)    .... 1000.000
   Orbital update algorithm             .... Taylor
   White noise on init. David. guess    .... on
   Maximum white noise                  ....   0.010
   Quad. conv. algorithm                .... NR
 SOSCF                  CNVSOSCF        .... on
   Start iteration      SOSCFMaxIt      ....   150
   Startup grad/error   SOSCFStart      ....  0.003300
 Level Shifting         CNVShift        .... on
   Level shift para.    LevelShift      ....    0.2500
   Turn off err/grad.   ShiftErr        ....    0.0010
 Zerner damping         CNVZerner       .... off
 Static damping         CNVDamp         .... on
   Fraction old density DampFac         ....    0.7000
   Max. Damping (<1)    DampMax         ....    0.9800
   Min. Damping (>=0)   DampMin         ....    0.0000
   Turn off err/grad.   DampErr         ....    0.1000
 Fernandez-Rico         CNVRico         .... off

SCF Procedure:
 Maximum # iterations   MaxIter         ....   150
 SCF integral mode      SCFMode         .... Direct
   Integral package                     .... SHARK and LIBINT hybrid scheme
 Reset frequency        DirectResetFreq ....    20
 Integral Threshold     Thresh          ....  2.500e-11 Eh
 Primitive CutOff       TCut            ....  2.500e-12 Eh

Convergence Tolerance:
 Convergence Check Mode ConvCheckMode   .... Total+1el-Energy
 Convergence forced     ConvForced      .... 0
 Energy Change          TolE            ....  1.000e-08 Eh
 1-El. energy change                    ....  1.000e-05 Eh
 Orbital Gradient       TolG            ....  1.000e-05
 Orbital Rotation angle TolX            ....  1.000e-05
 DIIS Error             TolErr          ....  5.000e-07


Diagonalization of the overlap matrix:
Smallest eigenvalue                        ... 6.423e-05
Time for diagonalization                   ...    0.007 sec
Threshold for overlap eigenvalues          ... 1.000e-08
Number of eigenvalues below threshold      ... 0
Time for construction of square roots      ...    0.006 sec
Total time needed                          ...    0.013 sec

Time for model grid setup =    0.082 sec

------------------------------
INITIAL GUESS: MODEL POTENTIAL
------------------------------
Loading Hartree-Fock densities                     ... done
Calculating cut-offs                               ... done
Initializing the effective Hamiltonian             ... done
Setting up the integral package (SHARK)            ... done
Starting the Coulomb interaction                   ... done (   0.0 sec)
Reading the grid                                   ... done
Mapping shells                                     ... done
Starting the XC term evaluation                    ... done (   0.1 sec)
  promolecular density results
     # of electrons  =     39.999399916
     EX              =    -29.709276423
     EC              =     -1.298199224
     EX+EC           =    -31.007475648
Transforming the Hamiltonian                       ... done (   0.0 sec)
Diagonalizing the Hamiltonian                      ... done (   0.0 sec)
Back transforming the eigenvectors                 ... done (   0.0 sec)
Now organizing SCF variables                       ... done
                      ------------------
                      INITIAL GUESS DONE (   0.2 sec)
                      ------------------
-------------------
DFT GRID GENERATION
-------------------

General Integration Accuracy     IntAcc      ... 4.388
Radial Grid Type                 RadialGrid  ... OptM3 with GC (2021)
Angular Grid (max. ang.)         AngularGrid ... 4 (Lebedev-302)
Angular grid pruning method      GridPruning ... 4 (adaptive)
Weight generation scheme         WeightScheme... Becke
Basis function cutoff            BFCut       ... 1.0000e-11
Integration weight cutoff        WCut        ... 1.0000e-14
Angular grids for H and He will be reduced by one unit
Partially contracted basis set               ... off
Rotationally invariant grid construction     ... off

Total number of grid points                  ...    60985
Total number of batches                      ...      960
Average number of points per batch           ...       63
Average number of grid points per atom       ...     4356
Time for grid setup =    0.399 sec

--------------
SCF ITERATIONS
--------------
ITER       Energy         Delta-E        Max-DP      RMS-DP      [F,P]     Damp
               ***  Starting incremental Fock matrix formation  ***
  0   -211.9134617362   0.000000000000 0.10342137  0.00323972  0.2019677 0.7000
  1   -212.0209236405  -0.107461904342 0.05853562  0.00219548  0.0973887 0.7000
                               ***Turning on DIIS***
  2   -212.0586919731  -0.037768332557 0.14385418  0.00401133  0.0272067 0.0000
  3   -212.1087402170  -0.050048243871 0.04218524  0.00137402  0.0656219 0.0000
  4   -212.1284749357  -0.019734718772 0.02560583  0.00066009  0.0153919 0.0000
  5   -212.1297619420  -0.001287006277 0.01028380  0.00029193  0.0059307 0.0000
                      *** Initiating the SOSCF procedure ***
                           *** Shutting down DIIS ***
                      *** Re-Reading the Fockian *** 
                      *** Removing any level shift *** 
ITER      Energy       Delta-E        Grad      Rot      Max-DP    RMS-DP
  6   -212.12988383  -0.0001218920  0.000590  0.000590  0.006433  0.000158
               *** Restarting incremental Fock matrix formation ***
  7   -212.12989905  -0.0000152117  0.000213  0.001175  0.006064  0.000126
  8   -212.12990031  -0.0000012649  0.000142  0.000309  0.000668  0.000024
  9   -212.12990053  -0.0000002171  0.000092  0.000116  0.001072  0.000024
 10   -212.12990070  -0.0000001720  0.000055  0.000146  0.000241  0.000010
 11   -212.12990073  -0.0000000315  0.000035  0.000100  0.000428  0.000010
 12   -212.12990079  -0.0000000611  0.000006  0.000016  0.000059  0.000002
 13   -212.12990079  -0.0000000015  0.000005  0.000009  0.000040  0.000001
                  ***Gradient check signals convergence***
              ***Rediagonalizing the Fockian in SOSCF/NRSCF***

               *****************************************************
               *                     SUCCESS                       *
               *           SCF CONVERGED AFTER  14 CYCLES          *
               *****************************************************


----------------
TOTAL SCF ENERGY
----------------

Total Energy       :         -212.12990080 Eh           -5772.34806 eV

Components:
Nuclear Repulsion  :          181.35342161 Eh            4934.87749 eV
Electronic Energy  :         -393.48332241 Eh          -10707.22555 eV
One Electron Energy:         -643.90245409 Eh          -17521.47655 eV
Two Electron Energy:          250.41913168 Eh            6814.25100 eV

Virial components:
Potential Energy   :         -422.41780855 Eh          -11494.57294 eV
Kinetic Energy     :          210.28790775 Eh            5722.22488 eV
Virial Ratio       :            2.00875939


DFT components:
N(Alpha)           :       19.999986679465 electrons
N(Beta)            :       19.999986679465 electrons
N(Total)           :       39.999973358930 electrons
E(X)               :      -30.455803692478 Eh       
E(C)               :       -1.308827891076 Eh       
E(XC)              :      -31.764631583554 Eh       
DFET-embed. en.    :        0.000000000000 Eh       

---------------
SCF CONVERGENCE
---------------

  Last Energy change         ...   -1.4364e-09  Tolerance :   1.0000e-08
  Last MAX-Density change    ...    2.9275e-05  Tolerance :   1.0000e-07
  Last RMS-Density change    ...    8.4796e-07  Tolerance :   5.0000e-09
  Last Orbital Gradient      ...    1.5777e-06  Tolerance :   1.0000e-05
  Last Orbital Rotation      ...    3.2393e-06  Tolerance :   1.0000e-05

             **** THE GBW FILE WAS UPDATED (SVPD_PBE_C2_wt_dlpno_pos.gbw) ****
             **** DENSITY SVPD_PBE_C2_wt_dlpno_pos.scfp WAS UPDATED ****
             **** ENERGY FILE WAS UPDATED (SVPD_PBE_C2_wt_dlpno_pos.en.tmp) ****
             **** THE GBW FILE WAS UPDATED (SVPD_PBE_C2_wt_dlpno_pos.gbw) ****
             **** DENSITY SVPD_PBE_C2_wt_dlpno_pos.scfp WAS UPDATED ****
----------------
ORBITAL ENERGIES
----------------

  NO   OCC          E(Eh)            E(eV) 
   0   2.0000     -14.001450      -380.9988 
   1   2.0000      -9.909084      -269.6399 
   2   2.0000      -9.894659      -269.2474 
   3   2.0000      -9.882096      -268.9055 
   4   2.0000      -9.829007      -267.4609 
   5   2.0000      -0.834994       -22.7213 
   6   2.0000      -0.701599       -19.0915 
   7   2.0000      -0.647013       -17.6061 
   8   2.0000      -0.567117       -15.4321 
   9   2.0000      -0.509192       -13.8558 
  10   2.0000      -0.470460       -12.8019 
  11   2.0000      -0.428973       -11.6730 
  12   2.0000      -0.387931       -10.5561 
  13   2.0000      -0.375664       -10.2223 
  14   2.0000      -0.351252        -9.5580 
  15   2.0000      -0.339718        -9.2442 
  16   2.0000      -0.308564        -8.3965 
  17   2.0000      -0.291727        -7.9383 
  18   2.0000      -0.285144        -7.7592 
  19   2.0000      -0.164674        -4.4810 
  20   0.0000      -0.003940        -0.1072 
  21   0.0000       0.016906         0.4600 
  22   0.0000       0.034544         0.9400 
  23   0.0000       0.041075         1.1177 
  24   0.0000       0.049091         1.3358 
  25   0.0000       0.068092         1.8529 
  26   0.0000       0.075228         2.0471 
  27   0.0000       0.092036         2.5044 
  28   0.0000       0.101832         2.7710 
  29   0.0000       0.112687         3.0664 
  30   0.0000       0.122269         3.3271 
  31   0.0000       0.131652         3.5824 
  32   0.0000       0.139388         3.7929 
  33   0.0000       0.147383         4.0105 
  34   0.0000       0.158515         4.3134 
  35   0.0000       0.176253         4.7961 
  36   0.0000       0.181040         4.9264 
  37   0.0000       0.189214         5.1488 
  38   0.0000       0.211934         5.7670 
  39   0.0000       0.214110         5.8262 
  40   0.0000       0.219316         5.9679 
  41   0.0000       0.236815         6.4441 
  42   0.0000       0.249408         6.7867 
  43   0.0000       0.264031         7.1847 
  44   0.0000       0.269821         7.3422 
  45   0.0000       0.283845         7.7238 
  46   0.0000       0.292697         7.9647 
  47   0.0000       0.301577         8.2063 
  48   0.0000       0.310180         8.4404 
  49   0.0000       0.317529         8.6404 
  50   0.0000       0.318314         8.6618 
  51   0.0000       0.331867         9.0306 
  52   0.0000       0.334054         9.0901 
  53   0.0000       0.346629         9.4323 
  54   0.0000       0.352742         9.5986 
  55   0.0000       0.361455         9.8357 
  56   0.0000       0.364105         9.9078 
  57   0.0000       0.371358        10.1052 
  58   0.0000       0.376417        10.2428 
  59   0.0000       0.389173        10.5899 
  60   0.0000       0.403582        10.9820 
  61   0.0000       0.407932        11.1004 
  62   0.0000       0.420395        11.4395 
  63   0.0000       0.425169        11.5694 
  64   0.0000       0.431367        11.7381 
  65   0.0000       0.433396        11.7933 
  66   0.0000       0.454592        12.3701 
  67   0.0000       0.461869        12.5681 
  68   0.0000       0.466646        12.6981 
  69   0.0000       0.477739        12.9999 
  70   0.0000       0.484061        13.1720 
  71   0.0000       0.487991        13.2789 
  72   0.0000       0.495070        13.4715 
  73   0.0000       0.506487        13.7822 
  74   0.0000       0.508285        13.8311 
  75   0.0000       0.530284        14.4297 
  76   0.0000       0.537580        14.6283 
  77   0.0000       0.543418        14.7871 
  78   0.0000       0.551272        15.0009 
  79   0.0000       0.567693        15.4477 
  80   0.0000       0.583313        15.8728 
  81   0.0000       0.585735        15.9387 
  82   0.0000       0.611401        16.6371 
  83   0.0000       0.626189        17.0395 
  84   0.0000       0.637248        17.3404 
  85   0.0000       0.651166        17.7191 
  86   0.0000       0.670751        18.2521 
  87   0.0000       0.683674        18.6037 
  88   0.0000       0.705521        19.1982 
  89   0.0000       0.740400        20.1473 
  90   0.0000       0.748983        20.3809 
  91   0.0000       0.812815        22.1178 
  92   0.0000       0.836426        22.7603 
  93   0.0000       0.864098        23.5133 
  94   0.0000       0.904181        24.6040 
  95   0.0000       0.911043        24.7907 
  96   0.0000       0.924060        25.1450 
  97   0.0000       0.947053        25.7706 
  98   0.0000       0.959959        26.1218 
  99   0.0000       0.966479        26.2992 
 100   0.0000       0.992263        27.0009 
 101   0.0000       1.009191        27.4615 
 102   0.0000       1.020549        27.7705 
 103   0.0000       1.036434        28.2028 
 104   0.0000       1.065648        28.9977 
 105   0.0000       1.076393        29.2901 
 106   0.0000       1.111395        30.2426 
 107   0.0000       1.134763        30.8785 
 108   0.0000       1.157958        31.5096 
 109   0.0000       1.163874        31.6706 
 110   0.0000       1.183814        32.2132 
 111   0.0000       1.208021        32.8719 
 112   0.0000       1.222359        33.2621 
 113   0.0000       1.243854        33.8470 
 114   0.0000       1.296308        35.2743 
 115   0.0000       1.381061        37.5806 
 116   0.0000       1.430735        38.9323 
 117   0.0000       1.476814        40.1861 
 118   0.0000       1.509854        41.0852 
 119   0.0000       1.546571        42.0843 
 120   0.0000       1.552014        42.2324 
 121   0.0000       1.581342        43.0305 
 122   0.0000       1.598887        43.5079 
 123   0.0000       1.622959        44.1630 
 124   0.0000       1.646176        44.7947 
 125   0.0000       1.719614        46.7931 
 126   0.0000       1.731070        47.1048 
 127   0.0000       1.782669        48.5089 
 128   0.0000       1.795248        48.8512 
 129   0.0000       1.802396        49.0457 
 130   0.0000       1.811513        49.2938 
 131   0.0000       1.838469        50.0273 
 132   0.0000       1.865510        50.7631 
 133   0.0000       1.881459        51.1971 
 134   0.0000       1.910005        51.9739 
 135   0.0000       1.931519        52.5593 
 136   0.0000       1.962278        53.3963 
 137   0.0000       1.992202        54.2106 
 138   0.0000       2.005810        54.5809 
 139   0.0000       2.015204        54.8365 
 140   0.0000       2.042399        55.5765 
 141   0.0000       2.084026        56.7092 
 142   0.0000       2.101106        57.1740 
 143   0.0000       2.110095        57.4186 
 144   0.0000       2.209223        60.1160 
 145   0.0000       2.219442        60.3941 
 146   0.0000       2.229635        60.6715 
 147   0.0000       2.330550        63.4175 
 148   0.0000       2.350812        63.9688 
 149   0.0000       2.360137        64.2226 
 150   0.0000       2.383145        64.8487 
 151   0.0000       2.399634        65.2974 
 152   0.0000       2.453492        66.7629 
 153   0.0000       2.486302        67.6557 
 154   0.0000       2.529409        68.8287 
 155   0.0000       2.552531        69.4579 
 156   0.0000       2.588255        70.4300 
 157   0.0000       2.624293        71.4106 
 158   0.0000       2.671314        72.6902 
 159   0.0000       2.712549        73.8122 
 160   0.0000       2.727803        74.2273 
 161   0.0000       2.888114        78.5896 
 162   0.0000       2.936280        79.9002 
 163   0.0000       2.976804        81.0030 
 164   0.0000       3.015470        82.0551 
 165   0.0000       3.081798        83.8600 
 166   0.0000       3.107792        84.5673 
 167   0.0000       3.187206        86.7283 
 168   0.0000       3.221097        87.6505 
 169   0.0000       3.245723        88.3206 
 170   0.0000       3.447828        93.8202 
 171   0.0000       3.621884        98.5565 

                    ********************************
                    * MULLIKEN POPULATION ANALYSIS *
                    ********************************

-----------------------
MULLIKEN ATOMIC CHARGES
-----------------------
   0 C :    0.670137
   1 C :   -0.179799
   2 C :   -0.020877
   3 N :    0.182736
   4 C :    0.382471
   5 H :   -0.100547
   6 H :   -0.408638
   7 H :   -0.140291
   8 H :   -0.213422
   9 H :   -0.078080
  10 H :    0.056802
  11 H :   -0.025579
  12 H :   -0.055603
  13 H :   -0.069309
Sum of atomic charges:   -0.0000000

--------------------------------
MULLIKEN REDUCED ORBITAL CHARGES
--------------------------------
  0 C s       :     2.518538  s :     2.518538
      pz      :     0.931473  p :     2.733688
      px      :     0.911581
      py      :     0.890634
      dz2     :     0.011664  d :     0.077638
      dxz     :     0.026772
      dyz     :     0.056718
      dx2y2   :    -0.011842
      dxy     :    -0.005674
  1 C s       :     2.812976  s :     2.812976
      pz      :     0.994879  p :     2.888504
      px      :     0.870885
      py      :     1.022740
      dz2     :     0.126288  d :     0.478319
      dxz     :     0.080656
      dyz     :     0.130074
      dx2y2   :     0.054766
      dxy     :     0.086535
  2 C s       :     2.727164  s :     2.727164
      pz      :     0.757946  p :     2.549831
      px      :     0.871221
      py      :     0.920664
      dz2     :     0.211165  d :     0.743882
      dxz     :     0.017145
      dyz     :     0.214486
      dx2y2   :     0.117903
      dxy     :     0.183183
  3 N s       :     3.204917  s :     3.204917
      pz      :     1.240303  p :     3.598773
      px      :     1.163394
      py      :     1.195077
      dz2     :     0.003912  d :     0.013574
      dxz     :     0.003277
      dyz     :    -0.006313
      dx2y2   :     0.006331
      dxy     :     0.006368
  4 C s       :     3.125653  s :     3.125653
      pz      :     0.939700  p :     2.436625
      px      :     0.804590
      py      :     0.692334
      dz2     :     0.016208  d :     0.055251
      dxz     :     0.013567
      dyz     :     0.026764
      dx2y2   :     0.017266
      dxy     :    -0.018554
  5 H s       :     1.094068  s :     1.094068
      pz      :    -0.007117  p :     0.006478
      px      :     0.023840
      py      :    -0.010245
  6 H s       :     1.376021  s :     1.376021
      pz      :     0.023668  p :     0.032617
      px      :    -0.009004
      py      :     0.017953
  7 H s       :     1.082203  s :     1.082203
      pz      :     0.018509  p :     0.058088
      px      :     0.030848
      py      :     0.008731
  8 H s       :     1.160855  s :     1.160855
      pz      :     0.013105  p :     0.052567
      px      :     0.006980
      py      :     0.032482
  9 H s       :     1.025643  s :     1.025643
      pz      :    -0.025231  p :     0.052437
      px      :     0.046976
      py      :     0.030692
 10 H s       :     0.893424  s :     0.893424
      pz      :     0.026919  p :     0.049774
      px      :     0.001660
      py      :     0.021196
 11 H s       :     1.002634  s :     1.002634
      pz      :    -0.000975  p :     0.022945
      px      :    -0.036666
      py      :     0.060586
 12 H s       :     0.978568  s :     0.978568
      pz      :     0.010688  p :     0.077035
      px      :     0.057258
      py      :     0.009089
 13 H s       :     0.993179  s :     0.993179
      pz      :     0.029393  p :     0.076130
      px      :     0.055491
      py      :    -0.008754


                     *******************************
                     * LOEWDIN POPULATION ANALYSIS *
                     *******************************

----------------------
LOEWDIN ATOMIC CHARGES
----------------------
   0 C :    0.134254
   1 C :   -0.034486
   2 C :   -0.277019
   3 N :    0.186042
   4 C :    0.169697
   5 H :   -0.072238
   6 H :   -0.078713
   7 H :   -0.004804
   8 H :   -0.000928
   9 H :    0.020188
  10 H :    0.020187
  11 H :   -0.021302
  12 H :   -0.026378
  13 H :   -0.014500

-------------------------------
LOEWDIN REDUCED ORBITAL CHARGES
-------------------------------
  0 C s       :     2.713362  s :     2.713362
      pz      :     0.897574  p :     2.759451
      px      :     0.930313
      py      :     0.931564
      dz2     :     0.086367  d :     0.392932
      dxz     :     0.080349
      dyz     :     0.121462
      dx2y2   :     0.032073
      dxy     :     0.072681
  1 C s       :     2.693184  s :     2.693184
      pz      :     0.887210  p :     2.688953
      px      :     0.905313
      py      :     0.896431
      dz2     :     0.169162  d :     0.652348
      dxz     :     0.126997
      dyz     :     0.164921
      dx2y2   :     0.061871
      dxy     :     0.129397
  2 C s       :     2.661758  s :     2.661758
      pz      :     0.887219  p :     2.588054
      px      :     0.865089
      py      :     0.835747
      dz2     :     0.211063  d :     1.027206
      dxz     :     0.196230
      dyz     :     0.190062
      dx2y2   :     0.219578
      dxy     :     0.210274
  3 N s       :     2.931048  s :     2.931048
      pz      :     1.178499  p :     3.519833
      px      :     1.165414
      py      :     1.175920
      dz2     :     0.038300  d :     0.363077
      dxz     :     0.095144
      dyz     :     0.048957
      dx2y2   :     0.099611
      dxy     :     0.081066
  4 C s       :     2.733432  s :     2.733432
      pz      :     0.927520  p :     2.761321
      px      :     0.923408
      py      :     0.910393
      dz2     :     0.065392  d :     0.335550
      dxz     :     0.066445
      dyz     :     0.084662
      dx2y2   :     0.063208
      dxy     :     0.055843
  5 H s       :     0.754897  s :     0.754897
      pz      :     0.088505  p :     0.317341
      px      :     0.117295
      py      :     0.111540
  6 H s       :     0.769063  s :     0.769063
      pz      :     0.101101  p :     0.309649
      px      :     0.085634
      py      :     0.122914
  7 H s       :     0.658432  s :     0.658432
      pz      :     0.138316  p :     0.346372
      px      :     0.110680
      py      :     0.097377
  8 H s       :     0.661233  s :     0.661233
      pz      :     0.115809  p :     0.339695
      px      :     0.087219
      py      :     0.136667
  9 H s       :     0.726820  s :     0.726820
      pz      :     0.062949  p :     0.252993
      px      :     0.110884
      py      :     0.079159
 10 H s       :     0.715601  s :     0.715601
      pz      :     0.080892  p :     0.264213
      px      :     0.097325
      py      :     0.085995
 11 H s       :     0.741109  s :     0.741109
      pz      :     0.088694  p :     0.280194
      px      :     0.077270
      py      :     0.114230
 12 H s       :     0.739226  s :     0.739226
      pz      :     0.081883  p :     0.287152
      px      :     0.107235
      py      :     0.098034
 13 H s       :     0.736347  s :     0.736347
      pz      :     0.072754  p :     0.278154
      px      :     0.115992
      py      :     0.089408


                      *****************************
                      * MAYER POPULATION ANALYSIS *
                      *****************************

  NA   - Mulliken gross atomic population
  ZA   - Total nuclear charge
  QA   - Mulliken gross atomic charge
  VA   - Mayer's total valence
  BVA  - Mayer's bonded valence
  FA   - Mayer's free valence

  ATOM       NA         ZA         QA         VA         BVA        FA
  0 C      5.3299     6.0000     0.6701     3.9533     3.9533    -0.0000
  1 C      6.1798     6.0000    -0.1798     5.0676     5.0676    -0.0000
  2 C      6.0209     6.0000    -0.0209     4.6006     4.6006     0.0000
  3 N      6.8173     7.0000     0.1827     4.0960     4.0960    -0.0000
  4 C      5.6175     6.0000     0.3825     3.5953     3.5953    -0.0000
  5 H      1.1005     1.0000    -0.1005     1.0076     1.0076    -0.0000
  6 H      1.4086     1.0000    -0.4086     0.9692     0.9692    -0.0000
  7 H      1.1403     1.0000    -0.1403     0.9662     0.9662    -0.0000
  8 H      1.2134     1.0000    -0.2134     0.9637     0.9637     0.0000
  9 H      1.0781     1.0000    -0.0781     1.1711     1.1711    -0.0000
 10 H      0.9432     1.0000     0.0568     1.0247     1.0247    -0.0000
 11 H      1.0256     1.0000    -0.0256     1.0365     1.0365    -0.0000
 12 H      1.0556     1.0000    -0.0556     1.1313     1.1313    -0.0000
 13 H      1.0693     1.0000    -0.0693     1.1181     1.1181    -0.0000

  Mayer bond orders larger than 0.100000
B(  0-C ,  1-C ) :   1.2744 B(  0-C , 11-H ) :   0.8152 B(  0-C , 12-H ) :   0.7901 
B(  0-C , 13-H ) :   0.8516 B(  1-C ,  2-C ) :   1.1958 B(  1-C ,  3-N ) :   0.1231 
B(  1-C ,  4-C ) :   0.1745 B(  1-C ,  9-H ) :   0.8608 B(  1-C , 10-H ) :   0.8496 
B(  1-C , 11-H ) :   0.1739 B(  1-C , 12-H ) :   0.2245 B(  1-C , 13-H ) :   0.1786 
B(  2-C ,  3-N ) :   1.1896 B(  2-C ,  4-C ) :   1.6095 B(  2-C ,  5-H ) :   0.1014 
B(  2-C ,  6-H ) :   0.2668 B(  2-C ,  9-H ) :   0.1585 B(  2-C , 10-H ) :   0.1551 
B(  3-N ,  4-C ) :   0.2840 B(  3-N ,  7-H ) :   1.1457 B(  3-N ,  8-H ) :   1.2540 
B(  4-C ,  5-H ) :   0.9206 B(  4-C ,  6-H ) :   0.6421 B(  7-H ,  8-H ) :  -0.1509 


-------
TIMINGS
-------

Total SCF time: 0 days 0 hours 0 min 6 sec 

Total time                  ....       6.002 sec
Sum of individual times     ....       5.833 sec  ( 97.2%)

Fock matrix formation       ....       5.081 sec  ( 84.7%)
  Split-RI-J                ....       1.045 sec  ( 20.6% of F)
  XC integration            ....       3.998 sec  ( 78.7% of F)
    Basis function eval.    ....       1.374 sec  ( 34.4% of XC)
    Density eval.           ....       0.937 sec  ( 23.4% of XC)
    XC-Functional eval.     ....       0.236 sec  (  5.9% of XC)
    XC-Potential eval.      ....       1.279 sec  ( 32.0% of XC)
Diagonalization             ....       0.054 sec  (  0.9%)
Density matrix formation    ....       0.005 sec  (  0.1%)
Population analysis         ....       0.007 sec  (  0.1%)
Initial guess               ....       0.130 sec  (  2.2%)
Orbital Transformation      ....       0.000 sec  (  0.0%)
Orbital Orthonormalization  ....       0.000 sec  (  0.0%)
DIIS solution               ....       0.033 sec  (  0.5%)
SOSCF solution              ....       0.043 sec  (  0.7%)
Grid generation             ....       0.481 sec  (  8.0%)

Maximum memory used throughout the entire SCF-calculation: 19.9 MB


-------------------------------------------------------------------------------
                          DFT DISPERSION CORRECTION                            
                                                                               
                              DFTD3 V3.1  Rev 1                                
                          USING Becke-Johnson damping                          
-------------------------------------------------------------------------------
The PBE functional is recognized
Active option DFTDOPT                   ...         4   

molecular C6(AA) [au] = 1468.690113 


            DFT-D V3
 parameters
 s6 scaling factor         :     1.0000 
 a1 scaling factor         :     0.4289 
 s8 scaling factor         :     0.7875 
 a2 scaling factor         :     4.4407 
 ad hoc parameters k1-k3   :    16.0000     1.3333    -4.0000 

 Edisp/kcal,au: -6.593672397759  -0.010507684692 
 E6   /kcal   :  -4.750647068 
 E8   /kcal   :  -1.843025330 
 % E8         :  27.951424015 

-------------------------   ----------------
Dispersion correction           -0.010507685
-------------------------   ----------------


-------------------------   --------------------
FINAL SINGLE POINT ENERGY      -212.140408479830
-------------------------   --------------------


                            ***************************************
                            *     ORCA property calculations      *
                            ***************************************

                                    ---------------------
                                    Active property flags
                                    ---------------------
   (+) Dipole Moment


------------------------------------------------------------------------------
                       ORCA ELECTRIC PROPERTIES CALCULATION
------------------------------------------------------------------------------

Dipole Moment Calculation                       ... on
Quadrupole Moment Calculation                   ... off
Polarizability Calculation                      ... off
GBWName                                         ... SVPD_PBE_C2_wt_dlpno_pos.gbw
Electron density file                           ... SVPD_PBE_C2_wt_dlpno_pos.scfp
The origin for moment calculation is the CENTER OF MASS  = ( 4.426538, -3.449156 -6.168232)

-------------
DIPOLE MOMENT
-------------
                                X             Y             Z
Electronic contribution:      1.65914       1.08864       2.01289
Nuclear contribution   :     -1.13902      -0.93906      -2.44135
                        -----------------------------------------
Total Dipole Moment    :      0.52012       0.14957      -0.42846
                        -----------------------------------------
Magnitude (a.u.)       :      0.69027
Magnitude (Debye)      :      1.75454



--------------------
Rotational spectrum 
--------------------
 
Rotational constants in cm-1:     0.267243     0.130607     0.102304 
Rotational constants in MHz :  8011.748167  3915.504600  3066.999841 

 Dipole components along the rotational axes: 
x,y,z [a.u.] :    -0.135433     0.676799     0.008838 
x,y,z [Debye]:    -0.344244     1.720287     0.022465 

 

Timings for individual modules:

Sum of individual times         ...       10.659 sec (=   0.178 min)
GTO integral calculation        ...        2.629 sec (=   0.044 min)  24.7 %
SCF iterations                  ...        8.030 sec (=   0.134 min)  75.3 %
                             ****ORCA TERMINATED NORMALLY****
TOTAL RUN TIME: 0 days 0 hours 0 minutes 11 seconds 215 msec
