
                                        *****************
                                        * O   R   C   A *
                                        *****************

                                            #,                                       
                                            ###                                      
                                            ####                                     
                                            #####                                    
                                            ######                                   
                                           ########,                                 
                                     ,,################,,,,,                         
                               ,,#################################,,                 
                          ,,##########################################,,             
                       ,#########################################, ''#####,          
                    ,#############################################,,   '####,        
                  ,##################################################,,,,####,       
                ,###########''''           ''''###############################       
              ,#####''   ,,,,##########,,,,          '''####'''          '####       
            ,##' ,,,,###########################,,,                        '##       
           ' ,,###''''                  '''############,,,                           
         ,,##''                                '''############,,,,        ,,,,,,###''
      ,#''                                            '''#######################'''  
     '                                                          ''''####''''         
             ,#######,   #######,   ,#######,      ##                                
            ,#'     '#,  ##    ##  ,#'     '#,    #''#        ######   ,####,        
            ##       ##  ##   ,#'  ##            #'  '#       #        #'  '#        
            ##       ##  #######   ##           ,######,      #####,   #    #        
            '#,     ,#'  ##    ##  '#,     ,#' ,#      #,         ##   #,  ,#        
             '#######'   ##     ##  '#######'  #'      '#     #####' # '####'        



                  #######################################################
                  #                        -***-                        #
                  #          Department of theory and spectroscopy      #
                  #    Directorship and core code : Frank Neese         #
                  #        Max Planck Institute fuer Kohlenforschung    #
                  #                Kaiser Wilhelm Platz 1               #
                  #                 D-45470 Muelheim/Ruhr               #
                  #                      Germany                        #
                  #                                                     #
                  #                  All rights reserved                #
                  #                        -***-                        #
                  #######################################################


                         Program Version 5.0.0 -  RELEASE  -
                                (SVN: $Rev: 19529$)
                ($Date: 2021-06-28 11:36:33 +0200 (Mo, 28 Jun 2021) $)


 With contributions from (in alphabetic order):
   Daniel Aravena         : Magnetic Suceptibility
   Michael Atanasov       : Ab Initio Ligand Field Theory (pilot matlab implementation)
   Alexander A. Auer      : GIAO ZORA, VPT2 properties, NMR spectrum
   Ute Becker             : Parallelization
   Giovanni Bistoni       : ED, misc. LED, open-shell LED, HFLD
   Martin Brehm           : Molecular dynamics
   Dmytro Bykov           : SCF Hessian
   Vijay G. Chilkuri      : MRCI spin determinant printing, contributions to CSF-ICE
   Dipayan Datta          : RHF DLPNO-CCSD density
   Achintya Kumar Dutta   : EOM-CC, STEOM-CC
   Dmitry Ganyushin       : Spin-Orbit,Spin-Spin,Magnetic field MRCI
   Miquel Garcia          : C-PCM Hessian, Gaussian charge scheme
   Yang Guo               : DLPNO-NEVPT2, F12-NEVPT2, CIM, IAO-localization
   Andreas Hansen         : Spin unrestricted coupled pair/coupled cluster methods
   Benjamin Helmich-Paris : MC-RPA, TRAH-SCF, COSX integrals
   Lee Huntington         : MR-EOM, pCC
   Robert Izsak           : Overlap fitted RIJCOSX, COSX-SCS-MP3, EOM
   Marcus Kettner         : VPT2
   Christian Kollmar      : KDIIS, OOCD, Brueckner-CCSD(T), CCSD density, CASPT2, CASPT2-K
   Simone Kossmann        : Meta GGA functionals, TD-DFT gradient, OOMP2, MP2 Hessian
   Martin Krupicka        : Initial AUTO-CI
   Lucas Lang             : DCDCAS
   Marvin Lechner         : AUTO-CI (C++ implementation), FIC-MRCC
   Dagmar Lenk            : GEPOL surface, SMD
   Dimitrios Liakos       : Extrapolation schemes; Compound Job, initial MDCI parallelization
   Dimitrios Manganas     : Further ROCIS development; embedding schemes
   Dimitrios Pantazis     : SARC Basis sets
   Anastasios Papadopoulos: AUTO-CI, single reference methods and gradients
   Taras Petrenko         : DFT Hessian,TD-DFT gradient, ASA, ECA, R-Raman, ABS, FL, XAS/XES, NRVS
   Peter Pinski           : DLPNO-MP2, DLPNO-MP2 Gradient
   Christoph Reimann      : Effective Core Potentials
   Marius Retegan         : Local ZFS, SOC
   Christoph Riplinger    : Optimizer, TS searches, QM/MM, DLPNO-CCSD(T), (RO)-DLPNO pert. Triples
   Tobias Risthaus        : Range-separated hybrids, TD-DFT gradient, RPA, STAB
   Michael Roemelt        : Original ROCIS implementation
   Masaaki Saitow         : Open-shell DLPNO-CCSD energy and density
   Barbara Sandhoefer     : DKH picture change effects
   Avijit Sen             : IP-ROCIS
   Kantharuban Sivalingam : CASSCF convergence, NEVPT2, FIC-MRCI
   Bernardo de Souza      : ESD, SOC TD-DFT
   Georgi Stoychev        : AutoAux, RI-MP2 NMR
   Willem Van den Heuvel  : Paramagnetic NMR
   Boris Wezisla          : Elementary symmetry handling
   Frank Wennmohs         : Technical directorship


 We gratefully acknowledge several colleagues who have allowed us to
 interface, adapt or use parts of their codes:
   Stefan Grimme, W. Hujo, H. Kruse, P. Pracht,  : VdW corrections, initial TS optimization,
                  C. Bannwarth, S. Ehlert          DFT functionals, gCP, sTDA/sTD-DF
   Ed Valeev, F. Pavosevic, A. Kumar             : LibInt (2-el integral package), F12 methods
   Garnet Chan, S. Sharma, J. Yang, R. Olivares  : DMRG
   Ulf Ekstrom                                   : XCFun DFT Library
   Mihaly Kallay                                 : mrcc  (arbitrary order and MRCC methods)
   Jiri Pittner, Ondrej Demel                    : Mk-CCSD
   Frank Weinhold                                : gennbo (NPA and NBO analysis)
   Christopher J. Cramer and Donald G. Truhlar   : smd solvation model
   Lars Goerigk                                  : TD-DFT with DH, B97 family of functionals
   V. Asgeirsson, H. Jonsson                     : NEB implementation
   FAccTs GmbH                                   : IRC, NEB, NEB-TS, DLPNO-Multilevel, CI-OPT
                                                   MM, QMMM, 2- and 3-layer-ONIOM, Crystal-QMMM,
                                                   LR-CPCM, SF, NACMEs, symmetry and pop. for TD-DFT,
                                                   nearIR, NL-DFT gradient (VV10), updates on ESD,
                                                   ML-optimized integration grids
   S Lehtola, MJT Oliveira, MAL Marques          : LibXC Library
   Liviu Ungur et al                             : ANISO software


 Your calculation uses the libint2 library for the computation of 2-el integrals
 For citations please refer to: http://libint.valeyev.net

 Your ORCA version has been built with support for libXC version: 5.1.0
 For citations please refer to: https://tddft.org/programs/libxc/

 This ORCA versions uses:
   CBLAS   interface :  Fast vector & matrix operations
   LAPACKE interface :  Fast linear algebra routines
   SCALAPACK package :  Parallel linear algebra routines
   Shared memory     :  Shared parallel matrices
   BLAS/LAPACK       :  OpenBLAS 0.3.15  USE64BITINT DYNAMIC_ARCH NO_AFFINITY Haswell SINGLE_THREADED
        Core in use  :  Haswell
   Copyright (c) 2011-2014, The OpenBLAS Project




***************************************
The coordinates will be read from file: D2.xyz
***************************************


Your calculation utilizes the atom-pairwise dispersion correction
with the zero-damping scheme (D30)
Cite in your paper:
S.Grimme, J.Antony, S.Ehrlich and H.Krieg, J.Chem.Phys., 132, (2010), 154104 
   

XCFun DFT library Copyright 2009-2010 Ulf Ekstrom and contributors.
See http://admol.org/xcfun for more information.
This is free software; see the source code for copying conditions.
There is ABSOLUTELY NO WARRANTY; not even for MERCHANTABILITY or FITNESS FOR A PARTICULAR PURPOSE.
For details see the documentation.
Scientific users of this library should cite U. Ekstrom, L. Visscher, R. Bast, A. J. Thorvaldsen and K. Ruud;
J.Chem.Theor.Comp. 2010, DOI: 10.1021/ct100117s
XCFun Version 0.99 

================================================================================

----- Orbital basis set information -----
Your calculation utilizes the basis: def2-TZVPD
   F. Weigend and R. Ahlrichs, Phys. Chem. Chem. Phys. 7, 3297 (2005).
   D. Rappoport and F. Furche, J. Chem. Phys. 133 134105 (2010).

----- AuxJ basis set information -----
Your calculation utilizes the auxiliary basis: def2/J
   F. Weigend, Phys. Chem. Chem. Phys. 8, 1057 (2006).

================================================================================
                                        WARNINGS
                       Please study these warnings very carefully!
================================================================================


WARNING: Minnesota functionals are quite sensitive to the integration grid.
         see SE Wheeler, KN Houk, JCTC 2010, 6, 395,
             N Mardirossian, M Head-Gordon, JCTC 2016, 12, 4303.
         DEFGRID3 seems to be a minimum grid for reliable results with these functionals!
  ===> : Please increase the integration grid!


INFO   : the flag for use of the SHARK integral package has been found!

================================================================================
                                       INPUT FILE
================================================================================
NAME = 28Oct_TZVPD_M062X_D2_wb97.com
|  1> !M062X D3Zero RIJCOSX def2-TZVPD def2/J TightSCF xyzfile                                                                                         
|  2> 
|  3> *xyzfile 0 1 D2.xyz
|  4> 
|  5> %MaxCore 64000
|  6> 
|  7> %pal nprocs 4                                                                                                                                                  
|  8> end  
|  9> 
| 10> %scf
| 11>   MaxIter 150
| 12> end
| 13> 
| 14> 
| 15>                          ****END OF INPUT****
================================================================================

                       ****************************
                       * Single Point Calculation *
                       ****************************

---------------------------------
CARTESIAN COORDINATES (ANGSTROEM)
---------------------------------
  C      0.816067   -2.101491   -2.186546
  H      1.696232   -2.368691   -1.600457
  C      1.100552   -2.467492   -3.599269
  C      0.516243   -0.613634   -2.039373
  H     -0.020066   -2.712849   -1.840844
  C     -0.868621   -0.193925   -2.546303
  C     -0.984801    1.284739   -2.928686
  H     -0.764939    1.904116   -2.051568
  H     -2.032613    1.478953   -3.178952
  C     -0.106085    1.769914   -4.089836
  H     -0.347744    2.822196   -4.262942
  H      0.949683    1.745875   -3.808781
  C     -0.258747    1.004323   -5.409829
  C      0.395958   -0.370696   -5.339939
  H      0.239150    1.569393   -6.201253
  H     -1.309360    0.888694   -5.682455
  H      1.700606   -1.757225   -4.078378
  H      0.293855   -2.359766   -4.256324
  H      1.501324   -3.428479   -3.694915
  O     -0.326329   -1.390398   -5.491279
  F      1.619412   -0.400726   -5.036827
  H     -1.607271   -0.412651   -1.768955
  H     -1.157234   -0.796164   -3.409254
  H      1.299044   -0.056805   -2.558982
  H      0.612393   -0.365579   -0.979171

----------------------------
CARTESIAN COORDINATES (A.U.)
----------------------------
  NO LB      ZA    FRAG     MASS         X           Y           Z
   0 C     6.0000    0    12.011    1.542143   -3.971242   -4.131974
   1 H     1.0000    0     1.008    3.205414   -4.476178   -3.024426
   2 C     6.0000    0    12.011    2.079742   -4.662885   -6.801633
   3 C     6.0000    0    12.011    0.975557   -1.159601   -3.853857
   4 H     1.0000    0     1.008   -0.037919   -5.126542   -3.478691
   5 C     6.0000    0    12.011   -1.641455   -0.366465   -4.811815
   6 C     6.0000    0    12.011   -1.861004    2.427804   -5.534415
   7 H     1.0000    0     1.008   -1.445526    3.598259   -3.876902
   8 H     1.0000    0     1.008   -3.841082    2.794817   -6.007349
   9 C     6.0000    0    12.011   -0.200471    3.344653   -7.728670
  10 H     1.0000    0     1.008   -0.657140    5.333178   -8.055793
  11 H     1.0000    0     1.008    1.794641    3.299226   -7.197553
  12 C     6.0000    0    12.011   -0.488961    1.897895  -10.223095
  13 C     6.0000    0    12.011    0.748253   -0.700514  -10.091023
  14 H     1.0000    0     1.008    0.451928    2.965722  -11.718669
  15 H     1.0000    0     1.008   -2.474333    1.679388  -10.738283
  16 H     1.0000    0     1.008    3.213680   -3.320674   -7.707017
  17 H     1.0000    0     1.008    0.555306   -4.459312   -8.043287
  18 H     1.0000    0     1.008    2.837092   -6.478886   -6.982377
  19 O     8.0000    0    15.999   -0.616673   -2.627472  -10.377013
  20 F     9.0000    0    18.998    3.060246   -0.757263   -9.518224
  21 H     1.0000    0     1.008   -3.037301   -0.779798   -3.342840
  22 H     1.0000    0     1.008   -2.186856   -1.504532   -6.442556
  23 H     1.0000    0     1.008    2.454837   -0.107345   -4.835776
  24 H     1.0000    0     1.008    1.157255   -0.690845   -1.850365

--------------------------------
INTERNAL COORDINATES (ANGSTROEM)
--------------------------------
 C      0   0   0     0.000000000000     0.00000000     0.00000000
 H      1   0   0     1.090682096909     0.00000000     0.00000000
 C      1   2   0     1.486833730040   107.20934599     0.00000000
 C      1   2   3     1.524883846197   110.23330219   238.23541894
 H      1   2   3     1.091964918858   108.09773892   116.23719070
 C      4   1   2     1.533290694206   114.37849822   193.55262280
 C      6   4   1     1.531718248992   114.53777023   203.24427567
 H      7   6   4     1.096039981312   109.30133520   299.92764936
 H      7   6   4     1.094651652966   107.51496733   185.36124498
 C      7   6   4     1.534863542178   116.78148929    63.08877785
 H     10   7   6     1.093463539279   107.30372008   177.14242828
 H     10   7   6     1.092801775012   110.58416982   292.30100384
 C     10   7   6     1.533563561923   115.87207466    55.39977883
 C     13  10   7     1.524532559627   111.59568312   286.28001866
 H     13  10   7     1.092500641121   108.65991497   167.67559602
 H     13  10   7     1.091550667461   111.32604283    48.60181514
 H      3   1   2     1.045987211860   112.19895669   280.57027726
 H      3   1   2     1.045985883626   115.08362547   173.58636352
 H      3   1   2     1.045591408476   112.73676342    47.10372670
 O     14  13  10     1.258727803921   118.60172603   118.44546157
 F     14  13  10     1.260800755346   116.69427677   303.37483029
 H      6   4   1     1.094401860126   108.66633658    81.61379204
 H      6   4   1     1.091180044274   110.44333728   325.93349503
 H      4   1   2     1.092167850942   108.09628877    69.98458297
 H      4   1   2     1.093071188438   107.32192736   315.56188429

---------------------------
INTERNAL COORDINATES (A.U.)
---------------------------
 C      0   0   0     0.000000000000     0.00000000     0.00000000
 H      1   0   0     2.061090462330     0.00000000     0.00000000
 C      1   2   0     2.809708556452   107.20934599     0.00000000
 C      1   2   3     2.881612855354   110.23330219   238.23541894
 H      1   2   3     2.063514644492   108.09773892   116.23719070
 C      4   1   2     2.897499495739   114.37849822   193.55262280
 C      6   4   1     2.894528004925   114.53777023   203.24427567
 H      7   6   4     2.071215396507   109.30133520   299.92764936
 H      7   6   4     2.068591836150   107.51496733   185.36124498
 C      7   6   4     2.900471747657   116.78148929    63.08877785
 H     10   7   6     2.066346626666   107.30372008   177.14242828
 H     10   7   6     2.065096073435   110.58416982   292.30100384
 C     10   7   6     2.898015140996   115.87207466    55.39977883
 C     13  10   7     2.880949019942   111.59568312   286.28001866
 H     13  10   7     2.064527012853   108.65991497   167.67559602
 H     13  10   7     2.062731822800   111.32604283    48.60181514
 H      3   1   2     1.976629370000   112.19895669   280.57027726
 H      3   1   2     1.976626860000   115.08362547   173.58636352
 H      3   1   2     1.975881410000   112.73676342    47.10372670
 O     14  13  10     2.378650826563   118.60172603   118.44546157
 F     14  13  10     2.382568137044   116.69427677   303.37483029
 H      6   4   1     2.068119796092   108.66633658    81.61379204
 H      6   4   1     2.062031446477   110.44333728   325.93349503
 H      4   1   2     2.063898130553   108.09628877    69.98458297
 H      4   1   2     2.065605191027   107.32192736   315.56188429

---------------------
BASIS SET INFORMATION
---------------------
There are 4 groups of distinct atoms

 Group   1 Type C   : 12s6p3d1f contracted to 6s3p3d1f pattern {621111/411/111/1}
 Group   2 Type H   : 5s2p contracted to 3s2p pattern {311/11}
 Group   3 Type O   : 12s7p3d1f contracted to 6s4p3d1f pattern {621111/4111/111/1}
 Group   4 Type F   : 12s7p3d1f contracted to 6s4p3d1f pattern {621111/4111/111/1}

Atom   0C    basis set group =>   1
Atom   1H    basis set group =>   2
Atom   2C    basis set group =>   1
Atom   3C    basis set group =>   1
Atom   4H    basis set group =>   2
Atom   5C    basis set group =>   1
Atom   6C    basis set group =>   1
Atom   7H    basis set group =>   2
Atom   8H    basis set group =>   2
Atom   9C    basis set group =>   1
Atom  10H    basis set group =>   2
Atom  11H    basis set group =>   2
Atom  12C    basis set group =>   1
Atom  13C    basis set group =>   1
Atom  14H    basis set group =>   2
Atom  15H    basis set group =>   2
Atom  16H    basis set group =>   2
Atom  17H    basis set group =>   2
Atom  18H    basis set group =>   2
Atom  19O    basis set group =>   3
Atom  20F    basis set group =>   4
Atom  21H    basis set group =>   2
Atom  22H    basis set group =>   2
Atom  23H    basis set group =>   2
Atom  24H    basis set group =>   2
---------------------------------
AUXILIARY/J BASIS SET INFORMATION
---------------------------------
There are 4 groups of distinct atoms

 Group   1 Type C   : 12s5p4d2f1g contracted to 6s4p3d1f1g pattern {711111/2111/211/2/1}
 Group   2 Type H   : 5s2p1d contracted to 3s1p1d pattern {311/2/1}
 Group   3 Type O   : 12s5p4d2f1g contracted to 6s4p3d1f1g pattern {711111/2111/211/2/1}
 Group   4 Type F   : 12s5p4d2f1g contracted to 6s4p3d1f1g pattern {711111/2111/211/2/1}

Atom   0C    basis set group =>   1
Atom   1H    basis set group =>   2
Atom   2C    basis set group =>   1
Atom   3C    basis set group =>   1
Atom   4H    basis set group =>   2
Atom   5C    basis set group =>   1
Atom   6C    basis set group =>   1
Atom   7H    basis set group =>   2
Atom   8H    basis set group =>   2
Atom   9C    basis set group =>   1
Atom  10H    basis set group =>   2
Atom  11H    basis set group =>   2
Atom  12C    basis set group =>   1
Atom  13C    basis set group =>   1
Atom  14H    basis set group =>   2
Atom  15H    basis set group =>   2
Atom  16H    basis set group =>   2
Atom  17H    basis set group =>   2
Atom  18H    basis set group =>   2
Atom  19O    basis set group =>   3
Atom  20F    basis set group =>   4
Atom  21H    basis set group =>   2
Atom  22H    basis set group =>   2
Atom  23H    basis set group =>   2
Atom  24H    basis set group =>   2


           ************************************************************
           *        Program running with 4 parallel MPI-processes     *
           *              working on a common directory               *
           ************************************************************
------------------------------------------------------------------------------
                           ORCA GTO INTEGRAL CALCULATION
                           -- RI-GTO INTEGRALS CHOSEN --
------------------------------------------------------------------------------
------------------------------------------------------------------------------
                   ___                                                        
                  /   \      - P O W E R E D   B Y -                         
                 /     \                                                     
                 |  |  |   _    _      __       _____    __    __             
                 |  |  |  | |  | |    /  \     |  _  \  |  |  /  |          
                  \  \/   | |  | |   /    \    | | | |  |  | /  /          
                 / \  \   | |__| |  /  /\  \   | |_| |  |  |/  /          
                |  |  |   |  __  | /  /__\  \  |    /   |      \           
                |  |  |   | |  | | |   __   |  |    \   |  |\   \          
                \     /   | |  | | |  |  |  |  | |\  \  |  | \   \       
                 \___/    |_|  |_| |__|  |__|  |_| \__\ |__|  \__/        
                                                                              
                      - O R C A' S   B I G   F R I E N D -                    
                                      &                                       
                       - I N T E G R A L  F E E D E R -                       
                                                                              
 v1 FN, 2020, v2 2021                                                         
------------------------------------------------------------------------------


Reading SHARK input file 28Oct_TZVPD_M062X_D2_wb97.SHARKINP.tmp ... ok
----------------------
SHARK INTEGRAL PACKAGE
----------------------

Number of atoms                             ...     25
Number of basis functions                   ...    511
Number of shells                            ...    207
Maximum angular momentum                    ...      3
Integral batch strategy                     ... SHARK/LIBINT Hybrid
RI-J (if used) integral strategy            ... SPLIT-RIJ (Revised 2003 algorithm where possible)
Printlevel                                  ...      1
Contraction scheme used                     ... SEGMENTED contraction
Coulomb Range Separation                    ... NOT USED
Exchange Range Separation                   ... NOT USED
Finite Nucleus Model                        ... NOT USED
Auxiliary Coulomb fitting basis             ... AVAILABLE
   # of basis functions in Aux-J            ...    655
   # of shells in Aux-J                     ...    225
   Maximum angular momentum in Aux-J        ...      4
Auxiliary J/K fitting basis                 ... NOT available
Auxiliary Correlation fitting basis         ... NOT available
Auxiliary 'external' fitting basis          ... NOT available
Integral threshold                          ...     2.500000e-11
Primitive cut-off                           ...     2.500000e-12
Primitive pair pre-selection threshold      ...     2.500000e-12

Calculating pre-screening integrals         ... done (  0.2 sec) Dimension = 207
Organizing shell pair data                  ... done (  0.2 sec)
Shell pair information
Total number of shell pairs                 ...     21528
Shell pairs after pre-screening             ...     20182
Total number of primitive shell pairs       ...     53893
Primitive shell pairs kept                  ...     39718
          la=0 lb=0:   5019 shell pairs
          la=1 lb=0:   6112 shell pairs
          la=1 lb=1:   1892 shell pairs
          la=2 lb=0:   2984 shell pairs
          la=2 lb=1:   1817 shell pairs
          la=2 lb=2:    454 shell pairs
          la=3 lb=0:    953 shell pairs
          la=3 lb=1:    597 shell pairs
          la=3 lb=2:    299 shell pairs
          la=3 lb=3:     55 shell pairs

Calculating one electron integrals          ... done (  0.1 sec)
Calculating RI/J V-Matrix + Cholesky decomp.... done (  0.0 sec)
Calculating Nuclear repulsion               ... done (  0.0 sec) ENN=    605.196137612967 Eh

SHARK setup successfully completed in   0.5 seconds

Maximum memory used throughout the entire GTOINT-calculation: 30.2 MB


           ************************************************************
           *        Program running with 4 parallel MPI-processes     *
           *              working on a common directory               *
           ************************************************************
-------------------------------------------------------------------------------
                                 ORCA SCF
-------------------------------------------------------------------------------

------------
SCF SETTINGS
------------
Hamiltonian:
 Density Functional     Method          .... DFT(GTOs)
 Exchange Functional    Exchange        .... M062X
 Correlation Functional Correlation     .... M062X
 Gradients option       PostSCFGGA      .... off
 Hybrid DFT is turned on
   Fraction HF Exchange ScalHFX         ....  0.540000
   Scaling of DF-GGA-X  ScalDFX         ....  0.460000
   Scaling of DF-GGA-C  ScalDFC         ....  1.000000
   Scaling of DF-LDA-C  ScalLDAC        ....  1.000000
   Perturbative correction              ....  0.000000
   Density functional embedding theory  .... OFF
 RI-approximation to the Coulomb term is turned on
   Number of AuxJ basis functions       .... 655
   RIJ-COSX (HFX calculated with COS-X)).... on


General Settings:
 Integral files         IntName         .... 28Oct_TZVPD_M062X_D2_wb97
 Hartree-Fock type      HFTyp           .... RHF
 Total Charge           Charge          ....    0
 Multiplicity           Mult            ....    1
 Number of Electrons    NEL             ....   80
 Basis Dimension        Dim             ....  511
 Nuclear Repulsion      ENuc            ....    605.1961376130 Eh

Convergence Acceleration:
 DIIS                   CNVDIIS         .... on
   Start iteration      DIISMaxIt       ....    12
   Startup error        DIISStart       ....  0.200000
   # of expansion vecs  DIISMaxEq       ....     5
   Bias factor          DIISBfac        ....   1.050
   Max. coefficient     DIISMaxC        ....  10.000
 Trust-Rad. Augm. Hess. CNVTRAH         .... auto
   Auto Start mean grad. ratio tolernc. ....  1.125000
   Auto Start start iteration           ....    20
   Auto Start num. interpolation iter.  ....    10
   Max. Number of Micro iterations      ....    16
   Max. Number of Macro iterations      .... Maxiter - #DIIS iter
   Number of Davidson start vectors     ....     2
   Converg. threshold I  (grad. norm)   ....   1.000e-05
   Converg. threshold II (energy diff.) ....   1.000e-08
   Grad. Scal. Fac. for Micro threshold ....   0.100
   Minimum threshold for Micro iter.    ....   0.010
   NR start threshold (gradient norm)   ....   0.001
   Initial trust radius                 ....   0.400
   Minimum AH scaling param. (alpha)    ....   1.000
   Maximum AH scaling param. (alpha)    .... 1000.000
   Orbital update algorithm             .... Taylor
   White noise on init. David. guess    .... on
   Maximum white noise                  ....   0.010
   Quad. conv. algorithm                .... NR
 SOSCF                  CNVSOSCF        .... on
   Start iteration      SOSCFMaxIt      ....   150
   Startup grad/error   SOSCFStart      ....  0.003300
 Level Shifting         CNVShift        .... on
   Level shift para.    LevelShift      ....    0.2500
   Turn off err/grad.   ShiftErr        ....    0.0010
 Zerner damping         CNVZerner       .... off
 Static damping         CNVDamp         .... on
   Fraction old density DampFac         ....    0.7000
   Max. Damping (<1)    DampMax         ....    0.9800
   Min. Damping (>=0)   DampMin         ....    0.0000
   Turn off err/grad.   DampErr         ....    0.1000
 Fernandez-Rico         CNVRico         .... off

SCF Procedure:
 Maximum # iterations   MaxIter         ....   150
 SCF integral mode      SCFMode         .... Direct
   Integral package                     .... SHARK and LIBINT hybrid scheme
 Reset frequency        DirectResetFreq ....    20
 Integral Threshold     Thresh          ....  2.500e-11 Eh
 Primitive CutOff       TCut            ....  2.500e-12 Eh

Convergence Tolerance:
 Convergence Check Mode ConvCheckMode   .... Total+1el-Energy
 Convergence forced     ConvForced      .... 0
 Energy Change          TolE            ....  1.000e-08 Eh
 1-El. energy change                    ....  1.000e-05 Eh
 Orbital Gradient       TolG            ....  1.000e-05
 Orbital Rotation angle TolX            ....  1.000e-05
 DIIS Error             TolErr          ....  5.000e-07


Diagonalization of the overlap matrix:
Smallest eigenvalue                        ... 2.111e-06
Time for diagonalization                   ...    0.066 sec
Threshold for overlap eigenvalues          ... 1.000e-08
Number of eigenvalues below threshold      ... 0
Time for construction of square roots      ...    0.079 sec
Total time needed                          ...    0.147 sec

Time for model grid setup =    0.291 sec

------------------------------
INITIAL GUESS: MODEL POTENTIAL
------------------------------
Loading Hartree-Fock densities                     ... done
Calculating cut-offs                               ... done
Initializing the effective Hamiltonian             ... done
Setting up the integral package (SHARK)            ... done
Starting the Coulomb interaction                   ... done (   0.5 sec)
Reading the grid                                   ... done
Mapping shells                                     ... done
Starting the XC term evaluation                    ... done (   0.6 sec)
  promolecular density results
     # of electrons  =     79.998542938
     EX              =    -63.582399760
     EC              =     -2.676971954
     EX+EC           =    -66.259371714
Transforming the Hamiltonian                       ... done (   0.0 sec)
Diagonalizing the Hamiltonian                      ... done (   0.1 sec)
Back transforming the eigenvectors                 ... done (   0.0 sec)
Now organizing SCF variables                       ... done
                      ------------------
                      INITIAL GUESS DONE (   1.5 sec)
                      ------------------
-------------------
DFT GRID GENERATION
-------------------

General Integration Accuracy     IntAcc      ... 4.388
Radial Grid Type                 RadialGrid  ... OptM3 with GC (2021)
Angular Grid (max. ang.)         AngularGrid ... 4 (Lebedev-302)
Angular grid pruning method      GridPruning ... 4 (adaptive)
Weight generation scheme         WeightScheme... Becke
Basis function cutoff            BFCut       ... 1.0000e-11
Integration weight cutoff        WCut        ... 1.0000e-14
Angular grids for H and He will be reduced by one unit
Partially contracted basis set               ... off
Rotationally invariant grid construction     ... off

Total number of grid points                  ...   112107
Total number of batches                      ...     1764
Average number of points per batch           ...       63
Average number of grid points per atom       ...     4484
Time for grid setup =    1.026 sec

--------------------
COSX GRID GENERATION
--------------------

GRIDX 1
-------
General Integration Accuracy     IntAcc      ... 3.816
Radial Grid Type                 RadialGrid  ... OptM3 with GC (2021)
Angular Grid (max. ang.)         AngularGrid ... 1 (Lebedev-50)
Angular grid pruning method      GridPruning ... 4 (adaptive)
Weight generation scheme         WeightScheme... Becke
Basis function cutoff            BFCut       ... 1.0000e-11
Integration weight cutoff        WCut        ... 1.0000e-14
Angular grids for H and He will be reduced by one unit
Partially contracted basis set               ... on
Rotationally invariant grid construction     ... off

Total number of grid points                  ...    14043
Total number of batches                      ...      232
Average number of points per batch           ...       60
Average number of grid points per atom       ...      562
UseSFitting                                  ... on

GRIDX 2
-------
General Integration Accuracy     IntAcc      ... 4.020
Radial Grid Type                 RadialGrid  ... OptM3 with GC (2021)
Angular Grid (max. ang.)         AngularGrid ... 2 (Lebedev-110)
Angular grid pruning method      GridPruning ... 4 (adaptive)
Weight generation scheme         WeightScheme... Becke
Basis function cutoff            BFCut       ... 1.0000e-11
Integration weight cutoff        WCut        ... 1.0000e-14
Angular grids for H and He will be reduced by one unit
Partially contracted basis set               ... on
Rotationally invariant grid construction     ... off

Total number of grid points                  ...    32369
Total number of batches                      ...      518
Average number of points per batch           ...       62
Average number of grid points per atom       ...     1295
UseSFitting                                  ... on

GRIDX 3
-------
General Integration Accuracy     IntAcc      ... 4.338
Radial Grid Type                 RadialGrid  ... OptM3 with GC (2021)
Angular Grid (max. ang.)         AngularGrid ... 3 (Lebedev-194)
Angular grid pruning method      GridPruning ... 4 (adaptive)
Weight generation scheme         WeightScheme... Becke
Basis function cutoff            BFCut       ... 1.0000e-11
Integration weight cutoff        WCut        ... 1.0000e-14
Angular grids for H and He will be reduced by one unit
Partially contracted basis set               ... on
Rotationally invariant grid construction     ... off

Total number of grid points                  ...    72159
Total number of batches                      ...     1140
Average number of points per batch           ...       63
Average number of grid points per atom       ...     2886
UseSFitting                                  ... on

Time for X-Grid setup             =    1.621 sec

--------------
SCF ITERATIONS
--------------
ITER       Energy         Delta-E        Max-DP      RMS-DP      [F,P]     Damp
               ***  Starting incremental Fock matrix formation  ***
  0   -488.4540195712   0.000000000000 0.33350166  0.00266710  0.2775320 0.7000
  1   -488.6392977314  -0.185278160222 0.22960064  0.00216746  0.1233393 0.7000
                               ***Turning on DIIS***
  2   -488.7208034766  -0.081505745252 0.56435825  0.00508347  0.0563286 0.0000
  3   -488.8494417433  -0.128638266667 0.07588196  0.00080822  0.0607965 0.0000
  4   -488.8747700804  -0.025328337072 0.04375634  0.00032881  0.0162329 0.0000
  5   -488.8756273277  -0.000857247324 0.01090527  0.00013141  0.0115832 0.0000
                      *** Initiating the SOSCF procedure ***
                           *** Shutting down DIIS ***
                      *** Re-Reading the Fockian *** 
                      *** Removing any level shift *** 
ITER      Energy       Delta-E        Grad      Rot      Max-DP    RMS-DP
  6   -488.87582613  -0.0001987990  0.000283  0.000283  0.009358  0.000090
               *** Restarting incremental Fock matrix formation ***
  7   -488.87584209  -0.0000159667  0.000076  0.000155  0.011557  0.000129
  8   -488.87584320  -0.0000011037  0.000108  0.000208  0.004254  0.000038
  9   -488.87584373  -0.0000005320  0.000043  0.000055  0.002245  0.000023
 10   -488.87584375  -0.0000000254  0.000034  0.000026  0.000845  0.000007
 11   -488.87584380  -0.0000000491  0.000003  0.000006  0.000239  0.000003
                  ***Gradient check signals convergence***
              ***Rediagonalizing the Fockian in SOSCF/NRSCF***

               *****************************************************
               *                     SUCCESS                       *
               *           SCF CONVERGED AFTER  12 CYCLES          *
               *****************************************************

Old exchange energy                            =    -35.240578110 Eh
New exchange energy                            =    -35.240592054 Eh
Exchange energy change after final integration =     -0.000013943 Eh
Total energy after final integration           =   -488.875857747 Eh
Final COS-X integration done in                =    26.872 sec

----------------
TOTAL SCF ENERGY
----------------

Total Energy       :         -488.87585775 Eh          -13302.98840 eV

Components:
Nuclear Repulsion  :          605.19613761 Eh           16468.22413 eV
Electronic Energy  :        -1094.07199536 Eh          -29771.21253 eV
One Electron Energy:        -1865.67514329 Eh          -50767.60162 eV
Two Electron Energy:          771.60314793 Eh           20996.38909 eV
Max COSX asymmetry :            0.00000894 Eh               0.00024 eV

Virial components:
Potential Energy   :         -975.91064525 Eh          -26555.87873 eV
Kinetic Energy     :          487.03478751 Eh           13252.89033 eV
Virial Ratio       :            2.00378016


DFT components:
N(Alpha)           :       39.999993243589 electrons
N(Beta)            :       39.999993243589 electrons
N(Total)           :       79.999986487179 electrons
E(XC)              :      -32.843675839936 Eh       
DFET-embed. en.    :        0.000000000000 Eh       

---------------
SCF CONVERGENCE
---------------

  Last Energy change         ...    1.9929e-10  Tolerance :   1.0000e-08
  Last MAX-Density change    ...    8.8818e-16  Tolerance :   1.0000e-07
  Last RMS-Density change    ...    1.3664e-17  Tolerance :   5.0000e-09
  Last Orbital Gradient      ...    1.5238e-06  Tolerance :   1.0000e-05
  Last Orbital Rotation      ...    2.6007e-06  Tolerance :   1.0000e-05

             **** THE GBW FILE WAS UPDATED (28Oct_TZVPD_M062X_D2_wb97.gbw) ****
             **** DENSITY 28Oct_TZVPD_M062X_D2_wb97.scfp WAS UPDATED ****
             **** ENERGY FILE WAS UPDATED (28Oct_TZVPD_M062X_D2_wb97.en.tmp) ****
             **** THE GBW FILE WAS UPDATED (28Oct_TZVPD_M062X_D2_wb97.gbw) ****
             **** DENSITY 28Oct_TZVPD_M062X_D2_wb97.scfp WAS UPDATED ****
----------------
ORBITAL ENERGIES
----------------

  NO   OCC          E(Eh)            E(eV) 
   0   2.0000     -25.322791      -689.0682 
   1   2.0000     -19.639800      -534.4261 
   2   2.0000     -10.728611      -291.9404 
   3   2.0000     -10.570345      -287.6337 
   4   2.0000     -10.553735      -287.1817 
   5   2.0000     -10.537882      -286.7503 
   6   2.0000     -10.524998      -286.3997 
   7   2.0000     -10.520329      -286.2727 
   8   2.0000     -10.507731      -285.9299 
   9   2.0000     -10.458402      -284.5876 
  10   2.0000      -1.476431       -40.1757 
  11   2.0000      -1.168651       -31.8006 
  12   2.0000      -0.929535       -25.2939 
  13   2.0000      -0.895150       -24.3583 
  14   2.0000      -0.843216       -22.9451 
  15   2.0000      -0.802365       -21.8335 
  16   2.0000      -0.761879       -20.7318 
  17   2.0000      -0.727347       -19.7921 
  18   2.0000      -0.689631       -18.7658 
  19   2.0000      -0.656731       -17.8705 
  20   2.0000      -0.649457       -17.6726 
  21   2.0000      -0.632461       -17.2101 
  22   2.0000      -0.596389       -16.2286 
  23   2.0000      -0.552449       -15.0329 
  24   2.0000      -0.531489       -14.4626 
  25   2.0000      -0.513844       -13.9824 
  26   2.0000      -0.510304       -13.8861 
  27   2.0000      -0.498585       -13.5672 
  28   2.0000      -0.488546       -13.2940 
  29   2.0000      -0.461005       -12.5446 
  30   2.0000      -0.450783       -12.2664 
  31   2.0000      -0.443963       -12.0809 
  32   2.0000      -0.432063       -11.7570 
  33   2.0000      -0.412054       -11.2126 
  34   2.0000      -0.395441       -10.7605 
  35   2.0000      -0.391668       -10.6578 
  36   2.0000      -0.377030       -10.2595 
  37   2.0000      -0.363983        -9.9045 
  38   2.0000      -0.360776        -9.8172 
  39   2.0000      -0.331588        -9.0230 
  40   0.0000      -0.001744        -0.0475 
  41   0.0000       0.012266         0.3338 
  42   0.0000       0.026321         0.7162 
  43   0.0000       0.027160         0.7391 
  44   0.0000       0.033087         0.9003 
  45   0.0000       0.049130         1.3369 
  46   0.0000       0.053812         1.4643 
  47   0.0000       0.056177         1.5286 
  48   0.0000       0.063747         1.7346 
  49   0.0000       0.066465         1.8086 
  50   0.0000       0.081146         2.2081 
  51   0.0000       0.091005         2.4764 
  52   0.0000       0.101625         2.7654 
  53   0.0000       0.102799         2.7973 
  54   0.0000       0.105506         2.8710 
  55   0.0000       0.112719         3.0672 
  56   0.0000       0.115316         3.1379 
  57   0.0000       0.133011         3.6194 
  58   0.0000       0.136847         3.7238 
  59   0.0000       0.147126         4.0035 
  60   0.0000       0.153396         4.1741 
  61   0.0000       0.158271         4.3068 
  62   0.0000       0.161478         4.3940 
  63   0.0000       0.168157         4.5758 
  64   0.0000       0.176894         4.8135 
  65   0.0000       0.178595         4.8598 
  66   0.0000       0.188570         5.1313 
  67   0.0000       0.192636         5.2419 
  68   0.0000       0.199613         5.4317 
  69   0.0000       0.204189         5.5563 
  70   0.0000       0.211681         5.7601 
  71   0.0000       0.214672         5.8415 
  72   0.0000       0.218466         5.9448 
  73   0.0000       0.222812         6.0630 
  74   0.0000       0.228067         6.2060 
  75   0.0000       0.230618         6.2754 
  76   0.0000       0.234300         6.3756 
  77   0.0000       0.237985         6.4759 
  78   0.0000       0.241928         6.5832 
  79   0.0000       0.245920         6.6918 
  80   0.0000       0.251445         6.8422 
  81   0.0000       0.253607         6.9010 
  82   0.0000       0.257423         7.0048 
  83   0.0000       0.261112         7.1052 
  84   0.0000       0.267287         7.2733 
  85   0.0000       0.270326         7.3559 
  86   0.0000       0.277199         7.5430 
  87   0.0000       0.280591         7.6353 
  88   0.0000       0.282818         7.6959 
  89   0.0000       0.289230         7.8703 
  90   0.0000       0.296667         8.0727 
  91   0.0000       0.297242         8.0884 
  92   0.0000       0.302289         8.2257 
  93   0.0000       0.304966         8.2986 
  94   0.0000       0.306393         8.3374 
  95   0.0000       0.311112         8.4658 
  96   0.0000       0.317862         8.6495 
  97   0.0000       0.321142         8.7387 
  98   0.0000       0.323749         8.8097 
  99   0.0000       0.327814         8.9203 
 100   0.0000       0.331401         9.0179 
 101   0.0000       0.337202         9.1757 
 102   0.0000       0.339658         9.2426 
 103   0.0000       0.342087         9.3087 
 104   0.0000       0.350364         9.5339 
 105   0.0000       0.357858         9.7378 
 106   0.0000       0.363114         9.8808 
 107   0.0000       0.368886        10.0379 
 108   0.0000       0.373744        10.1701 
 109   0.0000       0.374837        10.1998 
 110   0.0000       0.380937        10.3658 
 111   0.0000       0.383852        10.4452 
 112   0.0000       0.386799        10.5253 
 113   0.0000       0.394396        10.7321 
 114   0.0000       0.396375        10.7859 
 115   0.0000       0.397712        10.8223 
 116   0.0000       0.402939        10.9645 
 117   0.0000       0.406202        11.0533 
 118   0.0000       0.408167        11.1068 
 119   0.0000       0.411903        11.2085 
 120   0.0000       0.412967        11.2374 
 121   0.0000       0.417996        11.3742 
 122   0.0000       0.421691        11.4748 
 123   0.0000       0.427271        11.6266 
 124   0.0000       0.437492        11.9048 
 125   0.0000       0.440478        11.9860 
 126   0.0000       0.446347        12.1457 
 127   0.0000       0.448982        12.2174 
 128   0.0000       0.449502        12.2316 
 129   0.0000       0.456749        12.4288 
 130   0.0000       0.460686        12.5359 
 131   0.0000       0.466998        12.7077 
 132   0.0000       0.476638        12.9700 
 133   0.0000       0.478237        13.0135 
 134   0.0000       0.482469        13.1287 
 135   0.0000       0.492473        13.4009 
 136   0.0000       0.495156        13.4739 
 137   0.0000       0.499857        13.6018 
 138   0.0000       0.502989        13.6870 
 139   0.0000       0.508136        13.8271 
 140   0.0000       0.514050        13.9880 
 141   0.0000       0.519735        14.1427 
 142   0.0000       0.520750        14.1703 
 143   0.0000       0.525237        14.2924 
 144   0.0000       0.530778        14.4432 
 145   0.0000       0.541783        14.7427 
 146   0.0000       0.544091        14.8055 
 147   0.0000       0.551212        14.9992 
 148   0.0000       0.555255        15.1093 
 149   0.0000       0.561793        15.2872 
 150   0.0000       0.563468        15.3327 
 151   0.0000       0.574180        15.6242 
 152   0.0000       0.579584        15.7713 
 153   0.0000       0.585581        15.9345 
 154   0.0000       0.592105        16.1120 
 155   0.0000       0.598651        16.2901 
 156   0.0000       0.600067        16.3286 
 157   0.0000       0.607066        16.5191 
 158   0.0000       0.612626        16.6704 
 159   0.0000       0.618228        16.8228 
 160   0.0000       0.622411        16.9367 
 161   0.0000       0.629788        17.1374 
 162   0.0000       0.630376        17.1534 
 163   0.0000       0.633866        17.2484 
 164   0.0000       0.639177        17.3929 
 165   0.0000       0.643681        17.5155 
 166   0.0000       0.656900        17.8752 
 167   0.0000       0.662629        18.0310 
 168   0.0000       0.668688        18.1959 
 169   0.0000       0.682414        18.5694 
 170   0.0000       0.685110        18.6428 
 171   0.0000       0.686646        18.6846 
 172   0.0000       0.691339        18.8123 
 173   0.0000       0.695914        18.9368 
 174   0.0000       0.702477        19.1154 
 175   0.0000       0.707881        19.2624 
 176   0.0000       0.714269        19.4362 
 177   0.0000       0.718603        19.5542 
 178   0.0000       0.721949        19.6452 
 179   0.0000       0.728661        19.8279 
 180   0.0000       0.739103        20.1120 
 181   0.0000       0.743632        20.2352 
 182   0.0000       0.744794        20.2669 
 183   0.0000       0.748329        20.3631 
 184   0.0000       0.749981        20.4080 
 185   0.0000       0.754661        20.5354 
 186   0.0000       0.761198        20.7133 
 187   0.0000       0.764393        20.8002 
 188   0.0000       0.767414        20.8824 
 189   0.0000       0.781072        21.2541 
 190   0.0000       0.785221        21.3669 
 191   0.0000       0.788679        21.4610 
 192   0.0000       0.795073        21.6350 
 193   0.0000       0.800045        21.7703 
 194   0.0000       0.803912        21.8756 
 195   0.0000       0.816929        22.2298 
 196   0.0000       0.821621        22.3575 
 197   0.0000       0.825252        22.4563 
 198   0.0000       0.829258        22.5653 
 199   0.0000       0.838862        22.8266 
 200   0.0000       0.843287        22.9470 
 201   0.0000       0.848720        23.0948 
 202   0.0000       0.856746        23.3132 
 203   0.0000       0.864445        23.5227 
 204   0.0000       0.867052        23.5937 
 205   0.0000       0.879347        23.9283 
 206   0.0000       0.889299        24.1990 
 207   0.0000       0.904380        24.6094 
 208   0.0000       0.911471        24.8024 
 209   0.0000       0.918312        24.9885 
 210   0.0000       0.925983        25.1973 
 211   0.0000       0.930137        25.3103 
 212   0.0000       0.942118        25.6363 
 213   0.0000       0.959605        26.1122 
 214   0.0000       0.967499        26.3270 
 215   0.0000       0.977220        26.5915 
 216   0.0000       0.982567        26.7370 
 217   0.0000       0.988575        26.9005 
 218   0.0000       1.005133        27.3511 
 219   0.0000       1.013828        27.5877 
 220   0.0000       1.018280        27.7088 
 221   0.0000       1.022555        27.8251 
 222   0.0000       1.038949        28.2712 
 223   0.0000       1.046252        28.4700 
 224   0.0000       1.055746        28.7283 
 225   0.0000       1.082284        29.4505 
 226   0.0000       1.091023        29.6883 
 227   0.0000       1.099535        29.9199 
 228   0.0000       1.116727        30.3877 
 229   0.0000       1.123601        30.5747 
 230   0.0000       1.143499        31.1162 
 231   0.0000       1.163528        31.6612 
 232   0.0000       1.165975        31.7278 
 233   0.0000       1.174460        31.9587 
 234   0.0000       1.201550        32.6958 
 235   0.0000       1.216558        33.1042 
 236   0.0000       1.221005        33.2252 
 237   0.0000       1.234723        33.5985 
 238   0.0000       1.250016        34.0147 
 239   0.0000       1.253151        34.1000 
 240   0.0000       1.274210        34.6730 
 241   0.0000       1.278764        34.7969 
 242   0.0000       1.287925        35.0462 
 243   0.0000       1.304341        35.4929 
 244   0.0000       1.330656        36.2090 
 245   0.0000       1.349363        36.7180 
 246   0.0000       1.361165        37.0392 
 247   0.0000       1.368099        37.2279 
 248   0.0000       1.377218        37.4760 
 249   0.0000       1.383054        37.6348 
 250   0.0000       1.400332        38.1050 
 251   0.0000       1.415347        38.5135 
 252   0.0000       1.420345        38.6496 
 253   0.0000       1.429109        38.8880 
 254   0.0000       1.436435        39.0874 
 255   0.0000       1.446432        39.3594 
 256   0.0000       1.467609        39.9357 
 257   0.0000       1.473277        40.0899 
 258   0.0000       1.480737        40.2929 
 259   0.0000       1.485894        40.4332 
 260   0.0000       1.509246        41.0687 
 261   0.0000       1.530152        41.6376 
 262   0.0000       1.536663        41.8147 
 263   0.0000       1.543500        42.0008 
 264   0.0000       1.567630        42.6574 
 265   0.0000       1.575618        42.8748 
 266   0.0000       1.601601        43.5818 
 267   0.0000       1.607530        43.7431 
 268   0.0000       1.635326        44.4995 
 269   0.0000       1.660031        45.1717 
 270   0.0000       1.666688        45.3529 
 271   0.0000       1.809200        49.2308 
 272   0.0000       1.833062        49.8802 
 273   0.0000       1.842414        50.1346 
 274   0.0000       1.847400        50.2703 
 275   0.0000       1.856368        50.5143 
 276   0.0000       1.871673        50.9308 
 277   0.0000       1.881347        51.1940 
 278   0.0000       1.891521        51.4709 
 279   0.0000       1.898191        51.6524 
 280   0.0000       1.907710        51.9114 
 281   0.0000       1.920224        52.2520 
 282   0.0000       1.927329        52.4453 
 283   0.0000       1.933737        52.6197 
 284   0.0000       1.937254        52.7154 
 285   0.0000       1.945304        52.9344 
 286   0.0000       1.954265        53.1783 
 287   0.0000       1.961390        53.3721 
 288   0.0000       1.966623        53.5145 
 289   0.0000       1.983193        53.9654 
 290   0.0000       1.987780        54.0902 
 291   0.0000       1.996134        54.3176 
 292   0.0000       2.005018        54.5593 
 293   0.0000       2.033374        55.3309 
 294   0.0000       2.047300        55.7099 
 295   0.0000       2.052951        55.8636 
 296   0.0000       2.074775        56.4575 
 297   0.0000       2.085060        56.7374 
 298   0.0000       2.105773        57.3010 
 299   0.0000       2.114243        57.5315 
 300   0.0000       2.137354        58.1604 
 301   0.0000       2.144914        58.3661 
 302   0.0000       2.166321        58.9486 
 303   0.0000       2.177705        59.2584 
 304   0.0000       2.197918        59.8084 
 305   0.0000       2.208076        60.0848 
 306   0.0000       2.209517        60.1240 
 307   0.0000       2.229320        60.6629 
 308   0.0000       2.236681        60.8632 
 309   0.0000       2.244150        61.0664 
 310   0.0000       2.257844        61.4391 
 311   0.0000       2.278064        61.9893 
 312   0.0000       2.283975        62.1501 
 313   0.0000       2.304525        62.7093 
 314   0.0000       2.311904        62.9101 
 315   0.0000       2.326431        63.3054 
 316   0.0000       2.337801        63.6148 
 317   0.0000       2.359345        64.2010 
 318   0.0000       2.382491        64.8309 
 319   0.0000       2.403763        65.4097 
 320   0.0000       2.411254        65.6136 
 321   0.0000       2.429094        66.0990 
 322   0.0000       2.435855        66.2830 
 323   0.0000       2.466205        67.1089 
 324   0.0000       2.481055        67.5129 
 325   0.0000       2.499028        68.0020 
 326   0.0000       2.500764        68.0492 
 327   0.0000       2.515104        68.4395 
 328   0.0000       2.539436        69.1016 
 329   0.0000       2.553237        69.4771 
 330   0.0000       2.568622        69.8958 
 331   0.0000       2.593906        70.5838 
 332   0.0000       2.616815        71.2072 
 333   0.0000       2.626568        71.4725 
 334   0.0000       2.638771        71.8046 
 335   0.0000       2.652701        72.1837 
 336   0.0000       2.657135        72.3043 
 337   0.0000       2.675114        72.7935 
 338   0.0000       2.679781        72.9205 
 339   0.0000       2.685745        73.0828 
 340   0.0000       2.699060        73.4452 
 341   0.0000       2.728155        74.2369 
 342   0.0000       2.730605        74.3035 
 343   0.0000       2.732943        74.3672 
 344   0.0000       2.738360        74.5146 
 345   0.0000       2.748182        74.7818 
 346   0.0000       2.763940        75.2106 
 347   0.0000       2.772411        75.4411 
 348   0.0000       2.780018        75.6481 
 349   0.0000       2.782964        75.7283 
 350   0.0000       2.805593        76.3441 
 351   0.0000       2.825379        76.8825 
 352   0.0000       2.830793        77.0298 
 353   0.0000       2.837664        77.2168 
 354   0.0000       2.851285        77.5874 
 355   0.0000       2.859292        77.8053 
 356   0.0000       2.868788        78.0637 
 357   0.0000       2.876894        78.2843 
 358   0.0000       2.890247        78.6476 
 359   0.0000       2.918523        79.4170 
 360   0.0000       2.929448        79.7143 
 361   0.0000       2.937283        79.9275 
 362   0.0000       2.956577        80.4526 
 363   0.0000       2.982188        81.1495 
 364   0.0000       2.989407        81.3459 
 365   0.0000       2.996953        81.5512 
 366   0.0000       3.008754        81.8724 
 367   0.0000       3.023043        82.2612 
 368   0.0000       3.039733        82.7153 
 369   0.0000       3.052150        83.0532 
 370   0.0000       3.055047        83.1321 
 371   0.0000       3.077981        83.7561 
 372   0.0000       3.104430        84.4758 
 373   0.0000       3.120417        84.9109 
 374   0.0000       3.145222        85.5859 
 375   0.0000       3.176987        86.4502 
 376   0.0000       3.184879        86.6650 
 377   0.0000       3.206430        87.2514 
 378   0.0000       3.214823        87.4798 
 379   0.0000       3.232082        87.9494 
 380   0.0000       3.237727        88.1030 
 381   0.0000       3.255215        88.5789 
 382   0.0000       3.279411        89.2373 
 383   0.0000       3.287863        89.4673 
 384   0.0000       3.300760        89.8182 
 385   0.0000       3.307864        90.0115 
 386   0.0000       3.329765        90.6075 
 387   0.0000       3.335795        90.7716 
 388   0.0000       3.343354        90.9773 
 389   0.0000       3.361095        91.4600 
 390   0.0000       3.371290        91.7375 
 391   0.0000       3.383391        92.0667 
 392   0.0000       3.391571        92.2893 
 393   0.0000       3.413339        92.8817 
 394   0.0000       3.416553        92.9691 
 395   0.0000       3.429354        93.3175 
 396   0.0000       3.443137        93.6925 
 397   0.0000       3.459099        94.1269 
 398   0.0000       3.469355        94.4059 
 399   0.0000       3.478651        94.6589 
 400   0.0000       3.487578        94.9018 
 401   0.0000       3.499094        95.2152 
 402   0.0000       3.517253        95.7093 
 403   0.0000       3.521360        95.8211 
 404   0.0000       3.525837        95.9429 
 405   0.0000       3.538763        96.2946 
 406   0.0000       3.550636        96.6177 
 407   0.0000       3.567309        97.0714 
 408   0.0000       3.571652        97.1896 
 409   0.0000       3.600507        97.9748 
 410   0.0000       3.612772        98.3085 
 411   0.0000       3.622559        98.5748 
 412   0.0000       3.638923        99.0201 
 413   0.0000       3.640842        99.0723 
 414   0.0000       3.657828        99.5346 
 415   0.0000       3.669566        99.8540 
 416   0.0000       3.676221       100.0351 
 417   0.0000       3.688774       100.3766 
 418   0.0000       3.702758       100.7572 
 419   0.0000       3.734813       101.6294 
 420   0.0000       3.767642       102.5227 
 421   0.0000       3.778627       102.8217 
 422   0.0000       3.793440       103.2248 
 423   0.0000       3.817248       103.8726 
 424   0.0000       3.826934       104.1362 
 425   0.0000       3.849288       104.7444 
 426   0.0000       3.859661       105.0267 
 427   0.0000       3.889843       105.8480 
 428   0.0000       3.904707       106.2525 
 429   0.0000       3.912214       106.4567 
 430   0.0000       3.963249       107.8455 
 431   0.0000       3.995997       108.7366 
 432   0.0000       4.002463       108.9126 
 433   0.0000       4.028240       109.6140 
 434   0.0000       4.035408       109.8090 
 435   0.0000       4.039695       109.9257 
 436   0.0000       4.050669       110.2243 
 437   0.0000       4.081481       111.0628 
 438   0.0000       4.091912       111.3466 
 439   0.0000       4.103773       111.6693 
 440   0.0000       4.127285       112.3091 
 441   0.0000       4.145303       112.7994 
 442   0.0000       4.172667       113.5440 
 443   0.0000       4.177652       113.6797 
 444   0.0000       4.196809       114.2010 
 445   0.0000       4.217670       114.7686 
 446   0.0000       4.228032       115.0506 
 447   0.0000       4.267314       116.1195 
 448   0.0000       4.314791       117.4114 
 449   0.0000       4.321053       117.5818 
 450   0.0000       4.350119       118.3728 
 451   0.0000       4.355339       118.5148 
 452   0.0000       4.430363       120.5563 
 453   0.0000       4.459266       121.3428 
 454   0.0000       4.502563       122.5210 
 455   0.0000       4.523721       123.0967 
 456   0.0000       4.572849       124.4336 
 457   0.0000       4.594969       125.0355 
 458   0.0000       4.605411       125.3196 
 459   0.0000       4.645577       126.4126 
 460   0.0000       4.671985       127.1312 
 461   0.0000       4.706463       128.0694 
 462   0.0000       4.746428       129.1569 
 463   0.0000       4.767964       129.7429 
 464   0.0000       4.798661       130.5782 
 465   0.0000       4.833261       131.5197 
 466   0.0000       4.837582       131.6373 
 467   0.0000       4.850435       131.9871 
 468   0.0000       4.877567       132.7254 
 469   0.0000       4.907570       133.5418 
 470   0.0000       4.960747       134.9888 
 471   0.0000       4.993727       135.8862 
 472   0.0000       5.048692       137.3819 
 473   0.0000       5.094111       138.6178 
 474   0.0000       5.118427       139.2795 
 475   0.0000       5.155099       140.2774 
 476   0.0000       5.222549       142.1128 
 477   0.0000       5.350374       145.5911 
 478   0.0000       5.520789       150.2283 
 479   0.0000       5.543217       150.8386 
 480   0.0000       5.722693       155.7224 
 481   0.0000       6.007575       163.4744 
 482   0.0000       6.202557       168.7801 
 483   0.0000       6.278816       170.8553 
 484   0.0000       6.615337       180.0125 
 485   0.0000       6.715893       182.7487 
 486   0.0000       6.859778       186.6641 
 487   0.0000       6.864708       186.7982 
 488   0.0000       6.908306       187.9846 
 489   0.0000       6.951944       189.1720 
 490   0.0000       7.102200       193.2607 
 491   0.0000       7.169686       195.0971 
 492   0.0000       7.255428       197.4302 
 493   0.0000       7.419068       201.8831 
 494   0.0000       7.565240       205.8607 
 495   0.0000       7.816407       212.6952 
 496   0.0000       8.606560       234.1964 
 497   0.0000       8.659033       235.6243 
 498   0.0000       8.874207       241.4795 
 499   0.0000       9.029539       245.7063 
 500   0.0000       9.275604       252.4020 
 501   0.0000      22.803084       620.5035 
 502   0.0000      22.840649       621.5257 
 503   0.0000      22.882461       622.6634 
 504   0.0000      22.905013       623.2771 
 505   0.0000      22.925718       623.8405 
 506   0.0000      23.044754       627.0796 
 507   0.0000      23.101095       628.6128 
 508   0.0000      23.543591       640.6537 
 509   0.0000      44.574681      1212.9387 
 510   0.0000      58.092269      1580.7710 

                    ********************************
                    * MULLIKEN POPULATION ANALYSIS *
                    ********************************

-----------------------
MULLIKEN ATOMIC CHARGES
-----------------------
   0 C :   -0.495305
   1 H :    0.336555
   2 C :   -1.413231
   3 C :   -0.476845
   4 H :    0.318631
   5 C :   -0.481590
   6 C :   -0.942718
   7 H :    0.355523
   8 H :    0.374130
   9 C :   -0.556354
  10 H :    0.377991
  11 H :    0.273548
  12 C :   -0.690214
  13 C :    0.766759
  14 H :    0.380918
  15 H :    0.315624
  16 H :    0.441465
  17 H :    0.466073
  18 H :    0.382327
  19 O :   -0.690048
  20 F :   -0.308146
  21 H :    0.399391
  22 H :    0.269086
  23 H :    0.205612
  24 H :    0.390819
Sum of atomic charges:   -0.0000000

--------------------------------
MULLIKEN REDUCED ORBITAL CHARGES
--------------------------------
  0 C s       :     3.304766  s :     3.304766
      pz      :     0.983744  p :     3.266687
      px      :     1.305800
      py      :     0.977143
      dz2     :    -0.002423  d :    -0.081568
      dxz     :    -0.036469
      dyz     :    -0.035696
      dx2y2   :    -0.004977
      dxy     :    -0.002003
      f0      :     0.001132  f :     0.005420
      f+1     :     0.000856
      f-1     :     0.000900
      f+2     :     0.000768
      f-2     :     0.000378
      f+3     :     0.000665
      f-3     :     0.000719
  1 H s       :     0.598655  s :     0.598655
      pz      :     0.027190  p :     0.064790
      px      :     0.031668
      py      :     0.005932
  2 C s       :     3.739618  s :     3.739618
      pz      :     1.014792  p :     3.640974
      px      :     1.326343
      py      :     1.299840
      dz2     :    -0.015530  d :     0.029349
      dxz     :    -0.012124
      dyz     :    -0.008093
      dx2y2   :     0.024236
      dxy     :     0.040860
      f0      :     0.000837  f :     0.003290
      f+1     :     0.000797
      f-1     :     0.000619
      f+2     :     0.000321
      f-2     :     0.000304
      f+3     :     0.000363
      f-3     :     0.000049
  3 C s       :     3.303849  s :     3.303849
      pz      :     1.222105  p :     3.216796
      px      :     0.912844
      py      :     1.081848
      dz2     :     0.005810  d :    -0.048868
      dxz     :    -0.034920
      dyz     :     0.008406
      dx2y2   :    -0.017750
      dxy     :    -0.010413
      f0      :     0.000847  f :     0.005069
      f+1     :     0.000467
      f-1     :     0.000375
      f+2     :     0.000774
      f-2     :     0.000563
      f+3     :     0.001112
      f-3     :     0.000930
  4 H s       :     0.618026  s :     0.618026
      pz      :     0.024443  p :     0.063342
      px      :     0.024672
      py      :     0.014228
  5 C s       :     3.355898  s :     3.355898
      pz      :     1.268561  p :     3.182992
      px      :     0.926800
      py      :     0.987631
      dz2     :    -0.022123  d :    -0.062281
      dxz     :    -0.008165
      dyz     :     0.004023
      dx2y2   :     0.001296
      dxy     :    -0.037312
      f0      :     0.000335  f :     0.004981
      f+1     :     0.000748
      f-1     :     0.000638
      f+2     :     0.000963
      f-2     :     0.000425
      f+3     :     0.001062
      f-3     :     0.000810
  6 C s       :     3.513437  s :     3.513437
      pz      :     1.163379  p :     3.399601
      px      :     1.222891
      py      :     1.013331
      dz2     :    -0.002693  d :     0.024679
      dxz     :     0.000987
      dyz     :     0.005332
      dx2y2   :     0.037103
      dxy     :    -0.016050
      f0      :     0.000632  f :     0.005001
      f+1     :     0.000565
      f-1     :     0.000818
      f+2     :     0.001036
      f-2     :     0.000529
      f+3     :     0.000908
      f-3     :     0.000514
  7 H s       :     0.583466  s :     0.583466
      pz      :     0.027147  p :     0.061011
      px      :     0.018807
      py      :     0.015057
  8 H s       :     0.574608  s :     0.574608
      pz      :     0.009339  p :     0.051262
      px      :     0.028577
      py      :     0.013346
  9 C s       :     3.386313  s :     3.386313
      pz      :     0.872154  p :     3.204544
      px      :     1.171674
      py      :     1.160716
      dz2     :    -0.022296  d :    -0.039509
      dxz     :    -0.020508
      dyz     :     0.003638
      dx2y2   :     0.017826
      dxy     :    -0.018171
      f0      :     0.001109  f :     0.005006
      f+1     :     0.000777
      f-1     :     0.000750
      f+2     :     0.000883
      f-2     :     0.000712
      f+3     :     0.000520
      f-3     :     0.000257
 10 H s       :     0.565261  s :     0.565261
      pz      :     0.014345  p :     0.056749
      px      :     0.016813
      py      :     0.025591
 11 H s       :     0.682846  s :     0.682846
      pz      :     0.017392  p :     0.043606
      px      :     0.020020
      py      :     0.006193
 12 C s       :     3.420756  s :     3.420756
      pz      :     1.079148  p :     3.216903
      px      :     1.212920
      py      :     0.924835
      dz2     :     0.006953  d :     0.047756
      dxz     :    -0.002924
      dyz     :     0.006066
      dx2y2   :     0.033961
      dxy     :     0.003700
      f0      :     0.000821  f :     0.004799
      f+1     :     0.000661
      f-1     :     0.000764
      f+2     :     0.000571
      f-2     :     0.000540
      f+3     :     0.000884
      f-3     :     0.000558
 13 C s       :     3.143775  s :     3.143775
      pz      :     0.667033  p :     1.780521
      px      :     0.418806
      py      :     0.694682
      dz2     :     0.032283  d :     0.281624
      dxz     :     0.091823
      dyz     :     0.047975
      dx2y2   :     0.069434
      dxy     :     0.040108
      f0      :     0.002421  f :     0.027321
      f+1     :     0.002858
      f-1     :     0.001377
      f+2     :     0.003534
      f-2     :     0.002853
      f+3     :     0.003320
      f-3     :     0.010957
 14 H s       :     0.583524  s :     0.583524
      pz      :     0.022079  p :     0.035558
      px      :     0.006754
      py      :     0.006725
 15 H s       :     0.643383  s :     0.643383
      pz      :     0.001730  p :     0.040994
      px      :     0.033340
      py      :     0.005924
 16 H s       :     0.604001  s :     0.604001
      pz      :     0.018209  p :    -0.045466
      px      :    -0.037300
      py      :    -0.026375
 17 H s       :     0.544147  s :     0.544147
      pz      :     0.034423  p :    -0.010220
      px      :    -0.017673
      py      :    -0.026970
 18 H s       :     0.539601  s :     0.539601
      pz      :     0.024901  p :     0.078072
      px      :     0.027274
      py      :     0.025897
 19 O s       :     4.116376  s :     4.116376
      pz      :     1.407937  p :     4.538703
      px      :     1.637755
      py      :     1.493010
      dz2     :     0.003508  d :     0.033077
      dxz     :     0.003417
      dyz     :     0.012371
      dx2y2   :     0.004087
      dxy     :     0.009693
      f0      :     0.000129  f :     0.001892
      f+1     :     0.000093
      f-1     :     0.000152
      f+2     :     0.000065
      f-2     :     0.000439
      f+3     :     0.000521
      f-3     :     0.000492
 20 F s       :     4.034802  s :     4.034802
      pz      :     1.833507  p :     5.253451
      px      :     1.478663
      py      :     1.941282
      dz2     :     0.002540  d :     0.018945
      dxz     :     0.004914
      dyz     :     0.006022
      dx2y2   :     0.006803
      dxy     :    -0.001335
      f0      :     0.000084  f :     0.000948
      f+1     :     0.000159
      f-1     :     0.000008
      f+2     :     0.000191
      f-2     :     0.000033
      f+3     :     0.000286
      f-3     :     0.000187
 21 H s       :     0.556972  s :     0.556972
      pz      :     0.020340  p :     0.043637
      px      :     0.012957
      py      :     0.010340
 22 H s       :     0.710653  s :     0.710653
      pz      :     0.012746  p :     0.020261
      px      :    -0.007328
      py      :     0.014843
 23 H s       :     0.738146  s :     0.738146
      pz      :     0.030631  p :     0.056242
      px      :     0.002750
      py      :     0.022862
 24 H s       :     0.547446  s :     0.547446
      pz      :     0.034372  p :     0.061735
      px      :     0.002155
      py      :     0.025209


                     *******************************
                     * LOEWDIN POPULATION ANALYSIS *
                     *******************************

----------------------
LOEWDIN ATOMIC CHARGES
----------------------
   0 C :   -0.245116
   1 H :    0.107052
   2 C :   -0.122043
   3 C :   -0.210357
   4 H :    0.114791
   5 C :   -0.202091
   6 C :   -0.203712
   7 H :    0.115524
   8 H :    0.113300
   9 C :   -0.200831
  10 H :    0.113528
  11 H :    0.108003
  12 C :   -0.081338
  13 C :   -0.456962
  14 H :    0.125921
  15 H :    0.131737
  16 H :    0.044240
  17 H :    0.024104
  18 H :    0.074308
  19 O :    0.049015
  20 F :    0.165522
  21 H :    0.118328
  22 H :    0.102152
  23 H :    0.102195
  24 H :    0.112729

-------------------------------
LOEWDIN REDUCED ORBITAL CHARGES
-------------------------------
  0 C s       :     2.665405  s :     2.665405
      pz      :     0.944176  p :     2.773162
      px      :     0.918635
      py      :     0.910351
      dz2     :     0.140967  d :     0.762557
      dxz     :     0.172101
      dyz     :     0.193872
      dx2y2   :     0.111988
      dxy     :     0.143630
      f0      :     0.008823  f :     0.043992
      f+1     :     0.005782
      f-1     :     0.008104
      f+2     :     0.006538
      f-2     :     0.004502
      f+3     :     0.004572
      f-3     :     0.005669
  1 H s       :     0.689847  s :     0.689847
      pz      :     0.066328  p :     0.203101
      px      :     0.084270
      py      :     0.052503
  2 C s       :     2.677732  s :     2.677732
      pz      :     0.943254  p :     2.870121
      px      :     0.979905
      py      :     0.946962
      dz2     :     0.134990  d :     0.543854
      dxz     :     0.164878
      dyz     :     0.122161
      dx2y2   :     0.056676
      dxy     :     0.065149
      f0      :     0.006673  f :     0.030336
      f+1     :     0.005307
      f-1     :     0.006412
      f+2     :     0.004342
      f-2     :     0.003757
      f+3     :     0.003140
      f-3     :     0.000705
  3 C s       :     2.664100  s :     2.664100
      pz      :     0.912686  p :     2.743278
      px      :     0.915036
      py      :     0.915556
      dz2     :     0.139870  d :     0.762783
      dxz     :     0.114687
      dyz     :     0.132860
      dx2y2   :     0.174156
      dxy     :     0.201210
      f0      :     0.006212  f :     0.040196
      f+1     :     0.003282
      f-1     :     0.003304
      f+2     :     0.006283
      f-2     :     0.005874
      f+3     :     0.007931
      f-3     :     0.007309
  4 H s       :     0.684685  s :     0.684685
      pz      :     0.055539  p :     0.200524
      px      :     0.083260
      py      :     0.061725
  5 C s       :     2.662884  s :     2.662884
      pz      :     0.920113  p :     2.746335
      px      :     0.919362
      py      :     0.906860
      dz2     :     0.096851  d :     0.753629
      dxz     :     0.159360
      dyz     :     0.147206
      dx2y2   :     0.180143
      dxy     :     0.170070
      f0      :     0.002931  f :     0.039243
      f+1     :     0.005700
      f-1     :     0.005638
      f+2     :     0.005805
      f-2     :     0.004045
      f+3     :     0.008499
      f-3     :     0.006625
  6 C s       :     2.672237  s :     2.672237
      pz      :     0.911395  p :     2.755820
      px      :     0.919039
      py      :     0.925386
      dz2     :     0.133769  d :     0.736935
      dxz     :     0.093002
      dyz     :     0.210494
      dx2y2   :     0.176743
      dxy     :     0.122928
      f0      :     0.004801  f :     0.038720
      f+1     :     0.004262
      f-1     :     0.007160
      f+2     :     0.006371
      f-2     :     0.004871
      f+3     :     0.006953
      f-3     :     0.004303
  7 H s       :     0.682584  s :     0.682584
      pz      :     0.082436  p :     0.201891
      px      :     0.055065
      py      :     0.064391
  8 H s       :     0.682746  s :     0.682746
      pz      :     0.057020  p :     0.203954
      px      :     0.094008
      py      :     0.052926
  9 C s       :     2.667271  s :     2.667271
      pz      :     0.903862  p :     2.753023
      px      :     0.934772
      py      :     0.914388
      dz2     :     0.219469  d :     0.741811
      dxz     :     0.154378
      dyz     :     0.140901
      dx2y2   :     0.163759
      dxy     :     0.063303
      f0      :     0.008216  f :     0.038727
      f+1     :     0.006122
      f-1     :     0.006186
      f+2     :     0.005358
      f-2     :     0.006342
      f+3     :     0.004106
      f-3     :     0.002397
 10 H s       :     0.683363  s :     0.683363
      pz      :     0.053057  p :     0.203109
      px      :     0.055704
      py      :     0.094348
 11 H s       :     0.669799  s :     0.669799
      pz      :     0.058933  p :     0.222197
      px      :     0.097249
      py      :     0.066016
 12 C s       :     2.666600  s :     2.666600
      pz      :     0.925727  p :     2.730189
      px      :     0.924055
      py      :     0.880407
      dz2     :     0.131505  d :     0.647247
      dxz     :     0.117972
      dyz     :     0.152830
      dx2y2   :     0.142335
      dxy     :     0.102605
      f0      :     0.005789  f :     0.037301
      f+1     :     0.005331
      f-1     :     0.005957
      f+2     :     0.003842
      f-2     :     0.005649
      f+3     :     0.006399
      f-3     :     0.004333
 13 C s       :     2.622142  s :     2.622142
      pz      :     0.604488  p :     2.278500
      px      :     0.766631
      py      :     0.907381
      dz2     :     0.138353  d :     1.373189
      dxz     :     0.222256
      dyz     :     0.202388
      dx2y2   :     0.425364
      dxy     :     0.384829
      f0      :     0.012216  f :     0.183130
      f+1     :     0.018610
      f-1     :     0.008708
      f+2     :     0.024327
      f-2     :     0.019422
      f+3     :     0.032135
      f-3     :     0.067711
 14 H s       :     0.674504  s :     0.674504
      pz      :     0.075043  p :     0.199575
      px      :     0.063072
      py      :     0.061460
 15 H s       :     0.667050  s :     0.667050
      pz      :     0.052250  p :     0.201213
      px      :     0.097311
      py      :     0.051651
 16 H s       :     0.644963  s :     0.644963
      pz      :     0.092169  p :     0.310797
      px      :     0.088692
      py      :     0.129935
 17 H s       :     0.637070  s :     0.637070
      pz      :     0.124893  p :     0.338826
      px      :     0.120350
      py      :     0.093583
 18 H s       :     0.710955  s :     0.710955
      pz      :     0.053690  p :     0.214738
      px      :     0.067948
      py      :     0.093100
 19 O s       :     3.335905  s :     3.335905
      pz      :     1.273813  p :     4.321545
      px      :     1.526057
      py      :     1.521675
      dz2     :     0.043768  d :     0.288242
      dxz     :     0.035922
      dyz     :     0.061663
      dx2y2   :     0.075769
      dxy     :     0.071119
      f0      :     0.000317  f :     0.005294
      f+1     :     0.000353
      f-1     :     0.000633
      f+2     :     0.000132
      f-2     :     0.000772
      f+3     :     0.001639
      f-3     :     0.001448
 20 F s       :     3.472207  s :     3.472207
      pz      :     1.701422  p :     5.076115
      px      :     1.585691
      py      :     1.789002
      dz2     :     0.032469  d :     0.283965
      dxz     :     0.053596
      dyz     :     0.045513
      dx2y2   :     0.073500
      dxy     :     0.078888
      f0      :     0.000177  f :     0.002192
      f+1     :     0.000327
      f-1     :     0.000032
      f+2     :     0.000389
      f-2     :     0.000108
      f+3     :     0.000516
      f-3     :     0.000644
 21 H s       :     0.682919  s :     0.682919
      pz      :     0.075500  p :     0.198753
      px      :     0.071260
      py      :     0.051994
 22 H s       :     0.648059  s :     0.648059
      pz      :     0.115238  p :     0.249789
      px      :     0.061432
      py      :     0.073119
 23 H s       :     0.663438  s :     0.663438
      pz      :     0.086136  p :     0.234367
      px      :     0.073676
      py      :     0.074555
 24 H s       :     0.686604  s :     0.686604
      pz      :     0.094056  p :     0.200667
      px      :     0.052089
      py      :     0.054521


                      *****************************
                      * MAYER POPULATION ANALYSIS *
                      *****************************

  NA   - Mulliken gross atomic population
  ZA   - Total nuclear charge
  QA   - Mulliken gross atomic charge
  VA   - Mayer's total valence
  BVA  - Mayer's bonded valence
  FA   - Mayer's free valence

  ATOM       NA         ZA         QA         VA         BVA        FA
  0 C      6.4953     6.0000    -0.4953     3.0833     3.0833    -0.0000
  1 H      0.6634     1.0000     0.3366     0.9247     0.9247    -0.0000
  2 C      7.4132     6.0000    -1.4132     3.2197     3.2197    -0.0000
  3 C      6.4768     6.0000    -0.4768     2.9235     2.9235    -0.0000
  4 H      0.6814     1.0000     0.3186     0.9363     0.9363    -0.0000
  5 C      6.4816     6.0000    -0.4816     2.7234     2.7234    -0.0000
  6 C      6.9427     6.0000    -0.9427     3.4068     3.4068     0.0000
  7 H      0.6445     1.0000     0.3555     0.9290     0.9290     0.0000
  8 H      0.6259     1.0000     0.3741     0.9308     0.9308     0.0000
  9 C      6.5564     6.0000    -0.5564     3.0657     3.0657    -0.0000
 10 H      0.6220     1.0000     0.3780     0.8872     0.8872    -0.0000
 11 H      0.7265     1.0000     0.2735     0.9913     0.9913    -0.0000
 12 C      6.6902     6.0000    -0.6902     3.4315     3.4315     0.0000
 13 C      5.2332     6.0000     0.7668     3.4644     3.4644     0.0000
 14 H      0.6191     1.0000     0.3809     0.8514     0.8514     0.0000
 15 H      0.6844     1.0000     0.3156     0.9580     0.9580     0.0000
 16 H      0.5585     1.0000     0.4415     0.6790     0.6790    -0.0000
 17 H      0.5339     1.0000     0.4661     0.7284     0.7284     0.0000
 18 H      0.6177     1.0000     0.3823     0.8926     0.8926    -0.0000
 19 O      8.6900     8.0000    -0.6900     1.4934     1.4934     0.0000
 20 F      9.3081     9.0000    -0.3081     0.7941     0.7941     0.0000
 21 H      0.6006     1.0000     0.3994     0.8764     0.8764    -0.0000
 22 H      0.7309     1.0000     0.2691     0.9686     0.9686    -0.0000
 23 H      0.7944     1.0000     0.2056     0.9940     0.9940     0.0000
 24 H      0.6092     1.0000     0.3908     0.8744     0.8744     0.0000

  Mayer bond orders larger than 0.100000
B(  0-C ,  1-H ) :   0.9624 B(  0-C ,  2-C ) :   0.4069 B(  0-C ,  3-C ) :   0.7632 
B(  0-C ,  4-H ) :   0.9757 B(  0-C ,  5-C ) :   0.1727 B(  2-C , 13-C ) :   0.1704 
B(  2-C , 16-H ) :   0.8192 B(  2-C , 17-H ) :   0.9297 B(  2-C , 18-H ) :   0.9170 
B(  2-C , 19-O ) :   0.1276 B(  3-C ,  5-C ) :   0.2462 B(  3-C ,  6-C ) :   0.1603 
B(  3-C , 22-H ) :  -0.1231 B(  3-C , 23-H ) :   1.0467 B(  3-C , 24-H ) :   0.8628 
B(  5-C ,  6-C ) :   0.6563 B(  5-C , 13-C ) :   0.1053 B(  5-C , 21-H ) :   0.9212 
B(  5-C , 22-H ) :   1.0076 B(  5-C , 23-H ) :  -0.1462 B(  6-C ,  7-H ) :   0.9722 
B(  6-C ,  8-H ) :   0.9720 B(  6-C ,  9-C ) :   0.6842 B(  9-C , 10-H ) :   0.9202 
B(  9-C , 11-H ) :   0.9914 B(  9-C , 12-C ) :   0.5983 B( 12-C , 13-C ) :   0.8910 
B( 12-C , 14-H ) :   0.9019 B( 12-C , 15-H ) :   1.0409 B( 13-C , 19-O ) :   1.4023 
B( 13-C , 20-F ) :   0.7111 B( 17-H , 19-O ) :  -0.1474 

-------
TIMINGS
-------

Total SCF time: 0 days 0 hours 3 min 28 sec 

Total time                  ....     208.517 sec
Sum of individual times     ....     207.724 sec  ( 99.6%)

Fock matrix formation       ....     201.989 sec  ( 96.9%)
  Split-RI-J                ....      10.794 sec  (  5.3% of F)
  Chain of spheres X        ....     136.221 sec  ( 67.4% of F)
  XC integration            ....      54.737 sec  ( 27.1% of F)
    Basis function eval.    ....       5.277 sec  (  9.6% of XC)
    Density eval.           ....      20.900 sec  ( 38.2% of XC)
    XC-Functional eval.     ....       0.876 sec  (  1.6% of XC)
    XC-Potential eval.      ....      26.901 sec  ( 49.1% of XC)
Diagonalization             ....       0.664 sec  (  0.3%)
Density matrix formation    ....       0.040 sec  (  0.0%)
Population analysis         ....       0.087 sec  (  0.0%)
Initial guess               ....       1.257 sec  (  0.6%)
Orbital Transformation      ....       0.000 sec  (  0.0%)
Orbital Orthonormalization  ....       0.000 sec  (  0.0%)
DIIS solution               ....       0.352 sec  (  0.2%)
SOSCF solution              ....       0.397 sec  (  0.2%)
Grid generation             ....       2.938 sec  (  1.4%)

Maximum memory used throughout the entire SCF-calculation: 115.9 MB


-------------------------------------------------------------------------------
                          DFT DISPERSION CORRECTION                            
                                                                               
                              DFTD3 V3.1  Rev 1                                
                              USING zero damping                               
-------------------------------------------------------------------------------
The M062X functional is recognized
Active option DFTDOPT                   ...         3   

molecular C6(AA) [au] = 4525.859001 


            DFT-D V3
 parameters
 s6 scaling factor         :     1.0000 
 rs6 scaling factor        :     1.6190 
 s8 scaling factor         :     0.0000 
 rs8 scaling factor        :     1.0000 
 Damping factor alpha6     :    14.0000 
 Damping factor alpha8     :    16.0000 
 ad hoc parameters k1-k3   :    16.0000     1.3333    -4.0000 

 Edisp/kcal,au: -0.633924891173  -0.001010223510 
 E6   /kcal   :  -0.633924891 
 E8   /kcal   :  -0.000000000 
 % E8         :   0.000000000 

-------------------------   ----------------
Dispersion correction           -0.001010224
-------------------------   ----------------


-------------------------   --------------------
FINAL SINGLE POINT ENERGY      -488.876867970311
-------------------------   --------------------


                            ***************************************
                            *     ORCA property calculations      *
                            ***************************************

                                    ---------------------
                                    Active property flags
                                    ---------------------
   (+) Dipole Moment


------------------------------------------------------------------------------
                       ORCA ELECTRIC PROPERTIES CALCULATION
------------------------------------------------------------------------------

Dipole Moment Calculation                       ... on
Quadrupole Moment Calculation                   ... off
Polarizability Calculation                      ... off
GBWName                                         ... 28Oct_TZVPD_M062X_D2_wb97.gbw
Electron density file                           ... 28Oct_TZVPD_M062X_D2_wb97.scfp
The origin for moment calculation is the CENTER OF MASS  = ( 0.438676, -0.698160 -7.384153)

-------------
DIPOLE MOMENT
-------------
                                X             Y             Z
Electronic contribution:      3.58485      -0.30963      -9.79247
Nuclear contribution   :     -3.57245       1.60200       9.69133
                        -----------------------------------------
Total Dipole Moment    :      0.01240       1.29237      -0.10113
                        -----------------------------------------
Magnitude (a.u.)       :      1.29638
Magnitude (Debye)      :      3.29513



--------------------
Rotational spectrum 
--------------------
 
Rotational constants in cm-1:     0.051520     0.042563     0.028962 
Rotational constants in MHz :  1544.537298  1275.996546   868.258224 

 Dipole components along the rotational axes: 
x,y,z [a.u.] :     1.113794     0.394100    -0.533612 
x,y,z [Debye]:     2.831040     1.001724    -1.356333 

 

Timings for individual modules:

Sum of individual times         ...      210.085 sec (=   3.501 min)
GTO integral calculation        ...        1.139 sec (=   0.019 min)   0.5 %
SCF iterations                  ...      208.946 sec (=   3.482 min)  99.5 %
                             ****ORCA TERMINATED NORMALLY****
TOTAL RUN TIME: 0 days 0 hours 3 minutes 30 seconds 764 msec
