
                                        *****************
                                        * O   R   C   A *
                                        *****************

                                            #,                                       
                                            ###                                      
                                            ####                                     
                                            #####                                    
                                            ######                                   
                                           ########,                                 
                                     ,,################,,,,,                         
                               ,,#################################,,                 
                          ,,##########################################,,             
                       ,#########################################, ''#####,          
                    ,#############################################,,   '####,        
                  ,##################################################,,,,####,       
                ,###########''''           ''''###############################       
              ,#####''   ,,,,##########,,,,          '''####'''          '####       
            ,##' ,,,,###########################,,,                        '##       
           ' ,,###''''                  '''############,,,                           
         ,,##''                                '''############,,,,        ,,,,,,###''
      ,#''                                            '''#######################'''  
     '                                                          ''''####''''         
             ,#######,   #######,   ,#######,      ##                                
            ,#'     '#,  ##    ##  ,#'     '#,    #''#        ######   ,####,        
            ##       ##  ##   ,#'  ##            #'  '#       #        #'  '#        
            ##       ##  #######   ##           ,######,      #####,   #    #        
            '#,     ,#'  ##    ##  '#,     ,#' ,#      #,         ##   #,  ,#        
             '#######'   ##     ##  '#######'  #'      '#     #####' # '####'        



                  #######################################################
                  #                        -***-                        #
                  #          Department of theory and spectroscopy      #
                  #    Directorship and core code : Frank Neese         #
                  #        Max Planck Institute fuer Kohlenforschung    #
                  #                Kaiser Wilhelm Platz 1               #
                  #                 D-45470 Muelheim/Ruhr               #
                  #                      Germany                        #
                  #                                                     #
                  #                  All rights reserved                #
                  #                        -***-                        #
                  #######################################################


                         Program Version 5.0.0 -  RELEASE  -
                                (SVN: $Rev: 19529$)
                ($Date: 2021-06-28 11:36:33 +0200 (Mo, 28 Jun 2021) $)


 With contributions from (in alphabetic order):
   Daniel Aravena         : Magnetic Suceptibility
   Michael Atanasov       : Ab Initio Ligand Field Theory (pilot matlab implementation)
   Alexander A. Auer      : GIAO ZORA, VPT2 properties, NMR spectrum
   Ute Becker             : Parallelization
   Giovanni Bistoni       : ED, misc. LED, open-shell LED, HFLD
   Martin Brehm           : Molecular dynamics
   Dmytro Bykov           : SCF Hessian
   Vijay G. Chilkuri      : MRCI spin determinant printing, contributions to CSF-ICE
   Dipayan Datta          : RHF DLPNO-CCSD density
   Achintya Kumar Dutta   : EOM-CC, STEOM-CC
   Dmitry Ganyushin       : Spin-Orbit,Spin-Spin,Magnetic field MRCI
   Miquel Garcia          : C-PCM Hessian, Gaussian charge scheme
   Yang Guo               : DLPNO-NEVPT2, F12-NEVPT2, CIM, IAO-localization
   Andreas Hansen         : Spin unrestricted coupled pair/coupled cluster methods
   Benjamin Helmich-Paris : MC-RPA, TRAH-SCF, COSX integrals
   Lee Huntington         : MR-EOM, pCC
   Robert Izsak           : Overlap fitted RIJCOSX, COSX-SCS-MP3, EOM
   Marcus Kettner         : VPT2
   Christian Kollmar      : KDIIS, OOCD, Brueckner-CCSD(T), CCSD density, CASPT2, CASPT2-K
   Simone Kossmann        : Meta GGA functionals, TD-DFT gradient, OOMP2, MP2 Hessian
   Martin Krupicka        : Initial AUTO-CI
   Lucas Lang             : DCDCAS
   Marvin Lechner         : AUTO-CI (C++ implementation), FIC-MRCC
   Dagmar Lenk            : GEPOL surface, SMD
   Dimitrios Liakos       : Extrapolation schemes; Compound Job, initial MDCI parallelization
   Dimitrios Manganas     : Further ROCIS development; embedding schemes
   Dimitrios Pantazis     : SARC Basis sets
   Anastasios Papadopoulos: AUTO-CI, single reference methods and gradients
   Taras Petrenko         : DFT Hessian,TD-DFT gradient, ASA, ECA, R-Raman, ABS, FL, XAS/XES, NRVS
   Peter Pinski           : DLPNO-MP2, DLPNO-MP2 Gradient
   Christoph Reimann      : Effective Core Potentials
   Marius Retegan         : Local ZFS, SOC
   Christoph Riplinger    : Optimizer, TS searches, QM/MM, DLPNO-CCSD(T), (RO)-DLPNO pert. Triples
   Tobias Risthaus        : Range-separated hybrids, TD-DFT gradient, RPA, STAB
   Michael Roemelt        : Original ROCIS implementation
   Masaaki Saitow         : Open-shell DLPNO-CCSD energy and density
   Barbara Sandhoefer     : DKH picture change effects
   Avijit Sen             : IP-ROCIS
   Kantharuban Sivalingam : CASSCF convergence, NEVPT2, FIC-MRCI
   Bernardo de Souza      : ESD, SOC TD-DFT
   Georgi Stoychev        : AutoAux, RI-MP2 NMR
   Willem Van den Heuvel  : Paramagnetic NMR
   Boris Wezisla          : Elementary symmetry handling
   Frank Wennmohs         : Technical directorship


 We gratefully acknowledge several colleagues who have allowed us to
 interface, adapt or use parts of their codes:
   Stefan Grimme, W. Hujo, H. Kruse, P. Pracht,  : VdW corrections, initial TS optimization,
                  C. Bannwarth, S. Ehlert          DFT functionals, gCP, sTDA/sTD-DF
   Ed Valeev, F. Pavosevic, A. Kumar             : LibInt (2-el integral package), F12 methods
   Garnet Chan, S. Sharma, J. Yang, R. Olivares  : DMRG
   Ulf Ekstrom                                   : XCFun DFT Library
   Mihaly Kallay                                 : mrcc  (arbitrary order and MRCC methods)
   Jiri Pittner, Ondrej Demel                    : Mk-CCSD
   Frank Weinhold                                : gennbo (NPA and NBO analysis)
   Christopher J. Cramer and Donald G. Truhlar   : smd solvation model
   Lars Goerigk                                  : TD-DFT with DH, B97 family of functionals
   V. Asgeirsson, H. Jonsson                     : NEB implementation
   FAccTs GmbH                                   : IRC, NEB, NEB-TS, DLPNO-Multilevel, CI-OPT
                                                   MM, QMMM, 2- and 3-layer-ONIOM, Crystal-QMMM,
                                                   LR-CPCM, SF, NACMEs, symmetry and pop. for TD-DFT,
                                                   nearIR, NL-DFT gradient (VV10), updates on ESD,
                                                   ML-optimized integration grids
   S Lehtola, MJT Oliveira, MAL Marques          : LibXC Library
   Liviu Ungur et al                             : ANISO software


 Your calculation uses the libint2 library for the computation of 2-el integrals
 For citations please refer to: http://libint.valeyev.net

 Your ORCA version has been built with support for libXC version: 5.1.0
 For citations please refer to: https://tddft.org/programs/libxc/

 This ORCA versions uses:
   CBLAS   interface :  Fast vector & matrix operations
   LAPACKE interface :  Fast linear algebra routines
   SCALAPACK package :  Parallel linear algebra routines
   Shared memory     :  Shared parallel matrices
   BLAS/LAPACK       :  OpenBLAS 0.3.15  USE64BITINT DYNAMIC_ARCH NO_AFFINITY Haswell SINGLE_THREADED
        Core in use  :  Haswell
   Copyright (c) 2011-2014, The OpenBLAS Project


Your calculation utilizes the atom-pairwise dispersion correction
with the Becke-Johnson damping scheme (D3BJ)
Cite in your paper:
S.Grimme, S.Ehrlich, L.Goerigk, J Comput Chem, (2011), 32, 1456–1465 
S.Grimme, J.Antony, S.Ehrlich and H.Krieg, J.Chem.Phys., 132, (2010), 154104 
   

================================================================================

----- Orbital basis set information -----
Your calculation utilizes the basis: def2-SVPD
   F. Weigend and R. Ahlrichs, Phys. Chem. Chem. Phys. 7, 3297 (2005).
   D. Rappoport and F. Furche, J. Chem. Phys. 133 134105 (2010).

----- AuxJ basis set information -----
Your calculation utilizes the auxiliary basis: def2/J
   F. Weigend, Phys. Chem. Chem. Phys. 8, 1057 (2006).

================================================================================
                                        WARNINGS
                       Please study these warnings very carefully!
================================================================================


INFO   : the flag for use of the SHARK integral package has been found!

================================================================================
                                       INPUT FILE
================================================================================
NAME = 14Feb_SVPD_B3LYP_A_wt_wb97_typ1_pos.com
|  1> !B3LYP D3BJ RIJCOSX def2-SVPD def2/J TightSCF 
|  2> *xyz 1 1 
|  3> C          3.95643        0.50147       -0.37910
|  4> H          3.16840        0.02920        0.20738
|  5> N          3.80389        1.96157       -0.15675
|  6> C          3.84232        0.14849       -1.85406
|  7> H          4.92323        0.17798        0.00937
|  8> H          4.62002        0.69450       -2.40215
|  9> H          4.09601       -0.91093       -1.95510
| 10> C          2.47562        0.41271       -2.48538
| 11> H          4.20643        2.24441        0.74536
| 12> H          2.80827        2.21132       -0.09610
| 13> H          4.28076        2.50155       -0.89104
| 14> H          2.49958        0.13290       -3.51787
| 15> H          2.23992        1.45318       -2.40319
| 16> H          1.73061       -0.16300       -1.97702
| 17> *
| 18> 
| 19> %MaxCore 64000
| 20> %pal nprocs 4
| 21> end  
| 22> 
| 23> %scf
| 24>   MaxIter 150
| 25> end
| 26> 
| 27> 
| 28>                          ****END OF INPUT****
================================================================================

                       ****************************
                       * Single Point Calculation *
                       ****************************

---------------------------------
CARTESIAN COORDINATES (ANGSTROEM)
---------------------------------
  C      3.956430    0.501470   -0.379100
  H      3.168400    0.029200    0.207380
  N      3.803890    1.961570   -0.156750
  C      3.842320    0.148490   -1.854060
  H      4.923230    0.177980    0.009370
  H      4.620020    0.694500   -2.402150
  H      4.096010   -0.910930   -1.955100
  C      2.475620    0.412710   -2.485380
  H      4.206430    2.244410    0.745360
  H      2.808270    2.211320   -0.096100
  H      4.280760    2.501550   -0.891040
  H      2.499580    0.132900   -3.517870
  H      2.239920    1.453180   -2.403190
  H      1.730610   -0.163000   -1.977020

----------------------------
CARTESIAN COORDINATES (A.U.)
----------------------------
  NO LB      ZA    FRAG     MASS         X           Y           Z
   0 C     6.0000    0    12.011    7.476569    0.947641   -0.716395
   1 H     1.0000    0     1.008    5.987408    0.055180    0.391891
   2 N     7.0000    0    14.007    7.188310    3.706830   -0.296215
   3 C     6.0000    0    12.011    7.260933    0.280605   -3.503666
   4 H     1.0000    0     1.008    9.303556    0.336333    0.017707
   5 H     1.0000    0     1.008    8.730573    1.312415   -4.539406
   6 H     1.0000    0     1.008    7.740337   -1.721408   -3.694604
   7 C     6.0000    0    12.011    4.678244    0.779909   -4.696688
   8 H     1.0000    0     1.008    7.949001    4.241320    1.408526
   9 H     1.0000    0     1.008    5.306861    4.178789   -0.181603
  10 H     1.0000    0     1.008    8.089464    4.727244   -1.683822
  11 H     1.0000    0     1.008    4.723522    0.251145   -6.647811
  12 H     1.0000    0     1.008    4.232835    2.746112   -4.541371
  13 H     1.0000    0     1.008    3.270379   -0.308025   -3.736026

--------------------------------
INTERNAL COORDINATES (ANGSTROEM)
--------------------------------
 C      0   0   0     0.000000000000     0.00000000     0.00000000
 H      1   0   0     1.089949092481     0.00000000     0.00000000
 N      1   2   0     1.484789542023   105.73775847     0.00000000
 C      1   2   3     1.520895451404   111.53202524   238.68873897
 H      1   2   3     1.090988982987   108.70075238   117.16664731
 H      4   1   2     1.096971676116   108.41138550   176.73645723
 H      4   1   2     1.094046815315   107.27202406   290.50909129
 C      4   1   2     1.528478341620   115.31094862    52.98612369
 H      3   1   2     1.027540446552   111.21738370    79.20489913
 H      3   1   2     1.028257102771   110.31340383   322.98052740
 H      3   1   2     1.028671571202   111.20331859   198.97149937
 H      8   4   1     1.070001550373   109.47107169   179.99981569
 H      8   4   1     1.069994162134   109.47128313    59.99922948
 H      8   4   1     1.070005511107   109.47096620   299.99968497

---------------------------
INTERNAL COORDINATES (A.U.)
---------------------------
 C      0   0   0     0.000000000000     0.00000000     0.00000000
 H      1   0   0     2.059705284705     0.00000000     0.00000000
 N      1   2   0     2.805845600933   105.73775847     0.00000000
 C      1   2   3     2.874075881479   111.53202524   238.68873897
 H      1   2   3     2.061670392972   108.70075238   117.16664731
 H      4   1   2     2.072976044527   108.41138550   176.73645723
 H      4   1   2     2.067448858633   107.27202406   290.50909129
 C      4   1   2     2.888405467291   115.31094862    52.98612369
 H      3   1   2     1.941770035510   111.21738370    79.20489913
 H      3   1   2     1.943124319497   110.31340383   322.98052740
 H      3   1   2     1.943907551323   111.20331859   198.97149937
 H      8   4   1     2.022009893076   109.47107169   179.99981569
 H      8   4   1     2.021995931327   109.47128313    59.99922948
 H      8   4   1     2.022017377779   109.47096620   299.99968497

---------------------
BASIS SET INFORMATION
---------------------
There are 3 groups of distinct atoms

 Group   1 Type C   : 8s4p2d contracted to 4s2p2d pattern {5111/31/11}
 Group   2 Type H   : 4s2p contracted to 2s2p pattern {31/11}
 Group   3 Type N   : 8s4p2d contracted to 4s2p2d pattern {5111/31/11}

Atom   0C    basis set group =>   1
Atom   1H    basis set group =>   2
Atom   2N    basis set group =>   3
Atom   3C    basis set group =>   1
Atom   4H    basis set group =>   2
Atom   5H    basis set group =>   2
Atom   6H    basis set group =>   2
Atom   7C    basis set group =>   1
Atom   8H    basis set group =>   2
Atom   9H    basis set group =>   2
Atom  10H    basis set group =>   2
Atom  11H    basis set group =>   2
Atom  12H    basis set group =>   2
Atom  13H    basis set group =>   2
---------------------------------
AUXILIARY/J BASIS SET INFORMATION
---------------------------------
There are 3 groups of distinct atoms

 Group   1 Type C   : 12s5p4d2f1g contracted to 6s4p3d1f1g pattern {711111/2111/211/2/1}
 Group   2 Type H   : 5s2p1d contracted to 3s1p1d pattern {311/2/1}
 Group   3 Type N   : 12s5p4d2f1g contracted to 6s4p3d1f1g pattern {711111/2111/211/2/1}

Atom   0C    basis set group =>   1
Atom   1H    basis set group =>   2
Atom   2N    basis set group =>   3
Atom   3C    basis set group =>   1
Atom   4H    basis set group =>   2
Atom   5H    basis set group =>   2
Atom   6H    basis set group =>   2
Atom   7C    basis set group =>   1
Atom   8H    basis set group =>   2
Atom   9H    basis set group =>   2
Atom  10H    basis set group =>   2
Atom  11H    basis set group =>   2
Atom  12H    basis set group =>   2
Atom  13H    basis set group =>   2


           ************************************************************
           *        Program running with 4 parallel MPI-processes     *
           *              working on a common directory               *
           ************************************************************
------------------------------------------------------------------------------
                           ORCA GTO INTEGRAL CALCULATION
                           -- RI-GTO INTEGRALS CHOSEN --
------------------------------------------------------------------------------
------------------------------------------------------------------------------
                   ___                                                        
                  /   \      - P O W E R E D   B Y -                         
                 /     \                                                     
                 |  |  |   _    _      __       _____    __    __             
                 |  |  |  | |  | |    /  \     |  _  \  |  |  /  |          
                  \  \/   | |  | |   /    \    | | | |  |  | /  /          
                 / \  \   | |__| |  /  /\  \   | |_| |  |  |/  /          
                |  |  |   |  __  | /  /__\  \  |    /   |      \           
                |  |  |   | |  | | |   __   |  |    \   |  |\   \          
                \     /   | |  | | |  |  |  |  | |\  \  |  | \   \       
                 \___/    |_|  |_| |__|  |__|  |_| \__\ |__|  \__/        
                                                                              
                      - O R C A' S   B I G   F R I E N D -                    
                                      &                                       
                       - I N T E G R A L  F E E D E R -                       
                                                                              
 v1 FN, 2020, v2 2021                                                         
------------------------------------------------------------------------------


Reading SHARK input file 14Feb_SVPD_B3LYP_A_wt_wb97_typ1_pos.SHARKINP.tmp ... ok
----------------------
SHARK INTEGRAL PACKAGE
----------------------

Number of atoms                             ...     14
Number of basis functions                   ...    160
Number of shells                            ...     72
Maximum angular momentum                    ...      2
Integral batch strategy                     ... SHARK/LIBINT Hybrid
RI-J (if used) integral strategy            ... SPLIT-RIJ (Revised 2003 algorithm where possible)
Printlevel                                  ...      1
Contraction scheme used                     ... SEGMENTED contraction
Coulomb Range Separation                    ... NOT USED
Exchange Range Separation                   ... NOT USED
Finite Nucleus Model                        ... NOT USED
Auxiliary Coulomb fitting basis             ... AVAILABLE
   # of basis functions in Aux-J            ...    306
   # of shells in Aux-J                     ...    110
   Maximum angular momentum in Aux-J        ...      4
Auxiliary J/K fitting basis                 ... NOT available
Auxiliary Correlation fitting basis         ... NOT available
Auxiliary 'external' fitting basis          ... NOT available
Integral threshold                          ...     2.500000e-11
Primitive cut-off                           ...     2.500000e-12
Primitive pair pre-selection threshold      ...     2.500000e-12

Calculating pre-screening integrals         ... done (  0.0 sec) Dimension = 72
Organizing shell pair data                  ... done (  0.0 sec)
Shell pair information
Total number of shell pairs                 ...      2628
Shell pairs after pre-screening             ...      2618
Total number of primitive shell pairs       ...      6868
Primitive shell pairs kept                  ...      5979
          la=0 lb=0:    663 shell pairs
          la=1 lb=0:   1002 shell pairs
          la=1 lb=1:    405 shell pairs
          la=2 lb=0:    288 shell pairs
          la=2 lb=1:    224 shell pairs
          la=2 lb=2:     36 shell pairs

Calculating one electron integrals          ... done (  0.0 sec)
Calculating RI/J V-Matrix + Cholesky decomp.... done (  0.0 sec)
Calculating Nuclear repulsion               ... done (  0.0 sec) ENN=    142.223868736544 Eh

SHARK setup successfully completed in   0.2 seconds

Maximum memory used throughout the entire GTOINT-calculation: 8.9 MB


           ************************************************************
           *        Program running with 4 parallel MPI-processes     *
           *              working on a common directory               *
           ************************************************************
-------------------------------------------------------------------------------
                                 ORCA SCF
-------------------------------------------------------------------------------

------------
SCF SETTINGS
------------
Hamiltonian:
 Density Functional     Method          .... DFT(GTOs)
 Exchange Functional    Exchange        .... B88
   X-Alpha parameter    XAlpha          ....  0.666667
   Becke's b parameter  XBeta           ....  0.004200
 Correlation Functional Correlation     .... LYP
 LDA part of GGA corr.  LDAOpt          .... VWN-5
 Gradients option       PostSCFGGA      .... off
 Hybrid DFT is turned on
   Fraction HF Exchange ScalHFX         ....  0.200000
   Scaling of DF-GGA-X  ScalDFX         ....  0.720000
   Scaling of DF-GGA-C  ScalDFC         ....  0.810000
   Scaling of DF-LDA-C  ScalLDAC        ....  1.000000
   Perturbative correction              ....  0.000000
   Density functional embedding theory  .... OFF
   NL short-range parameter             ....  4.800000
 RI-approximation to the Coulomb term is turned on
   Number of AuxJ basis functions       .... 306
   RIJ-COSX (HFX calculated with COS-X)).... on


General Settings:
 Integral files         IntName         .... 14Feb_SVPD_B3LYP_A_wt_wb97_typ1_pos
 Hartree-Fock type      HFTyp           .... RHF
 Total Charge           Charge          ....    1
 Multiplicity           Mult            ....    1
 Number of Electrons    NEL             ....   34
 Basis Dimension        Dim             ....  160
 Nuclear Repulsion      ENuc            ....    142.2238687365 Eh

Convergence Acceleration:
 DIIS                   CNVDIIS         .... on
   Start iteration      DIISMaxIt       ....    12
   Startup error        DIISStart       ....  0.200000
   # of expansion vecs  DIISMaxEq       ....     5
   Bias factor          DIISBfac        ....   1.050
   Max. coefficient     DIISMaxC        ....  10.000
 Trust-Rad. Augm. Hess. CNVTRAH         .... auto
   Auto Start mean grad. ratio tolernc. ....  1.125000
   Auto Start start iteration           ....    20
   Auto Start num. interpolation iter.  ....    10
   Max. Number of Micro iterations      ....    16
   Max. Number of Macro iterations      .... Maxiter - #DIIS iter
   Number of Davidson start vectors     ....     2
   Converg. threshold I  (grad. norm)   ....   1.000e-05
   Converg. threshold II (energy diff.) ....   1.000e-08
   Grad. Scal. Fac. for Micro threshold ....   0.100
   Minimum threshold for Micro iter.    ....   0.010
   NR start threshold (gradient norm)   ....   0.001
   Initial trust radius                 ....   0.400
   Minimum AH scaling param. (alpha)    ....   1.000
   Maximum AH scaling param. (alpha)    .... 1000.000
   Orbital update algorithm             .... Taylor
   White noise on init. David. guess    .... on
   Maximum white noise                  ....   0.010
   Quad. conv. algorithm                .... NR
 SOSCF                  CNVSOSCF        .... on
   Start iteration      SOSCFMaxIt      ....   150
   Startup grad/error   SOSCFStart      ....  0.003300
 Level Shifting         CNVShift        .... on
   Level shift para.    LevelShift      ....    0.2500
   Turn off err/grad.   ShiftErr        ....    0.0010
 Zerner damping         CNVZerner       .... off
 Static damping         CNVDamp         .... on
   Fraction old density DampFac         ....    0.7000
   Max. Damping (<1)    DampMax         ....    0.9800
   Min. Damping (>=0)   DampMin         ....    0.0000
   Turn off err/grad.   DampErr         ....    0.1000
 Fernandez-Rico         CNVRico         .... off

SCF Procedure:
 Maximum # iterations   MaxIter         ....   150
 SCF integral mode      SCFMode         .... Direct
   Integral package                     .... SHARK and LIBINT hybrid scheme
 Reset frequency        DirectResetFreq ....    20
 Integral Threshold     Thresh          ....  2.500e-11 Eh
 Primitive CutOff       TCut            ....  2.500e-12 Eh

Convergence Tolerance:
 Convergence Check Mode ConvCheckMode   .... Total+1el-Energy
 Convergence forced     ConvForced      .... 0
 Energy Change          TolE            ....  1.000e-08 Eh
 1-El. energy change                    ....  1.000e-05 Eh
 Orbital Gradient       TolG            ....  1.000e-05
 Orbital Rotation angle TolX            ....  1.000e-05
 DIIS Error             TolErr          ....  5.000e-07


Diagonalization of the overlap matrix:
Smallest eigenvalue                        ... 9.579e-05
Time for diagonalization                   ...    0.007 sec
Threshold for overlap eigenvalues          ... 1.000e-08
Number of eigenvalues below threshold      ... 0
Time for construction of square roots      ...    0.005 sec
Total time needed                          ...    0.013 sec

Time for model grid setup =    0.065 sec

------------------------------
INITIAL GUESS: MODEL POTENTIAL
------------------------------
Loading Hartree-Fock densities                     ... done
Calculating cut-offs                               ... done
Initializing the effective Hamiltonian             ... done
Setting up the integral package (SHARK)            ... done
Starting the Coulomb interaction                   ... done (   0.0 sec)
Reading the grid                                   ... done
Mapping shells                                     ... done
Starting the XC term evaluation                    ... done (   0.1 sec)
  promolecular density results
     # of electrons  =     34.992006114
     EX              =    -25.025809120
     EC              =     -1.113208321
     EX+EC           =    -26.139017440
Transforming the Hamiltonian                       ... done (   0.0 sec)
Diagonalizing the Hamiltonian                      ... done (   0.0 sec)
Back transforming the eigenvectors                 ... done (   0.0 sec)
Now organizing SCF variables                       ... done
                      ------------------
                      INITIAL GUESS DONE (   0.2 sec)
                      ------------------
-------------------
DFT GRID GENERATION
-------------------

General Integration Accuracy     IntAcc      ... 4.388
Radial Grid Type                 RadialGrid  ... OptM3 with GC (2021)
Angular Grid (max. ang.)         AngularGrid ... 4 (Lebedev-302)
Angular grid pruning method      GridPruning ... 4 (adaptive)
Weight generation scheme         WeightScheme... Becke
Basis function cutoff            BFCut       ... 1.0000e-11
Integration weight cutoff        WCut        ... 1.0000e-14
Angular grids for H and He will be reduced by one unit
Partially contracted basis set               ... off
Rotationally invariant grid construction     ... off

Total number of grid points                  ...    58148
Total number of batches                      ...      916
Average number of points per batch           ...       63
Average number of grid points per atom       ...     4153
Time for grid setup =    0.333 sec

--------------------
COSX GRID GENERATION
--------------------

GRIDX 1
-------
General Integration Accuracy     IntAcc      ... 3.816
Radial Grid Type                 RadialGrid  ... OptM3 with GC (2021)
Angular Grid (max. ang.)         AngularGrid ... 1 (Lebedev-50)
Angular grid pruning method      GridPruning ... 4 (adaptive)
Weight generation scheme         WeightScheme... Becke
Basis function cutoff            BFCut       ... 1.0000e-11
Integration weight cutoff        WCut        ... 1.0000e-14
Angular grids for H and He will be reduced by one unit
Partially contracted basis set               ... on
Rotationally invariant grid construction     ... off

Total number of grid points                  ...     7280
Total number of batches                      ...      123
Average number of points per batch           ...       59
Average number of grid points per atom       ...      520
UseSFitting                                  ... on

GRIDX 2
-------
General Integration Accuracy     IntAcc      ... 4.020
Radial Grid Type                 RadialGrid  ... OptM3 with GC (2021)
Angular Grid (max. ang.)         AngularGrid ... 2 (Lebedev-110)
Angular grid pruning method      GridPruning ... 4 (adaptive)
Weight generation scheme         WeightScheme... Becke
Basis function cutoff            BFCut       ... 1.0000e-11
Integration weight cutoff        WCut        ... 1.0000e-14
Angular grids for H and He will be reduced by one unit
Partially contracted basis set               ... on
Rotationally invariant grid construction     ... off

Total number of grid points                  ...    15683
Total number of batches                      ...      253
Average number of points per batch           ...       61
Average number of grid points per atom       ...     1120
UseSFitting                                  ... on

GRIDX 3
-------
General Integration Accuracy     IntAcc      ... 4.338
Radial Grid Type                 RadialGrid  ... OptM3 with GC (2021)
Angular Grid (max. ang.)         AngularGrid ... 3 (Lebedev-194)
Angular grid pruning method      GridPruning ... 4 (adaptive)
Weight generation scheme         WeightScheme... Becke
Basis function cutoff            BFCut       ... 1.0000e-11
Integration weight cutoff        WCut        ... 1.0000e-14
Angular grids for H and He will be reduced by one unit
Partially contracted basis set               ... on
Rotationally invariant grid construction     ... off

Total number of grid points                  ...    36199
Total number of batches                      ...      572
Average number of points per batch           ...       63
Average number of grid points per atom       ...     2586
UseSFitting                                  ... on

Time for X-Grid setup             =    0.308 sec

--------------
SCF ITERATIONS
--------------
ITER       Energy         Delta-E        Max-DP      RMS-DP      [F,P]     Damp
               ***  Starting incremental Fock matrix formation  ***
  0   -174.4848681619   0.000000000000 0.14936164  0.00310190  0.1815131 0.7000
  1   -174.5413174587  -0.056449296788 0.09146950  0.00209429  0.0953368 0.7000
                               ***Turning on DIIS***
  2   -174.5654911501  -0.024173691374 0.17146885  0.00415255  0.0365527 0.0000
  3   -174.6005237935  -0.035032643394 0.04007427  0.00098867  0.0517291 0.0000
  4   -174.6095670297  -0.009043236203 0.00716984  0.00030793  0.0085526 0.0000
                      *** Initiating the SOSCF procedure ***
                           *** Shutting down DIIS ***
                      *** Re-Reading the Fockian *** 
                      *** Removing any level shift *** 
ITER      Energy       Delta-E        Grad      Rot      Max-DP    RMS-DP
  5   -174.60993343  -0.0003663986  0.000483  0.000483  0.001975  0.000078
               *** Restarting incremental Fock matrix formation ***
  6   -174.60996429  -0.0000308613  0.000260  0.000561  0.001653  0.000068
  7   -174.60996463  -0.0000003360  0.000294  0.000212  0.001014  0.000025
  8   -174.60996853  -0.0000039000  0.000034  0.000038  0.000140  0.000006
  9   -174.60996853  -0.0000000091  0.000028  0.000020  0.000075  0.000002
 10   -174.60996856  -0.0000000258  0.000004  0.000006  0.000020  0.000001
                  ***Gradient check signals convergence***
              ***Rediagonalizing the Fockian in SOSCF/NRSCF***

               *****************************************************
               *                     SUCCESS                       *
               *           SCF CONVERGED AFTER  11 CYCLES          *
               *****************************************************

Old exchange energy                            =     -5.092650968 Eh
New exchange energy                            =     -5.092686368 Eh
Exchange energy change after final integration =     -0.000035400 Eh
Total energy after final integration           =   -174.610003960 Eh
Final COS-X integration done in                =     1.406 sec

----------------
TOTAL SCF ENERGY
----------------

Total Energy       :         -174.61000396 Eh           -4751.37976 eV

Components:
Nuclear Repulsion  :          142.22386874 Eh            3870.10822 eV
Electronic Energy  :         -316.83387270 Eh           -8621.48798 eV
One Electron Energy:         -507.71521725 Eh          -13815.63343 eV
Two Electron Energy:          190.88134456 Eh            5194.14545 eV
Max COSX asymmetry :            0.00000331 Eh               0.00009 eV

Virial components:
Potential Energy   :         -347.34033332 Eh           -9451.61098 eV
Kinetic Energy     :          172.73032936 Eh            4700.23122 eV
Virial Ratio       :            2.01088213


DFT components:
N(Alpha)           :       17.000066259193 electrons
N(Beta)            :       17.000066259193 electrons
N(Total)           :       34.000132518386 electrons
E(X)               :      -20.175575871932 Eh       
E(C)               :       -1.289996405986 Eh       
E(XC)              :      -21.465572277918 Eh       
DFET-embed. en.    :        0.000000000000 Eh       

---------------
SCF CONVERGENCE
---------------

  Last Energy change         ...    4.0066e-10  Tolerance :   1.0000e-08
  Last MAX-Density change    ...    3.5527e-15  Tolerance :   1.0000e-07
  Last RMS-Density change    ...    3.9794e-17  Tolerance :   5.0000e-09
  Last Orbital Gradient      ...    2.4470e-06  Tolerance :   1.0000e-05
  Last Orbital Rotation      ...    2.3888e-06  Tolerance :   1.0000e-05

             **** THE GBW FILE WAS UPDATED (14Feb_SVPD_B3LYP_A_wt_wb97_typ1_pos.gbw) ****
             **** DENSITY 14Feb_SVPD_B3LYP_A_wt_wb97_typ1_pos.scfp WAS UPDATED ****
             **** ENERGY FILE WAS UPDATED (14Feb_SVPD_B3LYP_A_wt_wb97_typ1_pos.en.tmp) ****
             **** THE GBW FILE WAS UPDATED (14Feb_SVPD_B3LYP_A_wt_wb97_typ1_pos.gbw) ****
             **** DENSITY 14Feb_SVPD_B3LYP_A_wt_wb97_typ1_pos.scfp WAS UPDATED ****
----------------
ORBITAL ENERGIES
----------------

  NO   OCC          E(Eh)            E(eV) 
   0   2.0000     -14.660976      -398.9454 
   1   2.0000     -10.430505      -283.8285 
   2   2.0000     -10.362087      -281.9667 
   3   2.0000     -10.328808      -281.0612 
   4   2.0000      -1.204287       -32.7703 
   5   2.0000      -0.967255       -26.3204 
   6   2.0000      -0.877922       -23.8895 
   7   2.0000      -0.808023       -21.9874 
   8   2.0000      -0.789329       -21.4787 
   9   2.0000      -0.768201       -20.9038 
  10   2.0000      -0.689914       -18.7735 
  11   2.0000      -0.632028       -17.1984 
  12   2.0000      -0.608815       -16.5667 
  13   2.0000      -0.587097       -15.9757 
  14   2.0000      -0.527456       -14.3528 
  15   2.0000      -0.521458       -14.1896 
  16   2.0000      -0.514418       -13.9980 
  17   0.0000      -0.193123        -5.2551 
  18   0.0000      -0.137322        -3.7367 
  19   0.0000      -0.134664        -3.6644 
  20   0.0000      -0.120399        -3.2762 
  21   0.0000      -0.095044        -2.5863 
  22   0.0000      -0.087493        -2.3808 
  23   0.0000      -0.066863        -1.8194 
  24   0.0000      -0.055386        -1.5071 
  25   0.0000      -0.051548        -1.4027 
  26   0.0000      -0.043673        -1.1884 
  27   0.0000      -0.023065        -0.6276 
  28   0.0000      -0.020376        -0.5544 
  29   0.0000      -0.012184        -0.3315 
  30   0.0000      -0.000092        -0.0025 
  31   0.0000       0.009458         0.2574 
  32   0.0000       0.026594         0.7237 
  33   0.0000       0.036934         1.0050 
  34   0.0000       0.043481         1.1832 
  35   0.0000       0.046949         1.2775 
  36   0.0000       0.071918         1.9570 
  37   0.0000       0.085075         2.3150 
  38   0.0000       0.087670         2.3856 
  39   0.0000       0.105332         2.8662 
  40   0.0000       0.128364         3.4930 
  41   0.0000       0.144485         3.9316 
  42   0.0000       0.148760         4.0480 
  43   0.0000       0.151882         4.1329 
  44   0.0000       0.157483         4.2853 
  45   0.0000       0.159377         4.3369 
  46   0.0000       0.178699         4.8627 
  47   0.0000       0.193328         5.2607 
  48   0.0000       0.194221         5.2850 
  49   0.0000       0.203210         5.5296 
  50   0.0000       0.214600         5.8396 
  51   0.0000       0.216700         5.8967 
  52   0.0000       0.225519         6.1367 
  53   0.0000       0.230632         6.2758 
  54   0.0000       0.239174         6.5083 
  55   0.0000       0.244256         6.6465 
  56   0.0000       0.258545         7.0354 
  57   0.0000       0.268901         7.3172 
  58   0.0000       0.274439         7.4679 
  59   0.0000       0.291805         7.9404 
  60   0.0000       0.298294         8.1170 
  61   0.0000       0.309878         8.4322 
  62   0.0000       0.315466         8.5843 
  63   0.0000       0.322354         8.7717 
  64   0.0000       0.327164         8.9026 
  65   0.0000       0.330941         9.0054 
  66   0.0000       0.341305         9.2874 
  67   0.0000       0.342997         9.3334 
  68   0.0000       0.351330         9.5602 
  69   0.0000       0.362367         9.8605 
  70   0.0000       0.364784         9.9263 
  71   0.0000       0.386261        10.5107 
  72   0.0000       0.396440        10.7877 
  73   0.0000       0.409088        11.1318 
  74   0.0000       0.418563        11.3897 
  75   0.0000       0.426938        11.6176 
  76   0.0000       0.446852        12.1595 
  77   0.0000       0.465843        12.6762 
  78   0.0000       0.467472        12.7206 
  79   0.0000       0.469484        12.7753 
  80   0.0000       0.489057        13.3079 
  81   0.0000       0.520595        14.1661 
  82   0.0000       0.544412        14.8142 
  83   0.0000       0.573399        15.6030 
  84   0.0000       0.693358        18.8672 
  85   0.0000       0.718762        19.5585 
  86   0.0000       0.750532        20.4230 
  87   0.0000       0.753167        20.4947 
  88   0.0000       0.761989        20.7348 
  89   0.0000       0.800753        21.7896 
  90   0.0000       0.817718        22.2512 
  91   0.0000       0.844047        22.9677 
  92   0.0000       0.851865        23.1804 
  93   0.0000       0.875624        23.8270 
  94   0.0000       0.882261        24.0075 
  95   0.0000       0.892575        24.2882 
  96   0.0000       0.898528        24.4502 
  97   0.0000       0.918253        24.9869 
  98   0.0000       0.967586        26.3294 
  99   0.0000       0.979071        26.6419 
 100   0.0000       1.025655        27.9095 
 101   0.0000       1.068305        29.0700 
 102   0.0000       1.084445        29.5093 
 103   0.0000       1.114812        30.3356 
 104   0.0000       1.171958        31.8906 
 105   0.0000       1.181298        32.1448 
 106   0.0000       1.215785        33.0832 
 107   0.0000       1.307206        35.5709 
 108   0.0000       1.350394        36.7461 
 109   0.0000       1.373443        37.3733 
 110   0.0000       1.436811        39.0976 
 111   0.0000       1.451680        39.5022 
 112   0.0000       1.461425        39.7674 
 113   0.0000       1.473619        40.0992 
 114   0.0000       1.535847        41.7925 
 115   0.0000       1.555026        42.3144 
 116   0.0000       1.569924        42.7198 
 117   0.0000       1.626870        44.2694 
 118   0.0000       1.655117        45.0380 
 119   0.0000       1.689708        45.9793 
 120   0.0000       1.701357        46.2963 
 121   0.0000       1.719733        46.7963 
 122   0.0000       1.730697        47.0947 
 123   0.0000       1.767124        48.0859 
 124   0.0000       1.795054        48.8459 
 125   0.0000       1.811360        49.2896 
 126   0.0000       1.831082        49.8263 
 127   0.0000       1.853045        50.4239 
 128   0.0000       1.862719        50.6872 
 129   0.0000       1.891378        51.4670 
 130   0.0000       1.926073        52.4111 
 131   0.0000       1.945962        52.9523 
 132   0.0000       1.998246        54.3750 
 133   0.0000       2.015541        54.8457 
 134   0.0000       2.083210        56.6870 
 135   0.0000       2.093416        56.9648 
 136   0.0000       2.105134        57.2836 
 137   0.0000       2.159932        58.7747 
 138   0.0000       2.184839        59.4525 
 139   0.0000       2.276210        61.9388 
 140   0.0000       2.301233        62.6197 
 141   0.0000       2.331743        63.4499 
 142   0.0000       2.378568        64.7241 
 143   0.0000       2.406864        65.4941 
 144   0.0000       2.423058        65.9348 
 145   0.0000       2.488386        67.7124 
 146   0.0000       2.521171        68.6045 
 147   0.0000       2.553305        69.4790 
 148   0.0000       2.633350        71.6571 
 149   0.0000       2.674697        72.7822 
 150   0.0000       2.705891        73.6310 
 151   0.0000       2.838834        77.2486 
 152   0.0000       2.877474        78.3000 
 153   0.0000       2.914449        79.3062 
 154   0.0000       2.964903        80.6791 
 155   0.0000       3.007767        81.8455 
 156   0.0000       3.040475        82.7355 
 157   0.0000       3.079887        83.8080 
 158   0.0000       3.255018        88.5735 
 159   0.0000       3.281151        89.2847 

                    ********************************
                    * MULLIKEN POPULATION ANALYSIS *
                    ********************************

-----------------------
MULLIKEN ATOMIC CHARGES
-----------------------
   0 C :    0.769622
   1 H :   -0.142037
   2 N :   -0.682149
   3 C :   -0.198119
   4 H :   -0.151816
   5 H :   -0.124040
   6 H :   -0.155233
   7 C :    0.970131
   8 H :    0.301873
   9 H :    0.364273
  10 H :    0.389091
  11 H :   -0.119808
  12 H :   -0.164459
  13 H :   -0.057329
Sum of atomic charges:    1.0000000

--------------------------------
MULLIKEN REDUCED ORBITAL CHARGES
--------------------------------
  0 C s       :     2.601621  s :     2.601621
      pz      :     0.997203  p :     2.455720
      px      :     0.809492
      py      :     0.649024
      dz2     :     0.025810  d :     0.173037
      dxz     :     0.029660
      dyz     :     0.138855
      dx2y2   :     0.003816
      dxy     :    -0.025104
  1 H s       :     1.130681  s :     1.130681
      pz      :     0.007369  p :     0.011355
      px      :    -0.008490
      py      :     0.012476
  2 N s       :     4.030912  s :     4.030912
      pz      :     1.138721  p :     3.554289
      px      :     1.158733
      py      :     1.256836
      dz2     :     0.005771  d :     0.096948
      dxz     :    -0.007594
      dyz     :     0.037086
      dx2y2   :     0.002393
      dxy     :     0.059293
  3 C s       :     2.821905  s :     2.821905
      pz      :     0.921144  p :     2.829255
      px      :     1.039809
      py      :     0.868302
      dz2     :     0.128118  d :     0.546959
      dxz     :     0.193920
      dyz     :     0.018459
      dx2y2   :     0.074081
      dxy     :     0.132382
  4 H s       :     1.171197  s :     1.171197
      pz      :    -0.028127  p :    -0.019381
      px      :     0.009917
      py      :    -0.001171
  5 H s       :     1.100139  s :     1.100139
      pz      :     0.008840  p :     0.023900
      px      :     0.022110
      py      :    -0.007050
  6 H s       :     1.139119  s :     1.139119
      pz      :    -0.023714  p :     0.016114
      px      :    -0.015339
      py      :     0.055167
  7 C s       :     2.330865  s :     2.330865
      pz      :     0.835176  p :     2.628246
      px      :     0.940571
      py      :     0.852499
      dz2     :    -0.000298  d :     0.070759
      dxz     :     0.015594
      dyz     :    -0.020739
      dx2y2   :     0.033343
      dxy     :     0.042859
  8 H s       :     0.687671  s :     0.687671
      pz      :     0.011885  p :     0.010456
      px      :    -0.001859
      py      :     0.000430
  9 H s       :     0.621793  s :     0.621793
      pz      :     0.004459  p :     0.013934
      px      :     0.013248
      py      :    -0.003773
 10 H s       :     0.616509  s :     0.616509
      pz      :    -0.012254  p :    -0.005600
      px      :    -0.004653
      py      :     0.011308
 11 H s       :     1.111077  s :     1.111077
      pz      :     0.043440  p :     0.008731
      px      :    -0.007640
      py      :    -0.027069
 12 H s       :     1.105562  s :     1.105562
      pz      :    -0.012275  p :     0.058897
      px      :    -0.009971
      py      :     0.081144
 13 H s       :     1.039221  s :     1.039221
      pz      :    -0.008402  p :     0.018108
      px      :     0.017403
      py      :     0.009107


                     *******************************
                     * LOEWDIN POPULATION ANALYSIS *
                     *******************************

----------------------
LOEWDIN ATOMIC CHARGES
----------------------
   0 C :    0.089390
   1 H :    0.051962
   2 N :    0.336203
   3 C :   -0.044175
   4 H :    0.051601
   5 H :    0.031740
   6 H :    0.043792
   7 C :    0.157212
   8 H :    0.104635
   9 H :    0.102106
  10 H :    0.104566
  11 H :    0.002824
  12 H :   -0.027412
  13 H :   -0.004443

-------------------------------
LOEWDIN REDUCED ORBITAL CHARGES
-------------------------------
  0 C s       :     2.676932  s :     2.676932
      pz      :     0.942321  p :     2.592588
      px      :     0.937502
      py      :     0.712766
      dz2     :     0.127110  d :     0.641090
      dxz     :     0.128537
      dyz     :     0.168492
      dx2y2   :     0.119404
      dxy     :     0.097547
  1 H s       :     0.718282  s :     0.718282
      pz      :     0.074185  p :     0.229757
      px      :     0.100651
      py      :     0.054921
  2 N s       :     2.898095  s :     2.898095
      pz      :     1.111023  p :     3.373537
      px      :     1.117290
      py      :     1.145224
      dz2     :     0.053475  d :     0.392165
      dxz     :     0.023822
      dyz     :     0.115707
      dx2y2   :     0.084347
      dxy     :     0.114813
  3 C s       :     2.693430  s :     2.693430
      pz      :     0.857328  p :     2.700609
      px      :     0.919535
      py      :     0.923745
      dz2     :     0.168196  d :     0.650136
      dxz     :     0.185552
      dyz     :     0.070543
      dx2y2   :     0.111633
      dxy     :     0.114212
  4 H s       :     0.721285  s :     0.721285
      pz      :     0.066864  p :     0.227114
      px      :     0.112388
      py      :     0.047862
  5 H s       :     0.724218  s :     0.724218
      pz      :     0.070486  p :     0.244042
      px      :     0.087835
      py      :     0.085722
  6 H s       :     0.714810  s :     0.714810
      pz      :     0.057030  p :     0.241397
      px      :     0.063307
      py      :     0.121061
  7 C s       :     2.700833  s :     2.700833
      pz      :     0.932424  p :     2.755709
      px      :     0.896815
      py      :     0.926471
      dz2     :     0.092584  d :     0.386246
      dxz     :     0.075599
      dyz     :     0.026512
      dx2y2   :     0.093784
      dxy     :     0.097767
  8 H s       :     0.613382  s :     0.613382
      pz      :     0.130170  p :     0.281983
      px      :     0.078872
      py      :     0.072941
  9 H s       :     0.608323  s :     0.608323
      pz      :     0.071013  p :     0.289571
      px      :     0.145423
      py      :     0.073135
 10 H s       :     0.608410  s :     0.608410
      pz      :     0.114183  p :     0.287024
      px      :     0.082088
      py      :     0.090753
 11 H s       :     0.730858  s :     0.730858
      pz      :     0.126240  p :     0.266318
      px      :     0.064468
      py      :     0.075610
 12 H s       :     0.745636  s :     0.745636
      pz      :     0.079893  p :     0.281776
      px      :     0.070604
      py      :     0.131278
 13 H s       :     0.735883  s :     0.735883
      pz      :     0.088464  p :     0.268560
      px      :     0.090961
      py      :     0.089135


                      *****************************
                      * MAYER POPULATION ANALYSIS *
                      *****************************

  NA   - Mulliken gross atomic population
  ZA   - Total nuclear charge
  QA   - Mulliken gross atomic charge
  VA   - Mayer's total valence
  BVA  - Mayer's bonded valence
  FA   - Mayer's free valence

  ATOM       NA         ZA         QA         VA         BVA        FA
  0 C      5.2304     6.0000     0.7696     3.9050     3.9050    -0.0000
  1 H      1.1420     1.0000    -0.1420     1.0029     1.0029    -0.0000
  2 N      7.6821     7.0000    -0.6821     3.3849     3.3849     0.0000
  3 C      6.1981     6.0000    -0.1981     5.1542     5.1542    -0.0000
  4 H      1.1518     1.0000    -0.1518     0.9037     0.9037    -0.0000
  5 H      1.1240     1.0000    -0.1240     1.0539     1.0539    -0.0000
  6 H      1.1552     1.0000    -0.1552     1.0852     1.0852    -0.0000
  7 C      5.0299     6.0000     0.9701     3.6832     3.6832     0.0000
  8 H      0.6981     1.0000     0.3019     0.7838     0.7838     0.0000
  9 H      0.6357     1.0000     0.3643     0.7341     0.7341    -0.0000
 10 H      0.6109     1.0000     0.3891     0.6329     0.6329     0.0000
 11 H      1.1198     1.0000    -0.1198     0.9726     0.9726     0.0000
 12 H      1.1645     1.0000    -0.1645     1.0815     1.0815    -0.0000
 13 H      1.0573     1.0000    -0.0573     0.9977     0.9977     0.0000

  Mayer bond orders larger than 0.100000
B(  0-C ,  1-H ) :   0.8137 B(  0-C ,  2-N ) :   0.7912 B(  0-C ,  3-C ) :   1.1581 
B(  0-C ,  4-H ) :   0.8736 B(  0-C ,  5-H ) :   0.1102 B(  0-C ,  6-H ) :   0.1324 
B(  1-H ,  2-N ) :   0.1485 B(  1-H ,  3-C ) :   0.1036 B(  2-N ,  8-H ) :   0.8188 
B(  2-N ,  9-H ) :   0.7864 B(  2-N , 10-H ) :   0.7132 B(  3-C ,  5-H ) :   0.8968 
B(  3-C ,  6-H ) :   0.9403 B(  3-C ,  7-C ) :   1.2827 B(  3-C , 11-H ) :   0.2348 
B(  3-C , 12-H ) :   0.2156 B(  3-C , 13-H ) :   0.2115 B(  7-C , 11-H ) :   0.7416 
B(  7-C , 12-H ) :   0.7683 B(  7-C , 13-H ) :   0.7593 

-------
TIMINGS
-------

Total SCF time: 0 days 0 hours 0 min 11 sec 

Total time                  ....      11.781 sec
Sum of individual times     ....      11.623 sec  ( 98.7%)

Fock matrix formation       ....      10.710 sec  ( 90.9%)
  Split-RI-J                ....       0.757 sec  (  7.1% of F)
  Chain of spheres X        ....       7.314 sec  ( 68.3% of F)
  XC integration            ....       2.336 sec  ( 21.8% of F)
    Basis function eval.    ....       0.808 sec  ( 34.6% of XC)
    Density eval.           ....       0.541 sec  ( 23.2% of XC)
    XC-Functional eval.     ....       0.151 sec  (  6.5% of XC)
    XC-Potential eval.      ....       0.728 sec  ( 31.2% of XC)
Diagonalization             ....       0.042 sec  (  0.4%)
Density matrix formation    ....       0.003 sec  (  0.0%)
Population analysis         ....       0.006 sec  (  0.0%)
Initial guess               ....       0.098 sec  (  0.8%)
Orbital Transformation      ....       0.000 sec  (  0.0%)
Orbital Orthonormalization  ....       0.000 sec  (  0.0%)
DIIS solution               ....       0.034 sec  (  0.3%)
SOSCF solution              ....       0.024 sec  (  0.2%)
Grid generation             ....       0.706 sec  (  6.0%)

Maximum memory used throughout the entire SCF-calculation: 51.1 MB


-------------------------------------------------------------------------------
                          DFT DISPERSION CORRECTION                            
                                                                               
                              DFTD3 V3.1  Rev 1                                
                          USING Becke-Johnson damping                          
-------------------------------------------------------------------------------
The B3LYP functional is recognized
Active option DFTDOPT                   ...         4   

molecular C6(AA) [au] = 1174.901183 


            DFT-D V3
 parameters
 s6 scaling factor         :     1.0000 
 a1 scaling factor         :     0.3981 
 s8 scaling factor         :     1.9889 
 a2 scaling factor         :     4.4211 
 ad hoc parameters k1-k3   :    16.0000     1.3333    -4.0000 

 Edisp/kcal,au: -9.584177523177  -0.015273357450 
 E6   /kcal   :  -4.868665414 
 E8   /kcal   :  -4.715512109 
 % E8         :  49.201009660 

-------------------------   ----------------
Dispersion correction           -0.015273357
-------------------------   ----------------


-------------------------   --------------------
FINAL SINGLE POINT ENERGY      -174.625277317235
-------------------------   --------------------


                            ***************************************
                            *     ORCA property calculations      *
                            ***************************************

                                    ---------------------
                                    Active property flags
                                    ---------------------
   (+) Dipole Moment


------------------------------------------------------------------------------
                       ORCA ELECTRIC PROPERTIES CALCULATION
------------------------------------------------------------------------------

Dipole Moment Calculation                       ... on
Quadrupole Moment Calculation                   ... off
Polarizability Calculation                      ... off
GBWName                                         ... 14Feb_SVPD_B3LYP_A_wt_wb97_typ1_pos.gbw
Electron density file                           ... 14Feb_SVPD_B3LYP_A_wt_wb97_typ1_pos.scfp
The origin for moment calculation is the CENTER OF MASS  = ( 6.649132,  1.530060 -2.239526)

-------------
DIPOLE MOMENT
-------------
                                X             Y             Z
Electronic contribution:      1.01373       1.16356       1.82586
Nuclear contribution   :     -0.57302       0.26376      -0.39709
                        -----------------------------------------
Total Dipole Moment    :      0.44071       1.42733       1.42877
                        -----------------------------------------
Magnitude (a.u.)       :      2.06709
Magnitude (Debye)      :      5.25413



--------------------
Rotational spectrum 
--------------------
 
Rotational constants in cm-1:     0.449370     0.157244     0.134525 
Rotational constants in MHz : 13471.775278  4714.062641  4032.958796 

 Dipole components along the rotational axes: 
x,y,z [a.u.] :     1.981071     0.577890    -0.119422 
x,y,z [Debye]:     5.035483     1.468880    -0.303546 

 

Timings for individual modules:

Sum of individual times         ...       12.446 sec (=   0.207 min)
GTO integral calculation        ...        0.426 sec (=   0.007 min)   3.4 %
SCF iterations                  ...       12.020 sec (=   0.200 min)  96.6 %
                             ****ORCA TERMINATED NORMALLY****
TOTAL RUN TIME: 0 days 0 hours 0 minutes 12 seconds 784 msec
