
                                        *****************
                                        * O   R   C   A *
                                        *****************

                                            #,                                       
                                            ###                                      
                                            ####                                     
                                            #####                                    
                                            ######                                   
                                           ########,                                 
                                     ,,################,,,,,                         
                               ,,#################################,,                 
                          ,,##########################################,,             
                       ,#########################################, ''#####,          
                    ,#############################################,,   '####,        
                  ,##################################################,,,,####,       
                ,###########''''           ''''###############################       
              ,#####''   ,,,,##########,,,,          '''####'''          '####       
            ,##' ,,,,###########################,,,                        '##       
           ' ,,###''''                  '''############,,,                           
         ,,##''                                '''############,,,,        ,,,,,,###''
      ,#''                                            '''#######################'''  
     '                                                          ''''####''''         
             ,#######,   #######,   ,#######,      ##                                
            ,#'     '#,  ##    ##  ,#'     '#,    #''#        ######   ,####,        
            ##       ##  ##   ,#'  ##            #'  '#       #        #'  '#        
            ##       ##  #######   ##           ,######,      #####,   #    #        
            '#,     ,#'  ##    ##  '#,     ,#' ,#      #,         ##   #,  ,#        
             '#######'   ##     ##  '#######'  #'      '#     #####' # '####'        



                  #######################################################
                  #                        -***-                        #
                  #          Department of theory and spectroscopy      #
                  #    Directorship and core code : Frank Neese         #
                  #        Max Planck Institute fuer Kohlenforschung    #
                  #                Kaiser Wilhelm Platz 1               #
                  #                 D-45470 Muelheim/Ruhr               #
                  #                      Germany                        #
                  #                                                     #
                  #                  All rights reserved                #
                  #                        -***-                        #
                  #######################################################


                         Program Version 5.0.0 -  RELEASE  -
                                (SVN: $Rev: 19529$)
                ($Date: 2021-06-28 11:36:33 +0200 (Mo, 28 Jun 2021) $)


 With contributions from (in alphabetic order):
   Daniel Aravena         : Magnetic Suceptibility
   Michael Atanasov       : Ab Initio Ligand Field Theory (pilot matlab implementation)
   Alexander A. Auer      : GIAO ZORA, VPT2 properties, NMR spectrum
   Ute Becker             : Parallelization
   Giovanni Bistoni       : ED, misc. LED, open-shell LED, HFLD
   Martin Brehm           : Molecular dynamics
   Dmytro Bykov           : SCF Hessian
   Vijay G. Chilkuri      : MRCI spin determinant printing, contributions to CSF-ICE
   Dipayan Datta          : RHF DLPNO-CCSD density
   Achintya Kumar Dutta   : EOM-CC, STEOM-CC
   Dmitry Ganyushin       : Spin-Orbit,Spin-Spin,Magnetic field MRCI
   Miquel Garcia          : C-PCM Hessian, Gaussian charge scheme
   Yang Guo               : DLPNO-NEVPT2, F12-NEVPT2, CIM, IAO-localization
   Andreas Hansen         : Spin unrestricted coupled pair/coupled cluster methods
   Benjamin Helmich-Paris : MC-RPA, TRAH-SCF, COSX integrals
   Lee Huntington         : MR-EOM, pCC
   Robert Izsak           : Overlap fitted RIJCOSX, COSX-SCS-MP3, EOM
   Marcus Kettner         : VPT2
   Christian Kollmar      : KDIIS, OOCD, Brueckner-CCSD(T), CCSD density, CASPT2, CASPT2-K
   Simone Kossmann        : Meta GGA functionals, TD-DFT gradient, OOMP2, MP2 Hessian
   Martin Krupicka        : Initial AUTO-CI
   Lucas Lang             : DCDCAS
   Marvin Lechner         : AUTO-CI (C++ implementation), FIC-MRCC
   Dagmar Lenk            : GEPOL surface, SMD
   Dimitrios Liakos       : Extrapolation schemes; Compound Job, initial MDCI parallelization
   Dimitrios Manganas     : Further ROCIS development; embedding schemes
   Dimitrios Pantazis     : SARC Basis sets
   Anastasios Papadopoulos: AUTO-CI, single reference methods and gradients
   Taras Petrenko         : DFT Hessian,TD-DFT gradient, ASA, ECA, R-Raman, ABS, FL, XAS/XES, NRVS
   Peter Pinski           : DLPNO-MP2, DLPNO-MP2 Gradient
   Christoph Reimann      : Effective Core Potentials
   Marius Retegan         : Local ZFS, SOC
   Christoph Riplinger    : Optimizer, TS searches, QM/MM, DLPNO-CCSD(T), (RO)-DLPNO pert. Triples
   Tobias Risthaus        : Range-separated hybrids, TD-DFT gradient, RPA, STAB
   Michael Roemelt        : Original ROCIS implementation
   Masaaki Saitow         : Open-shell DLPNO-CCSD energy and density
   Barbara Sandhoefer     : DKH picture change effects
   Avijit Sen             : IP-ROCIS
   Kantharuban Sivalingam : CASSCF convergence, NEVPT2, FIC-MRCI
   Bernardo de Souza      : ESD, SOC TD-DFT
   Georgi Stoychev        : AutoAux, RI-MP2 NMR
   Willem Van den Heuvel  : Paramagnetic NMR
   Boris Wezisla          : Elementary symmetry handling
   Frank Wennmohs         : Technical directorship


 We gratefully acknowledge several colleagues who have allowed us to
 interface, adapt or use parts of their codes:
   Stefan Grimme, W. Hujo, H. Kruse, P. Pracht,  : VdW corrections, initial TS optimization,
                  C. Bannwarth, S. Ehlert          DFT functionals, gCP, sTDA/sTD-DF
   Ed Valeev, F. Pavosevic, A. Kumar             : LibInt (2-el integral package), F12 methods
   Garnet Chan, S. Sharma, J. Yang, R. Olivares  : DMRG
   Ulf Ekstrom                                   : XCFun DFT Library
   Mihaly Kallay                                 : mrcc  (arbitrary order and MRCC methods)
   Jiri Pittner, Ondrej Demel                    : Mk-CCSD
   Frank Weinhold                                : gennbo (NPA and NBO analysis)
   Christopher J. Cramer and Donald G. Truhlar   : smd solvation model
   Lars Goerigk                                  : TD-DFT with DH, B97 family of functionals
   V. Asgeirsson, H. Jonsson                     : NEB implementation
   FAccTs GmbH                                   : IRC, NEB, NEB-TS, DLPNO-Multilevel, CI-OPT
                                                   MM, QMMM, 2- and 3-layer-ONIOM, Crystal-QMMM,
                                                   LR-CPCM, SF, NACMEs, symmetry and pop. for TD-DFT,
                                                   nearIR, NL-DFT gradient (VV10), updates on ESD,
                                                   ML-optimized integration grids
   S Lehtola, MJT Oliveira, MAL Marques          : LibXC Library
   Liviu Ungur et al                             : ANISO software


 Your calculation uses the libint2 library for the computation of 2-el integrals
 For citations please refer to: http://libint.valeyev.net

 Your ORCA version has been built with support for libXC version: 5.1.0
 For citations please refer to: https://tddft.org/programs/libxc/

 This ORCA versions uses:
   CBLAS   interface :  Fast vector & matrix operations
   LAPACKE interface :  Fast linear algebra routines
   SCALAPACK package :  Parallel linear algebra routines
   Shared memory     :  Shared parallel matrices
   BLAS/LAPACK       :  OpenBLAS 0.3.15  USE64BITINT DYNAMIC_ARCH NO_AFFINITY Haswell SINGLE_THREADED
        Core in use  :  Haswell
   Copyright (c) 2011-2014, The OpenBLAS Project


================================================================================

----- Orbital basis set information -----
Your calculation utilizes the basis: aug-cc-pVTZ 
    H, B-Ne : Obtained from the ccRepo (grant-hill.group.shef.ac.uk/ccrepo) Feb. 2017
              R. A. Kendall, T. H. Dunning, Jr., R. J. Harrison, J. Chem. Phys. 96, 6796 (1992)
         He : Obtained from the ccRepo (grant-hill.group.shef.ac.uk/ccrepo) Feb. 2017
              D. E. Woon, T. H. Dunning, Jr., J. Chem. Phys. 100, 2975 (1994)
  Li-Be, Na : Obtained from the ccRepo (grant-hill.group.shef.ac.uk/ccrepo) Feb. 2017
              B. P. Prascher, D. E. Woon, K. A. Peterson, T. H. Dunning, Jr., A. K. Wilson, Theor. Chem. Acc. 128, 69 (2011)
         Mg : Obtained from the Peterson Research Group Website (tyr0.chem.wsu.edu/~kipeters) Feb. 2017
              B. P. Prascher, D. E. Woon, K. A. Peterson, T. H. Dunning, Jr., A. K. Wilson, Theor. Chem. Acc. 128, 69 (2011)
      Al-Ar : Obtained from the ccRepo (grant-hill.group.shef.ac.uk/ccrepo) Feb. 2017
              D. E. Woon, T. H. Dunning, Jr., J. Chem. Phys. 98, 1358 (1993)
      Sc-Zn : Obtained from the ccRepo (grant-hill.group.shef.ac.uk/ccrepo) Feb. 2017
              N. B. Balabanov, K. A. Peterson, J. Chem. Phys. 123, 064107 (2005)
              N. B. Balabanov, K. A. Peterson, J. Chem. Phys. 125, 074110 (2006)
      Ga-Kr : Obtained from the ccRepo (grant-hill.group.shef.ac.uk/ccrepo) Feb. 2017
              A. K. Wilson, D. E. Woon, K. A. Peterson, T. H. Dunning, Jr., J. Chem. Phys. 110, 7667 (1999)
     Ag, Au : Obtained from the Peterson Research Group Website (tyr0.chem.wsu.edu/~kipeters) Feb. 2017
              K. A. Peterson, C. Puzzarini, Theor. Chem. Acc. 114, 283 (2005)

----- AuxJ basis set information -----
Your calculation utilizes the auxiliary basis: def2/J
   F. Weigend, Phys. Chem. Chem. Phys. 8, 1057 (2006).

----- AuxC basis set information -----
Your calculation utilizes the auxiliary basis: aug-cc-pVTZ/C 
  H-He, B-F, Al-Ar, Ga-Kr : Obtained from the EMSL Basis Set Exchange (bse.pnl.gov) Feb. 2017
                            F. Weigend, A. Kohn, C. Hattig, J. Chem. Phys. 116, 3175 (2002)
                   Be, Mg : Obtained from the TURBOMOLE 7.0 basis set library
                            C. Haettig, Phys. Chem. Chem. Phys. 7, 59 (2005)
                       Ne : Obtained from the EMSL Basis Set Exchange (bse.pnl.gov) Feb. 2017
                            C. Haettig, Phys. Chem. Chem. Phys. 7, 59 (2005)
                            F. Weigend, A. Kohn, C. Hattig, J. Chem. Phys. 116, 3175 (2002)
                    Sc-Zn : Obtained from the EMSL Basis Set Exchange (bse.pnl.gov) Feb. 2017
                            J. G. Hill, J. A. Platts, J. Chem. Phys. 128, 044104 (2008)

================================================================================
                                        WARNINGS
                       Please study these warnings very carefully!
================================================================================


WARNING: Post HF methods need fully converged wavefunctions
  ===> : Setting SCFConvForced true
         You can overwrite this default with %scf ConvForced false 


WARNING: MDCI localization with Augmented Hessian Foster-Boys
  ===> : Switching off randomization!

INFO   : the flag for use of the SHARK integral package has been found!

================================================================================
                                       INPUT FILE
================================================================================
NAME = C1_wt_dlpno_pos.com
|  1> !DLPNO-CCSD(T) aug-cc-pVTZ aug-cc-pVTZ/C TightSCF TightPNO RIJCOSX def2/J 
|  2> *xyz 0 1 
|  3> C          1.63556       -1.67040       -5.29211
|  4> C          2.48451       -0.50741       -5.14039
|  5> C          3.45115       -0.14953       -5.95259
|  6> N          3.92267        1.08956       -5.85071
|  7> N          3.96616       -1.00618       -6.86788
|  8> H          3.52139       -1.90647       -6.99527
|  9> H          4.44482       -0.62347       -7.67035
| 10> H          2.25200        0.24080       -4.49879
| 11> H          3.46428        1.64078       -5.13639
| 12> H          4.83447        1.31375       -6.22465
| 13> H          2.06372       -2.33262       -6.01532
| 14> H          0.66479       -1.36293       -5.62068
| 15> H          1.55078       -2.17513       -4.35245
| 16> *
| 17> 
| 18> %MaxCore 64000
| 19> 
| 20> %pal nprocs 2
| 21> end  
| 22> 
| 23> %scf
| 24>   MaxIter 150
| 25> end
| 26> 
| 27> 
| 28>                          ****END OF INPUT****
================================================================================

                       ****************************
                       * Single Point Calculation *
                       ****************************

---------------------------------
CARTESIAN COORDINATES (ANGSTROEM)
---------------------------------
  C      1.635560   -1.670400   -5.292110
  C      2.484510   -0.507410   -5.140390
  C      3.451150   -0.149530   -5.952590
  N      3.922670    1.089560   -5.850710
  N      3.966160   -1.006180   -6.867880
  H      3.521390   -1.906470   -6.995270
  H      4.444820   -0.623470   -7.670350
  H      2.252000    0.240800   -4.498790
  H      3.464280    1.640780   -5.136390
  H      4.834470    1.313750   -6.224650
  H      2.063720   -2.332620   -6.015320
  H      0.664790   -1.362930   -5.620680
  H      1.550780   -2.175130   -4.352450

----------------------------
CARTESIAN COORDINATES (A.U.)
----------------------------
  NO LB      ZA    FRAG     MASS         X           Y           Z
   0 C     6.0000    0    12.011    3.090760   -3.156599  -10.000639
   1 C     6.0000    0    12.011    4.695043   -0.958866   -9.713929
   2 C     6.0000    0    12.011    6.521728   -0.282571  -11.248765
   3 N     7.0000    0    14.007    7.412772    2.058970  -11.056240
   4 N     7.0000    0    14.007    7.494956   -1.901405  -12.978412
   5 H     1.0000    0     1.008    6.654463   -3.602706  -13.219145
   6 H     1.0000    0     1.008    8.399493   -1.178188  -14.494861
   7 H     1.0000    0     1.008    4.255663    0.455046   -8.501481
   8 H     1.0000    0     1.008    6.546540    3.100625   -9.706370
   9 H     1.0000    0     1.008    9.135824    2.482628  -11.762884
  10 H     1.0000    0     1.008    3.899866   -4.408013  -11.367307
  11 H     1.0000    0     1.008    1.256271   -2.575564  -10.621546
  12 H     1.0000    0     1.008    2.930549   -4.110400   -8.224939

--------------------------------
INTERNAL COORDINATES (ANGSTROEM)
--------------------------------
 C      0   0   0     0.000000000000     0.00000000     0.00000000
 C      1   0   0     1.447853860374     0.00000000     0.00000000
 C      2   1   0     1.312303251539   125.88108164     0.00000000
 N      3   2   1     1.329682169881   117.89912014   164.56341170
 N      3   2   1     1.355300817789   121.70242568   344.31618449
 H      5   3   2     1.012210773061   118.69888469     7.01850578
 H      5   3   2     1.009722952398   118.50845680   158.08561097
 H      2   1   3     1.012684385285   121.68431269   165.52800226
 H      4   3   2     1.012036532394   113.64189798   359.66429587
 H      4   3   2     1.010678742084   119.88613512   160.18204289
 H      1   2   3     1.069994868259   109.47104385    14.47209576
 H      1   2   3     1.069995532093   109.47130861   254.47197803
 H      1   2   3     1.070000437804   109.47134958   134.47186842

---------------------------
INTERNAL COORDINATES (A.U.)
---------------------------
 C      0   0   0     0.000000000000     0.00000000     0.00000000
 C      1   0   0     2.736047278048     0.00000000     0.00000000
 C      2   1   0     2.479893750063   125.88108164     0.00000000
 N      3   2   1     2.512735146234   117.89912014   164.56341170
 N      3   2   1     2.561147374701   121.70242568   344.31618449
 H      5   3   2     1.912801150889   118.69888469     7.01850578
 H      5   3   2     1.908099851167   118.50845680   158.08561097
 H      2   1   3     1.913696148287   121.68431269   165.52800226
 H      4   3   2     1.912471883748   113.64189798   359.66429587
 H      4   3   2     1.909906031914   119.88613512   160.18204289
 H      1   2   3     2.021997265710   109.47104385    14.47209576
 H      1   2   3     2.021998520176   109.47130861   254.47197803
 H      1   2   3     2.022007790625   109.47134958   134.47186842

---------------------
BASIS SET INFORMATION
---------------------
There are 3 groups of distinct atoms

 Group   1 Type C   : 19s6p3d2f contracted to 5s4p3d2f pattern {88111/3111/111/11}
 Group   2 Type N   : 19s6p3d2f contracted to 5s4p3d2f pattern {88111/3111/111/11}
 Group   3 Type H   : 6s3p2d contracted to 4s3p2d pattern {3111/111/11}

Atom   0C    basis set group =>   1
Atom   1C    basis set group =>   1
Atom   2C    basis set group =>   1
Atom   3N    basis set group =>   2
Atom   4N    basis set group =>   2
Atom   5H    basis set group =>   3
Atom   6H    basis set group =>   3
Atom   7H    basis set group =>   3
Atom   8H    basis set group =>   3
Atom   9H    basis set group =>   3
Atom  10H    basis set group =>   3
Atom  11H    basis set group =>   3
Atom  12H    basis set group =>   3
---------------------------------
AUXILIARY/J BASIS SET INFORMATION
---------------------------------
There are 3 groups of distinct atoms

 Group   1 Type C   : 12s5p4d2f1g contracted to 6s4p3d1f1g pattern {711111/2111/211/2/1}
 Group   2 Type N   : 12s5p4d2f1g contracted to 6s4p3d1f1g pattern {711111/2111/211/2/1}
 Group   3 Type H   : 5s2p1d contracted to 3s1p1d pattern {311/2/1}

Atom   0C    basis set group =>   1
Atom   1C    basis set group =>   1
Atom   2C    basis set group =>   1
Atom   3N    basis set group =>   2
Atom   4N    basis set group =>   2
Atom   5H    basis set group =>   3
Atom   6H    basis set group =>   3
Atom   7H    basis set group =>   3
Atom   8H    basis set group =>   3
Atom   9H    basis set group =>   3
Atom  10H    basis set group =>   3
Atom  11H    basis set group =>   3
Atom  12H    basis set group =>   3
---------------------------------
AUXILIARY/C BASIS SET INFORMATION
---------------------------------
There are 3 groups of distinct atoms

 Group   1 Type C   : 9s7p6d4f2g contracted to 9s7p6d4f2g pattern {111111111/1111111/111111/1111/11}
 Group   2 Type N   : 9s7p6d4f2g contracted to 9s7p6d4f2g pattern {111111111/1111111/111111/1111/11}
 Group   3 Type H   : 5s4p3d2f contracted to 5s4p3d2f pattern {11111/1111/111/11}

Atom   0C    basis set group =>   1
Atom   1C    basis set group =>   1
Atom   2C    basis set group =>   1
Atom   3N    basis set group =>   2
Atom   4N    basis set group =>   2
Atom   5H    basis set group =>   3
Atom   6H    basis set group =>   3
Atom   7H    basis set group =>   3
Atom   8H    basis set group =>   3
Atom   9H    basis set group =>   3
Atom  10H    basis set group =>   3
Atom  11H    basis set group =>   3
Atom  12H    basis set group =>   3


           ************************************************************
           *        Program running with 2 parallel MPI-processes     *
           *              working on a common directory               *
           ************************************************************
------------------------------------------------------------------------------
                           ORCA GTO INTEGRAL CALCULATION
                           -- RI-GTO INTEGRALS CHOSEN --
------------------------------------------------------------------------------
------------------------------------------------------------------------------
                   ___                                                        
                  /   \      - P O W E R E D   B Y -                         
                 /     \                                                     
                 |  |  |   _    _      __       _____    __    __             
                 |  |  |  | |  | |    /  \     |  _  \  |  |  /  |          
                  \  \/   | |  | |   /    \    | | | |  |  | /  /          
                 / \  \   | |__| |  /  /\  \   | |_| |  |  |/  /          
                |  |  |   |  __  | /  /__\  \  |    /   |      \           
                |  |  |   | |  | | |   __   |  |    \   |  |\   \          
                \     /   | |  | | |  |  |  |  | |\  \  |  | \   \       
                 \___/    |_|  |_| |__|  |__|  |_| \__\ |__|  \__/        
                                                                              
                      - O R C A' S   B I G   F R I E N D -                    
                                      &                                       
                       - I N T E G R A L  F E E D E R -                       
                                                                              
 v1 FN, 2020, v2 2021                                                         
------------------------------------------------------------------------------


Reading SHARK input file C1_wt_dlpno_pos.SHARKINP.tmp ... ok
----------------------
SHARK INTEGRAL PACKAGE
----------------------

Number of atoms                             ...     13
Number of basis functions                   ...    414
Number of shells                            ...    142
Maximum angular momentum                    ...      3
Integral batch strategy                     ... SHARK/LIBINT Hybrid
RI-J (if used) integral strategy            ... SPLIT-RIJ (Revised 2003 algorithm where possible)
Printlevel                                  ...      1
Contraction scheme used                     ... SEGMENTED contraction
Coulomb Range Separation                    ... NOT USED
Exchange Range Separation                   ... NOT USED
Finite Nucleus Model                        ... NOT USED
Auxiliary Coulomb fitting basis             ... AVAILABLE
   # of basis functions in Aux-J            ...    333
   # of shells in Aux-J                     ...    115
   Maximum angular momentum in Aux-J        ...      4
Auxiliary J/K fitting basis                 ... NOT available
Auxiliary Correlation fitting basis         ... AVAILABLE
   # of basis functions in Aux-C            ...    898
   # of shells in Aux-C                     ...    252
   Maximum angular momentum in Aux-C        ...      4
Auxiliary 'external' fitting basis          ... NOT available
Integral threshold                          ...     2.500000e-11
Primitive cut-off                           ...     2.500000e-12
Primitive pair pre-selection threshold      ...     2.500000e-12

Calculating pre-screening integrals         ... done (  0.3 sec) Dimension = 142
Organizing shell pair data                  ... done (  0.4 sec)
Shell pair information
Total number of shell pairs                 ...     10153
Shell pairs after pre-screening             ...      9992
Total number of primitive shell pairs       ...     28760
Primitive shell pairs kept                  ...     23647
          la=0 lb=0:   1636 shell pairs
          la=1 lb=0:   2467 shell pairs
          la=1 lb=1:    968 shell pairs
          la=2 lb=0:   1737 shell pairs
          la=2 lb=1:   1331 shell pairs
          la=2 lb=2:    485 shell pairs
          la=3 lb=0:    567 shell pairs
          la=3 lb=1:    437 shell pairs
          la=3 lb=2:    309 shell pairs
          la=3 lb=3:     55 shell pairs

Calculating one electron integrals          ... done (  0.1 sec)
Calculating RI/J V-Matrix + Cholesky decomp.... done (  0.1 sec)
Calculating RI/C V-Matrix + Cholesky decomp.... done (  0.1 sec)
Calculating Nuclear repulsion               ... done (  0.0 sec) ENN=    184.424879606299 Eh

SHARK setup successfully completed in   1.3 seconds

Maximum memory used throughout the entire GTOINT-calculation: 23.6 MB


           ************************************************************
           *        Program running with 2 parallel MPI-processes     *
           *              working on a common directory               *
           ************************************************************
-------------------------------------------------------------------------------
                                 ORCA SCF
-------------------------------------------------------------------------------

------------
SCF SETTINGS
------------
Hamiltonian:
 Ab initio Hamiltonian  Method          .... Hartree-Fock(GTOs)
 RI-approximation to the Coulomb term is turned on
   Number of AuxJ basis functions       .... 333
   RIJ-COSX (HFX calculated with COS-X)).... on


General Settings:
 Integral files         IntName         .... C1_wt_dlpno_pos
 Hartree-Fock type      HFTyp           .... RHF
 Total Charge           Charge          ....    0
 Multiplicity           Mult            ....    1
 Number of Electrons    NEL             ....   40
 Basis Dimension        Dim             ....  414
 Nuclear Repulsion      ENuc            ....    184.4248796063 Eh

Convergence Acceleration:
 DIIS                   CNVDIIS         .... on
   Start iteration      DIISMaxIt       ....    12
   Startup error        DIISStart       ....  0.200000
   # of expansion vecs  DIISMaxEq       ....     5
   Bias factor          DIISBfac        ....   1.050
   Max. coefficient     DIISMaxC        ....  10.000
 Trust-Rad. Augm. Hess. CNVTRAH         .... auto
   Auto Start mean grad. ratio tolernc. ....  1.125000
   Auto Start start iteration           ....    20
   Auto Start num. interpolation iter.  ....    10
   Max. Number of Micro iterations      ....    16
   Max. Number of Macro iterations      .... Maxiter - #DIIS iter
   Number of Davidson start vectors     ....     2
   Converg. threshold I  (grad. norm)   ....   1.000e-05
   Converg. threshold II (energy diff.) ....   1.000e-08
   Grad. Scal. Fac. for Micro threshold ....   0.100
   Minimum threshold for Micro iter.    ....   0.010
   NR start threshold (gradient norm)   ....   0.001
   Initial trust radius                 ....   0.400
   Minimum AH scaling param. (alpha)    ....   1.000
   Maximum AH scaling param. (alpha)    .... 1000.000
   Orbital update algorithm             .... Taylor
   White noise on init. David. guess    .... on
   Maximum white noise                  ....   0.010
   Quad. conv. algorithm                .... NR
 SOSCF                  CNVSOSCF        .... on
   Start iteration      SOSCFMaxIt      ....   150
   Startup grad/error   SOSCFStart      ....  0.003300
 Level Shifting         CNVShift        .... on
   Level shift para.    LevelShift      ....    0.2500
   Turn off err/grad.   ShiftErr        ....    0.0010
 Zerner damping         CNVZerner       .... off
 Static damping         CNVDamp         .... on
   Fraction old density DampFac         ....    0.7000
   Max. Damping (<1)    DampMax         ....    0.9800
   Min. Damping (>=0)   DampMin         ....    0.0000
   Turn off err/grad.   DampErr         ....    0.1000
 Fernandez-Rico         CNVRico         .... off

SCF Procedure:
 Maximum # iterations   MaxIter         ....   150
 SCF integral mode      SCFMode         .... Direct
   Integral package                     .... SHARK and LIBINT hybrid scheme
 Reset frequency        DirectResetFreq ....    20
 Integral Threshold     Thresh          ....  2.500e-11 Eh
 Primitive CutOff       TCut            ....  2.500e-12 Eh

Convergence Tolerance:
 Convergence Check Mode ConvCheckMode   .... Total+1el-Energy
 Convergence forced     ConvForced      .... 1
 Energy Change          TolE            ....  1.000e-08 Eh
 1-El. energy change                    ....  1.000e-05 Eh
 Orbital Gradient       TolG            ....  1.000e-05
 Orbital Rotation angle TolX            ....  1.000e-05
 DIIS Error             TolErr          ....  5.000e-07


Diagonalization of the overlap matrix:
Smallest eigenvalue                        ... 3.273e-06
Time for diagonalization                   ...    0.077 sec
Threshold for overlap eigenvalues          ... 1.000e-08
Number of eigenvalues below threshold      ... 0
Time for construction of square roots      ...    0.051 sec
Total time needed                          ...    0.142 sec

Time for model grid setup =    0.528 sec

------------------------------
INITIAL GUESS: MODEL POTENTIAL
------------------------------
Loading Hartree-Fock densities                     ... done
Calculating cut-offs                               ... done
Initializing the effective Hamiltonian             ... done
Setting up the integral package (SHARK)            ... done
Starting the Coulomb interaction                   ... done (   1.0 sec)
Reading the grid                                   ... done
Mapping shells                                     ... done
Starting the XC term evaluation                    ... done (   1.0 sec)
Transforming the Hamiltonian                       ... done (   0.2 sec)
Diagonalizing the Hamiltonian                      ... done (   0.1 sec)
Back transforming the eigenvectors                 ... done (   0.0 sec)
Now organizing SCF variables                       ... done
                      ------------------
                      INITIAL GUESS DONE (   2.9 sec)
                      ------------------
--------------------
COSX GRID GENERATION
--------------------

GRIDX 1
-------
General Integration Accuracy     IntAcc      ... 3.816
Radial Grid Type                 RadialGrid  ... OptM3 with GC (2021)
Angular Grid (max. ang.)         AngularGrid ... 1 (Lebedev-50)
Angular grid pruning method      GridPruning ... 4 (adaptive)
Weight generation scheme         WeightScheme... Becke
Basis function cutoff            BFCut       ... 1.0000e-11
Integration weight cutoff        WCut        ... 1.0000e-14
Angular grids for H and He will be reduced by one unit
Partially contracted basis set               ... on
Rotationally invariant grid construction     ... off

Total number of grid points                  ...     7407
Total number of batches                      ...      122
Average number of points per batch           ...       60
Average number of grid points per atom       ...      570
UseSFitting                                  ... on

GRIDX 2
-------
General Integration Accuracy     IntAcc      ... 4.020
Radial Grid Type                 RadialGrid  ... OptM3 with GC (2021)
Angular Grid (max. ang.)         AngularGrid ... 2 (Lebedev-110)
Angular grid pruning method      GridPruning ... 4 (adaptive)
Weight generation scheme         WeightScheme... Becke
Basis function cutoff            BFCut       ... 1.0000e-11
Integration weight cutoff        WCut        ... 1.0000e-14
Angular grids for H and He will be reduced by one unit
Partially contracted basis set               ... on
Rotationally invariant grid construction     ... off

Total number of grid points                  ...    17608
Total number of batches                      ...      281
Average number of points per batch           ...       62
Average number of grid points per atom       ...     1354
UseSFitting                                  ... on

GRIDX 3
-------
General Integration Accuracy     IntAcc      ... 4.338
Radial Grid Type                 RadialGrid  ... OptM3 with GC (2021)
Angular Grid (max. ang.)         AngularGrid ... 3 (Lebedev-194)
Angular grid pruning method      GridPruning ... 4 (adaptive)
Weight generation scheme         WeightScheme... Becke
Basis function cutoff            BFCut       ... 1.0000e-11
Integration weight cutoff        WCut        ... 1.0000e-14
Angular grids for H and He will be reduced by one unit
Partially contracted basis set               ... on
Rotationally invariant grid construction     ... off

Total number of grid points                  ...    39642
Total number of batches                      ...      627
Average number of points per batch           ...       63
Average number of grid points per atom       ...     3049
UseSFitting                                  ... on

Time for X-Grid setup             =    3.944 sec

 re-compute Schwartz prescreening matrix in partically contracted basis (1) ...done (   0.297 sec)
--------------
SCF ITERATIONS
--------------
ITER       Energy         Delta-E        Max-DP      RMS-DP      [F,P]     Damp
               ***  Starting incremental Fock matrix formation  ***
  0   -226.8057345433   0.000000000000 0.04508679  0.00070260  0.2997189 0.7000
  1   -226.9495851369  -0.143850593553 0.03376537  0.00055560  0.1884413 0.7000
                               ***Turning on DIIS***
  2   -227.0344375052  -0.084852368300 0.02490522  0.00038839  0.1095869 0.7000
  3   -227.8181631636  -0.783725658424 0.10035611  0.00097705  0.0772183 0.0000
  4   -227.0763834000   0.741779763547 0.03690215  0.00019297  0.0097901 0.0000
                      *** Initiating the SOSCF procedure ***
                           *** Shutting down DIIS ***
                      *** Re-Reading the Fockian *** 
                      *** Removing any level shift *** 
ITER      Energy       Delta-E        Grad      Rot      Max-DP    RMS-DP
  5   -227.18810809  -0.1117246859  0.001878  0.001878  0.012409  0.000079
               *** Restarting incremental Fock matrix formation ***
  6   -227.20374382  -0.0156357370  0.000836  0.001587  0.008166  0.000152
  7   -227.20377674  -0.0000329135  0.000431  0.001479  0.002074  0.000042
  8   -227.20378426  -0.0000075230  0.000047  0.000127  0.001093  0.000021
  9   -227.20378464  -0.0000003795  0.000024  0.000055  0.000191  0.000004
 10   -227.20378468  -0.0000000456  0.000012  0.000046  0.000046  0.000001
                  ***Gradient check signals convergence***
              ***Rediagonalizing the Fockian in SOSCF/NRSCF***

               *****************************************************
               *                     SUCCESS                       *
               *           SCF CONVERGED AFTER  11 CYCLES          *
               *****************************************************

Old exchange energy                            =    -31.848570545 Eh
New exchange energy                            =    -31.848605264 Eh
Exchange energy change after final integration =     -0.000034720 Eh
Total energy after final integration           =   -227.203819408 Eh
Final COS-X integration done in                =    61.933 sec

----------------
TOTAL SCF ENERGY
----------------

Total Energy       :         -227.20381941 Eh           -6182.53024 eV

Components:
Nuclear Repulsion  :          184.42487961 Eh            5018.45611 eV
Electronic Energy  :         -411.62869901 Eh          -11200.98635 eV
One Electron Energy:         -672.67853232 Eh          -18304.51345 eV
Two Electron Energy:          261.04983330 Eh            7103.52710 eV
Max COSX asymmetry :            0.00002480 Eh               0.00067 eV

Virial components:
Potential Energy   :         -454.76709712 Eh          -12374.84184 eV
Kinetic Energy     :          227.56327771 Eh            6192.31160 eV
Virial Ratio       :            1.99842040


---------------
SCF CONVERGENCE
---------------

  Last Energy change         ...   -4.4206e-09  Tolerance :   1.0000e-08
  Last MAX-Density change    ...    2.4425e-15  Tolerance :   1.0000e-07
  Last RMS-Density change    ...    1.4032e-17  Tolerance :   5.0000e-09
  Last Orbital Gradient      ...    1.2174e-06  Tolerance :   1.0000e-05
  Last Orbital Rotation      ...    3.9986e-06  Tolerance :   1.0000e-05

             **** THE GBW FILE WAS UPDATED (C1_wt_dlpno_pos.gbw) ****
             **** DENSITY C1_wt_dlpno_pos.scfp WAS UPDATED ****
             **** ENERGY FILE WAS UPDATED (C1_wt_dlpno_pos.en.tmp) ****
             **** THE GBW FILE WAS UPDATED (C1_wt_dlpno_pos.gbw) ****
             **** DENSITY C1_wt_dlpno_pos.scfp WAS UPDATED ****
----------------
ORBITAL ENERGIES
----------------

  NO   OCC          E(Eh)            E(eV) 
   0   2.0000     -15.558473      -423.3676 
   1   2.0000     -15.555902      -423.2976 
   2   2.0000     -11.276063      -306.8373 
   3   2.0000     -11.188624      -304.4579 
   4   2.0000     -11.141425      -303.1736 
   5   2.0000      -1.272495       -34.6264 
   6   2.0000      -1.162090       -31.6221 
   7   2.0000      -1.028319       -27.9820 
   8   2.0000      -0.899008       -24.4632 
   9   2.0000      -0.780435       -21.2367 
  10   2.0000      -0.717941       -19.5362 
  11   2.0000      -0.693243       -18.8641 
  12   2.0000      -0.631891       -17.1946 
  13   2.0000      -0.590232       -16.0610 
  14   2.0000      -0.570962       -15.5367 
  15   2.0000      -0.537891       -14.6368 
  16   2.0000      -0.513854       -13.9827 
  17   2.0000      -0.495990       -13.4966 
  18   2.0000      -0.412435       -11.2229 
  19   2.0000      -0.262119        -7.1326 
  20   0.0000       0.025946         0.7060 
  21   0.0000       0.036558         0.9948 
  22   0.0000       0.040556         1.1036 
  23   0.0000       0.052088         1.4174 
  24   0.0000       0.054575         1.4851 
  25   0.0000       0.058071         1.5802 
  26   0.0000       0.071990         1.9589 
  27   0.0000       0.082155         2.2355 
  28   0.0000       0.100526         2.7355 
  29   0.0000       0.108705         2.9580 
  30   0.0000       0.113912         3.0997 
  31   0.0000       0.118023         3.2116 
  32   0.0000       0.128006         3.4832 
  33   0.0000       0.130876         3.5613 
  34   0.0000       0.148726         4.0470 
  35   0.0000       0.150175         4.0865 
  36   0.0000       0.153431         4.1751 
  37   0.0000       0.157449         4.2844 
  38   0.0000       0.157843         4.2951 
  39   0.0000       0.168330         4.5805 
  40   0.0000       0.174443         4.7468 
  41   0.0000       0.178985         4.8704 
  42   0.0000       0.187095         5.0911 
  43   0.0000       0.198286         5.3956 
  44   0.0000       0.205026         5.5790 
  45   0.0000       0.232111         6.3160 
  46   0.0000       0.238737         6.4964 
  47   0.0000       0.245542         6.6815 
  48   0.0000       0.265455         7.2234 
  49   0.0000       0.268740         7.3128 
  50   0.0000       0.273422         7.4402 
  51   0.0000       0.293928         7.9982 
  52   0.0000       0.298393         8.1197 
  53   0.0000       0.313501         8.5308 
  54   0.0000       0.317419         8.6374 
  55   0.0000       0.327489         8.9114 
  56   0.0000       0.338227         9.2036 
  57   0.0000       0.343516         9.3475 
  58   0.0000       0.347642         9.4598 
  59   0.0000       0.353464         9.6182 
  60   0.0000       0.359346         9.7783 
  61   0.0000       0.361454         9.8357 
  62   0.0000       0.367763        10.0073 
  63   0.0000       0.377054        10.2602 
  64   0.0000       0.381407        10.3786 
  65   0.0000       0.391944        10.6653 
  66   0.0000       0.394442        10.7333 
  67   0.0000       0.399653        10.8751 
  68   0.0000       0.406040        11.0489 
  69   0.0000       0.411125        11.1873 
  70   0.0000       0.422169        11.4878 
  71   0.0000       0.427189        11.6244 
  72   0.0000       0.427740        11.6394 
  73   0.0000       0.441491        12.0136 
  74   0.0000       0.444732        12.1018 
  75   0.0000       0.448464        12.2033 
  76   0.0000       0.456120        12.4117 
  77   0.0000       0.471802        12.8384 
  78   0.0000       0.481128        13.0922 
  79   0.0000       0.488879        13.3031 
  80   0.0000       0.493032        13.4161 
  81   0.0000       0.498663        13.5693 
  82   0.0000       0.502847        13.6832 
  83   0.0000       0.518797        14.1172 
  84   0.0000       0.529465        14.4075 
  85   0.0000       0.535495        14.5716 
  86   0.0000       0.546596        14.8736 
  87   0.0000       0.550425        14.9778 
  88   0.0000       0.561048        15.2669 
  89   0.0000       0.571527        15.5520 
  90   0.0000       0.578811        15.7503 
  91   0.0000       0.596193        16.2232 
  92   0.0000       0.597816        16.2674 
  93   0.0000       0.607207        16.5230 
  94   0.0000       0.626633        17.0516 
  95   0.0000       0.630232        17.1495 
  96   0.0000       0.649103        17.6630 
  97   0.0000       0.657561        17.8931 
  98   0.0000       0.660220        17.9655 
  99   0.0000       0.678970        18.4757 
 100   0.0000       0.689257        18.7556 
 101   0.0000       0.700893        19.0723 
 102   0.0000       0.701923        19.1003 
 103   0.0000       0.720121        19.5955 
 104   0.0000       0.731187        19.8966 
 105   0.0000       0.749284        20.3891 
 106   0.0000       0.761792        20.7294 
 107   0.0000       0.773848        21.0575 
 108   0.0000       0.779257        21.2047 
 109   0.0000       0.786558        21.4033 
 110   0.0000       0.808353        21.9964 
 111   0.0000       0.824649        22.4399 
 112   0.0000       0.828296        22.5391 
 113   0.0000       0.832587        22.6558 
 114   0.0000       0.839679        22.8488 
 115   0.0000       0.864584        23.5265 
 116   0.0000       0.868814        23.6416 
 117   0.0000       0.885205        24.0876 
 118   0.0000       0.904436        24.6110 
 119   0.0000       0.914140        24.8750 
 120   0.0000       0.919278        25.0148 
 121   0.0000       0.926886        25.2219 
 122   0.0000       0.935962        25.4688 
 123   0.0000       0.941976        25.6325 
 124   0.0000       0.949353        25.8332 
 125   0.0000       0.960030        26.1237 
 126   0.0000       0.979458        26.6524 
 127   0.0000       0.982958        26.7477 
 128   0.0000       0.985284        26.8109 
 129   0.0000       0.995055        27.0768 
 130   0.0000       1.000465        27.2240 
 131   0.0000       1.013681        27.5837 
 132   0.0000       1.028687        27.9920 
 133   0.0000       1.036368        28.2010 
 134   0.0000       1.037234        28.2246 
 135   0.0000       1.043856        28.4048 
 136   0.0000       1.056620        28.7521 
 137   0.0000       1.065712        28.9995 
 138   0.0000       1.075129        29.2558 
 139   0.0000       1.077127        29.3101 
 140   0.0000       1.089769        29.6541 
 141   0.0000       1.093439        29.7540 
 142   0.0000       1.108335        30.1593 
 143   0.0000       1.121917        30.5289 
 144   0.0000       1.132476        30.8162 
 145   0.0000       1.150646        31.3107 
 146   0.0000       1.162562        31.6349 
 147   0.0000       1.167695        31.7746 
 148   0.0000       1.172665        31.9098 
 149   0.0000       1.181512        32.1506 
 150   0.0000       1.189549        32.3693 
 151   0.0000       1.205541        32.8044 
 152   0.0000       1.215240        33.0684 
 153   0.0000       1.226851        33.3843 
 154   0.0000       1.238249        33.6945 
 155   0.0000       1.248319        33.9685 
 156   0.0000       1.255674        34.1686 
 157   0.0000       1.260998        34.3135 
 158   0.0000       1.263863        34.3915 
 159   0.0000       1.282845        34.9080 
 160   0.0000       1.287784        35.0424 
 161   0.0000       1.300600        35.3911 
 162   0.0000       1.313239        35.7351 
 163   0.0000       1.319187        35.8969 
 164   0.0000       1.334936        36.3255 
 165   0.0000       1.339625        36.4530 
 166   0.0000       1.351654        36.7804 
 167   0.0000       1.360940        37.0331 
 168   0.0000       1.378577        37.5130 
 169   0.0000       1.390926        37.8490 
 170   0.0000       1.395896        37.9843 
 171   0.0000       1.407418        38.2978 
 172   0.0000       1.418963        38.6119 
 173   0.0000       1.433291        39.0018 
 174   0.0000       1.434681        39.0397 
 175   0.0000       1.445673        39.3388 
 176   0.0000       1.472437        40.0670 
 177   0.0000       1.474471        40.1224 
 178   0.0000       1.497990        40.7624 
 179   0.0000       1.510452        41.1015 
 180   0.0000       1.526726        41.5443 
 181   0.0000       1.535948        41.7953 
 182   0.0000       1.543585        42.0031 
 183   0.0000       1.566838        42.6358 
 184   0.0000       1.588962        43.2379 
 185   0.0000       1.597005        43.4567 
 186   0.0000       1.615922        43.9715 
 187   0.0000       1.642019        44.6816 
 188   0.0000       1.654344        45.0170 
 189   0.0000       1.663753        45.2730 
 190   0.0000       1.675647        45.5967 
 191   0.0000       1.686005        45.8785 
 192   0.0000       1.707234        46.4562 
 193   0.0000       1.713923        46.6382 
 194   0.0000       1.725415        46.9509 
 195   0.0000       1.738816        47.3156 
 196   0.0000       1.761102        47.9220 
 197   0.0000       1.765209        48.0338 
 198   0.0000       1.785085        48.5746 
 199   0.0000       1.808918        49.2232 
 200   0.0000       1.829779        49.7908 
 201   0.0000       1.833395        49.8892 
 202   0.0000       1.850004        50.3412 
 203   0.0000       1.859582        50.6018 
 204   0.0000       1.880141        51.1612 
 205   0.0000       1.898254        51.6541 
 206   0.0000       1.904318        51.8191 
 207   0.0000       1.916141        52.1409 
 208   0.0000       1.955376        53.2085 
 209   0.0000       1.992803        54.2269 
 210   0.0000       1.994968        54.2858 
 211   0.0000       2.019370        54.9499 
 212   0.0000       2.024786        55.0972 
 213   0.0000       2.056294        55.9546 
 214   0.0000       2.069335        56.3095 
 215   0.0000       2.079469        56.5852 
 216   0.0000       2.085163        56.7402 
 217   0.0000       2.093094        56.9560 
 218   0.0000       2.111153        57.4474 
 219   0.0000       2.135593        58.1124 
 220   0.0000       2.157198        58.7003 
 221   0.0000       2.167150        58.9711 
 222   0.0000       2.178890        59.2906 
 223   0.0000       2.202680        59.9380 
 224   0.0000       2.214503        60.2597 
 225   0.0000       2.228363        60.6368 
 226   0.0000       2.242493        61.0213 
 227   0.0000       2.262568        61.5676 
 228   0.0000       2.267669        61.7064 
 229   0.0000       2.294457        62.4353 
 230   0.0000       2.303001        62.6678 
 231   0.0000       2.315887        63.0185 
 232   0.0000       2.319536        63.1178 
 233   0.0000       2.333898        63.5086 
 234   0.0000       2.365353        64.3645 
 235   0.0000       2.376572        64.6698 
 236   0.0000       2.415106        65.7184 
 237   0.0000       2.423177        65.9380 
 238   0.0000       2.436300        66.2951 
 239   0.0000       2.450134        66.6715 
 240   0.0000       2.473528        67.3081 
 241   0.0000       2.521463        68.6125 
 242   0.0000       2.542243        69.1780 
 243   0.0000       2.553822        69.4930 
 244   0.0000       2.566640        69.8418 
 245   0.0000       2.594007        70.5865 
 246   0.0000       2.609466        71.0072 
 247   0.0000       2.620631        71.3110 
 248   0.0000       2.636721        71.7488 
 249   0.0000       2.655304        72.2545 
 250   0.0000       2.666289        72.5534 
 251   0.0000       2.699960        73.4697 
 252   0.0000       2.747295        74.7577 
 253   0.0000       2.783738        75.7494 
 254   0.0000       2.810752        76.4844 
 255   0.0000       2.890790        78.6624 
 256   0.0000       2.968998        80.7905 
 257   0.0000       3.020543        82.1931 
 258   0.0000       3.069267        83.5190 
 259   0.0000       3.083769        83.9136 
 260   0.0000       3.195033        86.9413 
 261   0.0000       3.235801        88.0506 
 262   0.0000       3.278131        89.2025 
 263   0.0000       3.347477        91.0895 
 264   0.0000       3.385999        92.1377 
 265   0.0000       3.407693        92.7281 
 266   0.0000       3.436915        93.5232 
 267   0.0000       3.473844        94.5281 
 268   0.0000       3.484565        94.8198 
 269   0.0000       3.533445        96.1499 
 270   0.0000       3.555991        96.7634 
 271   0.0000       3.574314        97.2620 
 272   0.0000       3.605684        98.1156 
 273   0.0000       3.629733        98.7701 
 274   0.0000       3.650823        99.3439 
 275   0.0000       3.698007       100.6279 
 276   0.0000       3.703644       100.7813 
 277   0.0000       3.712240       101.0152 
 278   0.0000       3.726879       101.4135 
 279   0.0000       3.755390       102.1893 
 280   0.0000       3.768807       102.5544 
 281   0.0000       3.796098       103.2971 
 282   0.0000       3.822479       104.0149 
 283   0.0000       3.830832       104.2422 
 284   0.0000       3.861668       105.0813 
 285   0.0000       3.886746       105.7637 
 286   0.0000       3.914712       106.5247 
 287   0.0000       3.928315       106.8949 
 288   0.0000       3.945800       107.3707 
 289   0.0000       3.957848       107.6985 
 290   0.0000       3.994804       108.7041 
 291   0.0000       4.016764       109.3017 
 292   0.0000       4.037312       109.8608 
 293   0.0000       4.042397       109.9992 
 294   0.0000       4.058845       110.4468 
 295   0.0000       4.067725       110.6884 
 296   0.0000       4.086518       111.1998 
 297   0.0000       4.107948       111.7829 
 298   0.0000       4.153202       113.0144 
 299   0.0000       4.168370       113.4271 
 300   0.0000       4.190153       114.0199 
 301   0.0000       4.201899       114.3395 
 302   0.0000       4.207549       114.4932 
 303   0.0000       4.234650       115.2307 
 304   0.0000       4.250491       115.6617 
 305   0.0000       4.264787       116.0508 
 306   0.0000       4.276694       116.3748 
 307   0.0000       4.296418       116.9115 
 308   0.0000       4.322899       117.6321 
 309   0.0000       4.332773       117.9007 
 310   0.0000       4.360456       118.6541 
 311   0.0000       4.373147       118.9994 
 312   0.0000       4.386179       119.3540 
 313   0.0000       4.411627       120.0465 
 314   0.0000       4.419771       120.2681 
 315   0.0000       4.436485       120.7229 
 316   0.0000       4.472602       121.7057 
 317   0.0000       4.494424       122.2995 
 318   0.0000       4.498705       122.4160 
 319   0.0000       4.516394       122.8973 
 320   0.0000       4.533458       123.3617 
 321   0.0000       4.567946       124.3001 
 322   0.0000       4.569382       124.3392 
 323   0.0000       4.582179       124.6874 
 324   0.0000       4.610061       125.4461 
 325   0.0000       4.641779       126.3092 
 326   0.0000       4.665741       126.9613 
 327   0.0000       4.697630       127.8290 
 328   0.0000       4.731499       128.7506 
 329   0.0000       4.759969       129.5253 
 330   0.0000       4.779994       130.0702 
 331   0.0000       4.810780       130.9080 
 332   0.0000       4.817967       131.1035 
 333   0.0000       4.862369       132.3118 
 334   0.0000       4.875904       132.6801 
 335   0.0000       4.891028       133.0916 
 336   0.0000       4.911334       133.6442 
 337   0.0000       4.940574       134.4399 
 338   0.0000       4.949587       134.6851 
 339   0.0000       4.961595       135.0119 
 340   0.0000       4.980596       135.5289 
 341   0.0000       5.004026       136.1665 
 342   0.0000       5.028123       136.8222 
 343   0.0000       5.045925       137.3066 
 344   0.0000       5.083075       138.3175 
 345   0.0000       5.107076       138.9706 
 346   0.0000       5.125384       139.4688 
 347   0.0000       5.127474       139.5257 
 348   0.0000       5.146435       140.0416 
 349   0.0000       5.180995       140.9820 
 350   0.0000       5.202811       141.5757 
 351   0.0000       5.223359       142.1348 
 352   0.0000       5.254096       142.9712 
 353   0.0000       5.286157       143.8436 
 354   0.0000       5.299553       144.2082 
 355   0.0000       5.318392       144.7208 
 356   0.0000       5.350308       145.5893 
 357   0.0000       5.383029       146.4797 
 358   0.0000       5.405235       147.0839 
 359   0.0000       5.441114       148.0603 
 360   0.0000       5.466337       148.7466 
 361   0.0000       5.478033       149.0649 
 362   0.0000       5.482252       149.1797 
 363   0.0000       5.515424       150.0823 
 364   0.0000       5.531488       150.5194 
 365   0.0000       5.541506       150.7920 
 366   0.0000       5.569612       151.5569 
 367   0.0000       5.595742       152.2679 
 368   0.0000       5.609512       152.6426 
 369   0.0000       5.638341       153.4271 
 370   0.0000       5.681775       154.6090 
 371   0.0000       5.712243       155.4380 
 372   0.0000       5.736833       156.1072 
 373   0.0000       5.752240       156.5264 
 374   0.0000       5.790962       157.5801 
 375   0.0000       5.818870       158.3395 
 376   0.0000       5.840736       158.9345 
 377   0.0000       5.863640       159.5578 
 378   0.0000       5.948629       161.8704 
 379   0.0000       6.015456       163.6889 
 380   0.0000       6.027613       164.0197 
 381   0.0000       6.057000       164.8194 
 382   0.0000       6.093593       165.8151 
 383   0.0000       6.111635       166.3060 
 384   0.0000       6.167184       167.8176 
 385   0.0000       6.203030       168.7930 
 386   0.0000       6.243477       169.8937 
 387   0.0000       6.254419       170.1914 
 388   0.0000       6.312376       171.7685 
 389   0.0000       6.321378       172.0134 
 390   0.0000       6.363089       173.1484 
 391   0.0000       6.417429       174.6271 
 392   0.0000       6.483520       176.4255 
 393   0.0000       6.539794       177.9568 
 394   0.0000       6.576956       178.9681 
 395   0.0000       6.615323       180.0121 
 396   0.0000       6.713375       182.6802 
 397   0.0000       6.736061       183.2975 
 398   0.0000       6.774952       184.3558 
 399   0.0000       6.835419       186.0012 
 400   0.0000       6.851468       186.4379 
 401   0.0000       7.030669       191.3142 
 402   0.0000       7.134261       194.1331 
 403   0.0000       7.235685       196.8930 
 404   0.0000       7.520409       204.6407 
 405   0.0000       7.552720       205.5199 
 406   0.0000       7.621228       207.3841 
 407   0.0000       7.775824       211.5909 
 408   0.0000       7.818054       212.7401 
 409   0.0000      17.800006       484.3628 
 410   0.0000      18.333019       498.8668 
 411   0.0000      18.665940       507.9261 
 412   0.0000      20.043460       545.4103 
 413   0.0000      20.482238       557.3500 

                    ********************************
                    * MULLIKEN POPULATION ANALYSIS *
                    ********************************

-----------------------
MULLIKEN ATOMIC CHARGES
-----------------------
   0 C :   -0.872516
   1 C :   -0.241695
   2 C :    0.405531
   3 N :   -0.470024
   4 N :   -0.431546
   5 H :    0.129694
   6 H :    0.140759
   7 H :    0.329760
   8 H :    0.063848
   9 H :    0.109091
  10 H :    0.379212
  11 H :    0.236185
  12 H :    0.221702
Sum of atomic charges:   -0.0000000

--------------------------------
MULLIKEN REDUCED ORBITAL CHARGES
--------------------------------
  0 C s       :     3.197085  s :     3.197085
      pz      :     1.271504  p :     3.529568
      px      :     1.181990
      py      :     1.076074
      dz2     :     0.032436  d :     0.138097
      dxz     :     0.021126
      dyz     :     0.047998
      dx2y2   :     0.011781
      dxy     :     0.024755
      f0      :     0.001926  f :     0.007765
      f+1     :    -0.001495
      f-1     :     0.003137
      f+2     :     0.001748
      f-2     :     0.000878
      f+3     :    -0.000165
      f-3     :     0.001735
  1 C s       :     3.184768  s :     3.184768
      pz      :     1.084406  p :     3.162325
      px      :     0.970216
      py      :     1.107704
      dz2     :    -0.004261  d :    -0.073510
      dxz     :    -0.017531
      dyz     :    -0.027109
      dx2y2   :     0.000693
      dxy     :    -0.025302
      f0      :    -0.004364  f :    -0.031888
      f+1     :    -0.004065
      f-1     :     0.000113
      f+2     :    -0.007106
      f-2     :    -0.005195
      f+3     :    -0.003293
      f-3     :    -0.007979
  2 C s       :     3.483459  s :     3.483459
      pz      :     0.726570  p :     2.175186
      px      :     0.726038
      py      :     0.722577
      dz2     :     0.028830  d :    -0.053230
      dxz     :    -0.019711
      dyz     :    -0.014877
      dx2y2   :    -0.020682
      dxy     :    -0.026790
      f0      :    -0.000205  f :    -0.010946
      f+1     :    -0.002573
      f-1     :     0.001405
      f+2     :    -0.004244
      f-2     :    -0.001649
      f+3     :     0.000330
      f-3     :    -0.004010
  3 N s       :     3.613315  s :     3.613315
      pz      :     1.444610  p :     3.813437
      px      :     1.233263
      py      :     1.135563
      dz2     :     0.005092  d :     0.038255
      dxz     :     0.003484
      dyz     :     0.003469
      dx2y2   :     0.010083
      dxy     :     0.016127
      f0      :    -0.000157  f :     0.005017
      f+1     :     0.000839
      f-1     :     0.000424
      f+2     :     0.001763
      f-2     :     0.000291
      f+3     :    -0.000336
      f-3     :     0.002193
  4 N s       :     3.675519  s :     3.675519
      pz      :     1.189620  p :     3.742510
      px      :     1.447608
      py      :     1.105281
      dz2     :     0.013876  d :     0.010739
      dxz     :    -0.006883
      dyz     :    -0.001886
      dx2y2   :    -0.006885
      dxy     :     0.012516
      f0      :     0.001329  f :     0.002779
      f+1     :     0.001346
      f-1     :    -0.000272
      f+2     :     0.000422
      f-2     :    -0.000382
      f+3     :     0.000333
      f-3     :     0.000002
  5 H s       :     0.764136  s :     0.764136
      pz      :     0.025035  p :     0.079747
      px      :     0.021485
      py      :     0.033226
      dz2     :     0.000366  d :     0.026423
      dxz     :     0.002118
      dyz     :     0.009639
      dx2y2   :     0.010601
      dxy     :     0.003699
  6 H s       :     0.753013  s :     0.753013
      pz      :     0.010184  p :     0.080948
      px      :     0.046953
      py      :     0.023810
      dz2     :     0.008965  d :     0.025281
      dxz     :     0.005926
      dyz     :     0.003592
      dx2y2   :     0.003713
      dxy     :     0.003086
  7 H s       :     0.613966  s :     0.613966
      pz      :     0.004715  p :     0.057736
      px      :     0.033268
      py      :     0.019752
      dz2     :     0.002056  d :    -0.001461
      dxz     :    -0.002179
      dyz     :    -0.003359
      dx2y2   :     0.000818
      dxy     :     0.001202
  8 H s       :     0.816046  s :     0.816046
      pz      :     0.027510  p :     0.094840
      px      :     0.024042
      py      :     0.043288
      dz2     :     0.008405  d :     0.025267
      dxz     :     0.002271
      dyz     :     0.004448
      dx2y2   :     0.007054
      dxy     :     0.003089
  9 H s       :     0.781715  s :     0.781715
      pz      :     0.042177  p :     0.083927
      px      :     0.013517
      py      :     0.028233
      dz2     :     0.005042  d :     0.025266
      dxz     :     0.006565
      dyz     :     0.001854
      dx2y2   :     0.003848
      dxy     :     0.007958
 10 H s       :     0.592036  s :     0.592036
      pz      :    -0.003441  p :     0.026502
      px      :    -0.007767
      py      :     0.037710
      dz2     :     0.001825  d :     0.002250
      dxz     :     0.000896
      dyz     :    -0.001435
      dx2y2   :     0.000943
      dxy     :     0.000020
 11 H s       :     0.680976  s :     0.680976
      pz      :     0.025883  p :     0.076206
      px      :     0.031271
      py      :     0.019052
      dz2     :     0.000768  d :     0.006633
      dxz     :     0.001922
      dyz     :     0.000539
      dx2y2   :     0.000180
      dxy     :     0.003224
 12 H s       :     0.702967  s :     0.702967
      pz      :     0.022084  p :     0.068039
      px      :     0.021267
      py      :     0.024688
      dz2     :     0.001241  d :     0.007292
      dxz     :     0.003025
      dyz     :     0.000731
      dx2y2   :     0.000622
      dxy     :     0.001673


                     *******************************
                     * LOEWDIN POPULATION ANALYSIS *
                     *******************************

----------------------
LOEWDIN ATOMIC CHARGES
----------------------
   0 C :    0.555714
   1 C :    0.196655
   2 C :   -0.429189
   3 N :    0.850699
   4 N :    0.871668
   5 H :   -0.320073
   6 H :   -0.286012
   7 H :   -0.284561
   8 H :   -0.293134
   9 H :   -0.278295
  10 H :   -0.220765
  11 H :   -0.179724
  12 H :   -0.182983

-------------------------------
LOEWDIN REDUCED ORBITAL CHARGES
-------------------------------
  0 C s       :     2.432992  s :     2.432992
      pz      :     0.743588  p :     2.233601
      px      :     0.746410
      py      :     0.743603
      dz2     :     0.068930  d :     0.575358
      dxz     :     0.080351
      dyz     :     0.158731
      dx2y2   :     0.159981
      dxy     :     0.107366
      f0      :     0.026674  f :     0.202336
      f+1     :     0.013150
      f-1     :     0.022069
      f+2     :     0.015913
      f-2     :     0.039080
      f+3     :     0.029664
      f-3     :     0.055786
  1 C s       :     2.444154  s :     2.444154
      pz      :     0.764731  p :     2.297803
      px      :     0.773229
      py      :     0.759843
      dz2     :     0.091337  d :     0.709631
      dxz     :     0.117124
      dyz     :     0.166964
      dx2y2   :     0.173972
      dxy     :     0.160233
      f0      :     0.048735  f :     0.351758
      f+1     :     0.044526
      f-1     :     0.023280
      f+2     :     0.046529
      f-2     :     0.066011
      f+3     :     0.049733
      f-3     :     0.072943
  2 C s       :     2.423680  s :     2.423680
      pz      :     0.681242  p :     2.112564
      px      :     0.711459
      py      :     0.719863
      dz2     :     0.252282  d :     1.216825
      dxz     :     0.169892
      dyz     :     0.275561
      dx2y2   :     0.262056
      dxy     :     0.257034
      f0      :     0.092117  f :     0.676120
      f+1     :     0.080502
      f-1     :     0.084661
      f+2     :     0.114175
      f-2     :     0.086422
      f+3     :     0.084072
      f-3     :     0.134172
  3 N s       :     2.617109  s :     2.617109
      pz      :     1.028565  p :     2.984595
      px      :     0.983026
      py      :     0.973004
      dz2     :     0.039665  d :     0.410418
      dxz     :     0.039836
      dyz     :     0.105091
      dx2y2   :     0.121745
      dxy     :     0.104082
      f0      :     0.016487  f :     0.137179
      f+1     :     0.007281
      f-1     :     0.014486
      f+2     :     0.021048
      f-2     :     0.016565
      f+3     :     0.026395
      f-3     :     0.034916
  4 N s       :     2.619586  s :     2.619586
      pz      :     0.986774  p :     2.987381
      px      :     1.047401
      py      :     0.953206
      dz2     :     0.098861  d :     0.391773
      dxz     :     0.073455
      dyz     :     0.084405
      dx2y2   :     0.065775
      dxy     :     0.069277
      f0      :     0.018207  f :     0.129592
      f+1     :     0.017426
      f-1     :     0.020370
      f+2     :     0.024364
      f-2     :     0.019910
      f+3     :     0.013085
      f-3     :     0.016230
  5 H s       :     0.567194  s :     0.567194
      pz      :     0.106458  p :     0.430402
      px      :     0.161781
      py      :     0.162163
      dz2     :     0.023931  d :     0.322477
      dxz     :     0.040530
      dyz     :     0.081276
      dx2y2   :     0.091250
      dxy     :     0.085489
  6 H s       :     0.594625  s :     0.594625
      pz      :     0.158532  p :     0.409230
      px      :     0.141725
      py      :     0.108973
      dz2     :     0.081245  d :     0.282156
      dxz     :     0.065682
      dyz     :     0.063543
      dx2y2   :     0.034648
      dxy     :     0.037038
  7 H s       :     0.655235  s :     0.655235
      pz      :     0.125057  p :     0.364480
      px      :     0.107981
      py      :     0.131442
      dz2     :     0.068154  d :     0.264846
      dxz     :     0.047199
      dyz     :     0.050902
      dx2y2   :     0.041989
      dxy     :     0.056602
  8 H s       :     0.572060  s :     0.572060
      pz      :     0.165061  p :     0.410447
      px      :     0.125355
      py      :     0.120030
      dz2     :     0.087175  d :     0.310627
      dxz     :     0.057121
      dyz     :     0.059004
      dx2y2   :     0.055868
      dxy     :     0.051459
  9 H s       :     0.597359  s :     0.597359
      pz      :     0.132743  p :     0.404748
      px      :     0.177933
      py      :     0.094072
      dz2     :     0.043280  d :     0.276188
      dxz     :     0.076229
      dyz     :     0.019093
      dx2y2   :     0.065293
      dxy     :     0.072293
 10 H s       :     0.615675  s :     0.615675
      pz      :     0.121780  p :     0.338032
      px      :     0.112631
      py      :     0.103621
      dz2     :     0.075030  d :     0.267057
      dxz     :     0.047805
      dyz     :     0.044883
      dx2y2   :     0.049803
      dxy     :     0.049536
 11 H s       :     0.640161  s :     0.640161
      pz      :     0.090130  p :     0.311315
      px      :     0.131190
      py      :     0.089996
      dz2     :     0.029686  d :     0.228247
      dxz     :     0.055389
      dyz     :     0.025835
      dx2y2   :     0.042635
      dxy     :     0.074702
 12 H s       :     0.641418  s :     0.641418
      pz      :     0.129377  p :     0.312472
      px      :     0.084970
      py      :     0.098125
      dz2     :     0.067539  d :     0.229093
      dxz     :     0.061138
      dyz     :     0.056094
      dx2y2   :     0.014837
      dxy     :     0.029485


                      *****************************
                      * MAYER POPULATION ANALYSIS *
                      *****************************

  NA   - Mulliken gross atomic population
  ZA   - Total nuclear charge
  QA   - Mulliken gross atomic charge
  VA   - Mayer's total valence
  BVA  - Mayer's bonded valence
  FA   - Mayer's free valence

  ATOM       NA         ZA         QA         VA         BVA        FA
  0 C      6.8725     6.0000    -0.8725     3.7842     3.7842    -0.0000
  1 C      6.2417     6.0000    -0.2417     2.3482     2.3482    -0.0000
  2 C      5.5945     6.0000     0.4055     3.1611     3.1611    -0.0000
  3 N      7.4700     7.0000    -0.4700     2.7323     2.7323     0.0000
  4 N      7.4315     7.0000    -0.4315     2.6447     2.6447     0.0000
  5 H      0.8703     1.0000     0.1297     1.0275     1.0275     0.0000
  6 H      0.8592     1.0000     0.1408     1.0182     1.0182     0.0000
  7 H      0.6702     1.0000     0.3298     0.9901     0.9901    -0.0000
  8 H      0.9362     1.0000     0.0638     1.1329     1.1329    -0.0000
  9 H      0.8909     1.0000     0.1091     1.0560     1.0560     0.0000
 10 H      0.6208     1.0000     0.3792     0.9175     0.9175    -0.0000
 11 H      0.7638     1.0000     0.2362     1.0861     1.0861    -0.0000
 12 H      0.7783     1.0000     0.2217     1.0914     1.0914    -0.0000

  Mayer bond orders larger than 0.100000
B(  0-C ,  1-C ) :   0.7702 B(  0-C ,  2-C ) :   0.1116 B(  0-C , 10-H ) :   0.8043 
B(  0-C , 11-H ) :   0.9997 B(  0-C , 12-H ) :   1.0984 B(  1-C ,  2-C ) :   1.2305 
B(  1-C ,  3-N ) :  -0.2537 B(  1-C ,  4-N ) :  -0.2103 B(  1-C ,  7-H ) :   0.9183 
B(  2-C ,  3-N ) :   0.9193 B(  2-C ,  4-N ) :   0.8773 B(  3-N ,  4-N ) :  -0.1429 
B(  3-N ,  8-H ) :   1.1293 B(  3-N ,  9-H ) :   1.1110 B(  4-N ,  5-H ) :   1.0925 
B(  4-N ,  6-H ) :   1.0244 

-------
TIMINGS
-------

Total SCF time: 0 days 0 hours 5 min 49 sec 

Total time                  ....     349.036 sec
Sum of individual times     ....     347.252 sec  ( 99.5%)

Fock matrix formation       ....     335.130 sec  ( 96.0%)
  Split-RI-J                ....      24.202 sec  (  7.2% of F)
  Chain of spheres X        ....     309.646 sec  ( 92.4% of F)
Diagonalization             ....       2.053 sec  (  0.6%)
Density matrix formation    ....       0.082 sec  (  0.0%)
Population analysis         ....       0.210 sec  (  0.1%)
Initial guess               ....       2.379 sec  (  0.7%)
Orbital Transformation      ....       0.000 sec  (  0.0%)
Orbital Orthonormalization  ....       0.000 sec  (  0.0%)
DIIS solution               ....       0.784 sec  (  0.2%)
SOSCF solution              ....       2.142 sec  (  0.6%)

Maximum memory used throughout the entire SCF-calculation: 99.6 MB


           ************************************************************
           *        Program running with 2 parallel MPI-processes     *
           *              working on a common directory               *
           ************************************************************


------------------------------------------------------------------------------- 
                              ORCA-MATRIX DRIVEN CI                            
------------------------------------------------------------------------------- 


Wavefunction type
-----------------
Correlation treatment                      ...      CCSD     
Single excitations                         ... ON
Orbital optimization                       ... OFF
Calculation of Z vector                    ... OFF
Calculation of Brueckner orbitals          ... OFF
Perturbative triple excitations            ... ON
Calculation of F12 correction              ... OFF
Frozen core treatment                      ... chemical core (10 el)
Reference Wavefunction                     ... RHF
  Internal Orbitals:     5 ...   19 ( 15 MO's/ 30 electrons)
  Virtual  Orbitals:    20 ...  413 (394 MO's              )
Number of AO's                             ...    414
Number of electrons                        ...     40
Number of correlated electrons             ...     30

Algorithmic settings
--------------------
Integral transformation                    ... All integrals via the RI transformation
K(C) Formation                             ... RI-DLPNO
   PNO-Integral Storage                    ... ON DISK
   PNO occupation number cut-off           ... 1.000e-07
   Singles PNO occupation number cut-off   ... 3.000e-09
   PNO Mulliken prescreening cut-off       ... 1.000e-03
   Domain cut-off (Mulliken population)    ... 1.000e-03
   PNO Normalization                       ...    1
Maximum number of iterations               ...        50
Convergence tolerance (max. residuum)      ... 1.000e-05
Level shift for amplitude update           ... 2.000e-01
Maximum number of DIIS vectors             ...         7
DIIS turned on at iteration                ...         0
Damping before turning on DIIS             ...     0.500
Damping after turning on DIIS              ...     0.000
Pair specific amplitude update             ... OFF
Natural orbital iterations                 ... OFF
Perturbative natural orbital generation    ... OFF
Printlevel                                 ... 2

Singles Fock matrix elements calculated using PNOs.

Memory handling:
----------------
Maximum memory for working arrays          ...  64000 MB
Data storage in matrix containers          ... UNCOMPRESSED
Data type for integral storage             ... DOUBLE
In-Core Storage of quantities:
   Amplitudes+Sigma Vector      ... NO
   J+K operators                ... NO
   DIIS vectors                 ... NO
   3-external integrals         ... NO
   4-external integrals         ... NO

Localization treatment:
-----------------------
Localization option                        ...    6
Localization threshhold                    ... -1.0e+00
Using relative localization threshhold     ... 1.0e-08
Neglect threshold for strong pairs         ... 1.000e-05 Eh
Prescreening threshold for very weak pairs ... 1.000e-07 Eh

Initializing the integral package          ... done
Localizing the valence orbitals
------------------------------------------------------------------------------
                           ORCA ORBITAL LOCALIZATION
------------------------------------------------------------------------------

Input orbitals are from                  ... C1_wt_dlpno_pos.gbw
Output orbitals are to                   ... C1_wt_dlpno_pos.loc
Max. number of iterations                ... 128
Localizations seeded randomly            ... off
Convergence tolerance                    ... 1.000e-06
Using relative localization threshhold   ... 1.000e-08
Treshold for strong local MOs            ... 9.500e-01
Treshold for bond MOs                    ... 8.500e-01
Operator                                 ... 0
Orbital range for localization           ... 5 to 19
Localization criterion                   ... FOSTER-BOYS (AUGMENTED HESSIAN)
Doing the dipole integrals     ... o.k.
Initial value of the localization sum :  2466.001751
ITERATION   0 : L= 2498.9494476954 DL=  3.29e+01 (AVERGE_DL)=    0.5601674646 
ITERATION   1 : L= 2503.0629161503 DL=  4.11e+00 (AVERGE_DL)=    0.1979290025 
ITERATION   2 : L= 2503.4146536686 DL=  3.52e-01 (AVERGE_DL)=    0.0578781576 
ITERATION   3 : L= 2503.4168821680 DL=  2.23e-03 (AVERGE_DL)=    0.0046069300 
ITERATION   4 : L= 2503.4169581775 DL=  7.60e-05 (AVERGE_DL)=    0.0008508231 
ITERATION   5 : L= 2503.4169599051 DL=  1.73e-06 (AVERGE_DL)=    0.0001282737 
ITERATION   6 : L= 2503.4169599556 DL=  5.04e-08 (AVERGE_DL)=    0.0000219187 
LOCALIZATION SUM CONVERGED

------------------------------------------------------
AUGMENTED HESSIAN OPTIMIZATION OF FOSTER-BOYS ORBITALS
------------------------------------------------------

Spin operator:           0
Orbital window:          5 to 19
Number of iterations:    128
Gradient tolerance:      1.000e-06
Number of pairs:         105
Davidson threshold:      2000
Diagonalization method:  LAPACK
Iter:    0   L: 2503.4169599556   Grad. norm: 7.327854e-04
   *** Likely close to a maximum now. ***
       Augmented Hessian eigenvalues:  6.16e-09 -2.46e+00 -2.96e+00 -4.54e+00 ... 
Iter:    1   L: 2503.4169599587   Grad. norm: 1.988265e-09
LOCALIZATION HAS CONVERGED.

Eigenvalues of the Hessian:
  0 -2.461e+00
  1 -2.956e+00
  2 -4.537e+00
  3 -4.557e+00
  4 -4.717e+00
  5 -5.016e+00
  6 -5.612e+00
  7 -1.150e+01
  8 -1.153e+01
  9 -1.426e+01
    ...


------------------------------------------------------------------------------- 
                    LOCALIZED MOLECULAR ORBITAL COMPOSITIONS                   
------------------------------------------------------------------------------- 

The Mulliken populations for each LMO on each atom are computed
The LMO`s will be ordered according to atom index and type
  (A) Strongly localized MO`s have populations of >=0.950 on one atom
  (B) Two center bond orbitals have populations of >=0.850 on two atoms
  (C) Other MO`s are considered to be `delocalized`

FOUND  -   1 strongly local MO`s
       -  14 two center bond MO`s
       -   0 significantly delocalized MO`s

Rather strongly localized orbitals:
MO   5:   4N  -   0.955872
Bond-like localized orbitals:
MO  19:  12H  -   0.337447  and   0C  -   0.724554
MO  18:  11H  -   0.326531  and   0C  -   0.665208
MO  17:  10H  -   0.274694  and   0C  -   0.709854
MO  16:   9H  -   0.446427  and   3N  -   0.623449
MO  15:   8H  -   0.448345  and   3N  -   0.624301
MO  14:   7H  -   0.286588  and   1C  -   0.771883
MO  13:   6H  -   0.441327  and   4N  -   0.609384
MO  12:   5H  -   0.444756  and   4N  -   0.628449
MO  11:   4N  -   0.610169  and   2C  -   0.513113
MO  10:   3N  -   0.927552  and   2C  -   0.061794
MO   9:   3N  -   0.634768  and   2C  -   0.506215
MO   8:   2C  -   0.441805  and   1C  -   0.568714
MO   7:   2C  -   0.410307  and   1C  -   0.577556
MO   6:   1C  -   0.626341  and   0C  -   0.316633
Localized MO's were stored in: C1_wt_dlpno_pos.loc

Localizing the core orbitals
------------------------------------------------------------------------------
                           ORCA ORBITAL LOCALIZATION
------------------------------------------------------------------------------

Input orbitals are from                  ... C1_wt_dlpno_pos.loc
Output orbitals are to                   ... C1_wt_dlpno_pos.loc
Max. number of iterations                ... 128
Localizations seeded randomly            ... off
Convergence tolerance                    ... 1.000e-06
Using relative localization threshhold   ... 1.000e-08
Treshold for strong local MOs            ... 9.500e-01
Treshold for bond MOs                    ... 8.500e-01
Operator                                 ... 0
Orbital range for localization           ... 0 to 4
Localization criterion                   ... FOSTER-BOYS (AUGMENTED HESSIAN)
Doing the dipole integrals     ... o.k.
Initial value of the localization sum :   815.664401
ITERATION   0 : L=  815.6644051868 DL=  3.86e-06 (AVERGE_DL)=    0.0006209076 
ITERATION   1 : L=  815.6644051868 DL=  0.00e+00 (AVERGE_DL)=    0.0000000000 
LOCALIZATION SUM CONVERGED

------------------------------------------------------
AUGMENTED HESSIAN OPTIMIZATION OF FOSTER-BOYS ORBITALS
------------------------------------------------------

Spin operator:           0
Orbital window:          0 to 4
Number of iterations:    128
Gradient tolerance:      1.000e-06
Number of pairs:         10
Davidson threshold:      2000
Diagonalization method:  LAPACK
Iter:    0   L: 815.6644051868   Grad. norm: 1.542403e-06
   *** Likely close to a maximum now. ***
       Augmented Hessian eigenvalues:  4.88e-14 -2.46e+01 -2.53e+01 -2.62e+01 ... 
Iter:    1   L: 815.6644051868   Grad. norm: 6.639546e-20
LOCALIZATION HAS CONVERGED.

Eigenvalues of the Hessian:
  0 -2.461e+01
  1 -2.525e+01
  2 -2.623e+01
  3 -2.994e+01
  4 -7.318e+01
  5 -7.754e+01
  6 -7.754e+01
  7 -8.637e+01
  8 -1.194e+02
  9 -1.880e+02


------------------------------------------------------------------------------- 
                    LOCALIZED MOLECULAR ORBITAL COMPOSITIONS                   
------------------------------------------------------------------------------- 

The Mulliken populations for each LMO on each atom are computed
The LMO`s will be ordered according to atom index and type
  (A) Strongly localized MO`s have populations of >=0.950 on one atom
  (B) Two center bond orbitals have populations of >=0.850 on two atoms
  (C) Other MO`s are considered to be `delocalized`

FOUND  -   5 strongly local MO`s
       -   0 two center bond MO`s
       -   0 significantly delocalized MO`s

Rather strongly localized orbitals:
MO   4:   4N  -   1.001722
MO   3:   3N  -   1.003207
MO   2:   2C  -   1.003489
MO   1:   1C  -   1.005633
MO   0:   0C  -   1.000153
Localized MO's were stored in: C1_wt_dlpno_pos.loc

Warning: reference  - re-canonicalizations have been set to INT 1 VIRT 1
Warning: internal orbitals are localized - no re-canonicalization of internal orbitals
Warning: UsePNO is turned on - no re-canonicalization of internal and virtual orbitals

--------------------------
CLOSED-SHELL FOCK OPERATOR
--------------------------

Restoring SHARK [2] ... ok
Entering RIJCOSX section for the Fock matrix
[...]
   TCutMKN   ...     1.0e-01
   TCutDO    ...     2.0e-02
   TCutCMO   ...     1.0e-03
   TCutCPAO  ...     1.0e-03

--------------------------------
LOCAL RI TRANSFORMATION (IAVPAO)
--------------------------------

Orbital window:       5 to 19
Number of PAOs:     414
Basis functions:    414 (142 shells)
Aux. functions:     898 (252 shells)
Use SHARK:           on

Processing maps (0.0 sec)
Average map sizes:
   Aux shells -> MOs              15.0
   Aux shells -> PAOs            414.0
   MOs        -> AO shells       142.0
   PAOs       -> AO shells       142.0

Calculating integrals (9.5 sec, 42.556 MB)
Sorting integrals (0.2 sec, 42.546 MB)
Total time for the integral transformation: 9.8 sec
--------------------------------
INITIAL GUESS AND PNO GENERATION
--------------------------------

PNO truncation parameters                   .... 
    ScaleTCutPNO       =        1.000e-02
    PAOOverlapThresh   =        1.000e-08

    TCutPairs          =        1.000e-05
    TCutPNO            =        1.000e-07
    TCutPNOSingles     =        3.000e-09
    TCutMP2Pairs       =        1.000e-06
    TCutMKN            =        1.000e-03
    TCutDO             =        5.000e-03

Pair selection                          .... not used
Type of local MP2 treatment                 .... full local PMP2
Strategy for PNO selection                  .... occupation number selection
Pair density normalization                  .... MP2 norm
Spin component scaling                      .... not used

PASS-1: Formation of initial guess LMP2 amplitudes
Initial amplitudes guess done. Entering LMP2 iteration loop:
   Max. no of iterations          ...  50
   Energy convergence tolerance   ...    1.0e-07
   Residual convergence tolerance ...    5.0e-07
   Fock matrix cutoff             ...    1.0e-05 Eh
   DIIS convergence acceleration parameters:
        Max # vectors in DIIS     ... 7
        Start iteration of DIIS   ... 0
        Levelshift                ... 2.000e-01
        Damping factor 1          ... 5.000e-01
        Damping factor 2          ... 1.000e+00
   L-MP2 PNO cut-off              ...   1.0e-09
   L-MP2 PNO cut-off (core)       ...   1.0e-11
                           *** Turning on DIIS ***
LMP2-Iter=   0:  ELMP2= -0.935362269633  DE=   1.7e-02 RMAX=   5.5e-03
LMP2-Iter=   1:  ELMP2= -0.944712778086  DE=   9.4e-03 RMAX=   2.6e-03
LMP2-Iter=   2:  ELMP2= -0.946428093922  DE=   1.7e-03 RMAX=   9.4e-04
LMP2-Iter=   3:  ELMP2= -0.946615523436  DE=   1.9e-04 RMAX=   3.3e-04
LMP2-Iter=   4:  ELMP2= -0.946598738982  DE=   1.7e-05 RMAX=   8.6e-05
LMP2-Iter=   5:  ELMP2= -0.946593405340  DE=   5.3e-06 RMAX=   2.5e-05
LMP2-Iter=   6:  ELMP2= -0.946593398677  DE=   6.7e-09 RMAX=   3.4e-06
LMP2-Iter=   7:  ELMP2= -0.946593611370  DE=   2.1e-07 RMAX=   1.5e-06
LMP2-Iter=   8:  ELMP2= -0.946593618282  DE=   6.9e-09 RMAX=   2.8e-07
LMP2-Iter=   9:  ELMP2= -0.946593614253  DE=   4.0e-09 RMAX=   9.8e-08 => CONVERGED
PASS-2: Formation of Pair natural orbitals
   .... Finished loop over pairs

 PNO Occupation Number Statistics: 
  | Av. % of trace(Dij) retained        ...  99.624685675350
  | sigma^2 in % of trace(Dij) retained ...   2.64e-01
  | Av. % of trace(Di) retained         ...  99.999571699123
  | sigma^2 in % of trace(Di) retained  ...   1.80e-08
 Distributions of % trace(Dij) recovered:
  |       >= 99.9  ...    47 ( 39.2 % of all pairs)
  |   [90.0, 99.0) ...    12 ( 10.0 % of all pairs)
  |   [99.0, 99.9) ...    61 ( 50.8 % of all pairs)
 Distributions of % trace(Di) recovered :
  |       >= 99.9  ...    15 (100.0 % of all I-pairs )

Making pair pair interaction lists          ... done

                       ===========================
                        120 OF  120 PAIRS ARE KEPT
                       ===========================

Total time spent in the initial guess                 ...   163.810 sec
L-MP2 correlation energy (all non-screened pairs)     ...      -0.946593614253 Eh
L-MP2 PNO error correction                            ...      -0.000019627812 Eh
                                                          --------------------
Initial total L-MP2 energy (non-screened pairs)       ...      -0.946613242064 Eh

Initial PNO correlation energy                        ...      -0.945637381111 Eh
sum of pair energies estimated for screened out pairs ...       0.000000000000 Eh
sum of MP2 pair energies for pairs that were not kept ...       0.000000000000 Eh
sum of PNO error estimates for the kept pairs         ...      -0.000975860953 Eh
                                                          --------------------
sum of all corrections                                         -0.000975860953
Initial total correlation energy                               -0.946613242064
Thresholds for map construction and integral transformation for fine MP2 and CCSD(T) calculation:
   TCutMKN   ...     1.0e-03
   TCutDO    ...     5.0e-03
   TCutPairs ...     1.0e-05
   TCutCMO   ...     1.0e-03
   TCutCPAO  ...     1.0e-03

Time for aux screen maps:            0.003
Time for maps after fine MP2:            0.023
-----------------------------
LOCAL RI TRANSFORMATION (IJV)
-----------------------------

Orbital window:       5 to 19
Basis functions:    414 (142 shells)
Aux. functions:     898 (252 shells)
Use SHARK:           on

Processing maps (0.0 sec)
Average map sizes:
   Aux shells -> MOs(i)           15.0
   Aux shells -> MOs(j)           15.0
   MOs        -> AO shells       142.0

Calculating integrals (9.0 sec, 1.552 MB)
Sorting integrals (0.0 sec, 1.542 MB)
Total time for the integral transformation: 9.0 sec
--------------------------------
LOCAL RI TRANSFORMATION (VABPAO)
--------------------------------

Number of PAOs:     414
Basis functions:    414 (142 shells)
Aux. functions:     898 (252 shells)
Use SHARK:           on

Processing maps (0.0 sec)
Average map sizes:
   Aux shells -> PAOs            414.0
   PAOs       -> AO shells       142.0

Calculating integrals (23.2 sec, 1174.278 MB)
Finished


-------------------------------------
Pair Pair Term precalculation with     
RI-(ij|mn) and (im|jn) transformation  
ON THE FLY                             
-------------------------------------

   IBatch   1 (of   1)              ... done ( 1141.643 sec)
Total EXT                           ...        1141.643 sec

---------------------
RI-PNO TRANSFORMATION
---------------------

Total Number of PNOs                   ...  6795
Average number of PNOs per pair        ...    56
Maximal number of PNOs per pair        ...   103
   #pairs with  1 -  5 PNOs   :    0
   #pairs with  6 - 10 PNOs   :    0
   #pairs with 11 - 15 PNOs   :    0
   #pairs with 16 - 20 PNOs   :    4
   #pairs with 21 - 25 PNOs   :    4
   #pairs with 26 - 30 PNOs   :    5
   #pairs with 31 - 35 PNOs   :   12
   #pairs with 36 - 40 PNOs   :    5
   #pairs with 41 - 45 PNOs   :   10
   #pairs with 46 - 50 PNOs   :    7
   #pairs with 51 - 55 PNOs   :    5
   #pairs with 56 - 60 PNOs   :   11
   #pairs with 61 - 65 PNOs   :   13
   #pairs with 66 - 70 PNOs   :    6
   #pairs with 71 - 75 PNOs   :   12
   #pairs with 76 - 80 PNOs   :   14
   #pairs with 81 - 85 PNOs   :    6
   #pairs with 86 - 90 PNOs   :    5
   #pairs with > 96 PNOs      :    1

Generation of (ij|ab)[P] integrals            ... on
Generation of (ia|bc)[P],(ja|bc)[P] integrals ... on
Storage of 3 and 4 external integrals         ... on
Generation of ALL (ka|bc)[P] integrals        ... on
Keep RI integrals in memory                   ... off

Ibatch:  1 (of  1)
Starting 2-4 index PNO integral generation ... done

Timings:
Total PNO integral transformation time     ...        567.670 sec
Size of the 3-external file                ...       228 MB
Size of the 4-external file                ...      2091 MB
Size of the IKJL file                      ...         0 MB
Size of the all 3-external file            ...      1714 MB
Size of the 1-external file                ...         2 MB

Making pair/pair overlap matrices          ... done (   22.963 sec)
Size of the pair overlap file              ... 278 MB
Redoing the guess amplitudes               ... done (    0.025 sec)

-------------------------
FINAL STARTUP INFORMATION
-------------------------

E(0)                                       ...   -227.203819395
E(L-MP2)                                   ...     -0.946613242
E(L-MP2) including corrections             ...     -0.946613242
Initial E(tot)                             ...   -228.150432637
<T|T>                                      ...      0.251552656
Number of pairs included                   ... 120
Total number of pairs                      ... 120

------------------------------------------------
                  RHF COUPLED CLUSTER ITERATIONS
------------------------------------------------

Number of PNO amplitudes to be optimized   ...       431225
Number of non-PNO amplitudes               ...     18628320
Untruncated number of regular amplitudes   ...     18628320

Iter       E(tot)           E(Corr)          Delta-E          Residual     Time
  0   -228.122305471     -0.917510215      0.029103027      0.011317521  203.74
                           *** Turning on DIIS ***
  1   -228.155908602     -0.951113346     -0.033603131      0.006886749  203.56
  2   -228.178289096     -0.973493840     -0.022380494      0.003286600  200.05
  3   -228.182427922     -0.977632666     -0.004138826      0.001963392  205.46
  4   -228.183496996     -0.978701740     -0.001069074      0.000923958  196.85
  5   -228.183791969     -0.978996713     -0.000294974      0.000493248  193.96
  6   -228.183882472     -0.979087216     -0.000090503      0.000239867  200.76
  7   -228.183888177     -0.979092921     -0.000005705      0.000120158  206.14
  8   -228.183890967     -0.979095711     -0.000002790      0.000053409  207.88
  9   -228.183886900     -0.979091644      0.000004067      0.000017469  206.86
 10   -228.183888764     -0.979093508     -0.000001864      0.000003496  206.66
               --- The Coupled-Cluster iterations have converged ---

----------------------
COUPLED CLUSTER ENERGY
----------------------

E(0)                                       ...   -227.203819395
E(CORR)(strong-pairs)                      ...     -0.979093508
E(CORR)(weak-pairs)                        ...     -0.000975861
E(CORR)(corrected)                         ...     -0.980069369
E(TOT)                                     ...   -228.183888764
Singles Norm <S|S>**1/2                    ...      0.056852812  
T1 diagnostic                              ...      0.010379856  

------------------
LARGEST AMPLITUDES
------------------
   8-> 20   8-> 20       0.042175
  15-> 20  15-> 20       0.036195
  12-> 20  12-> 20       0.035990
   7-> 20   7-> 20       0.034985
  16-> 20  16-> 20       0.034158
  13-> 20  13-> 20       0.033822
  18-> 29  18-> 29       0.032029
  17-> 28  17-> 28       0.031611
  17-> 20  17-> 20       0.031422
  19-> 28  19-> 28       0.030136
  18-> 20  18-> 20       0.028749
  19-> 20  19-> 20       0.027589
   8-> 20   7-> 20       0.027240
  14-> 20  14-> 20       0.027019
  17-> 28  17-> 20       0.026066
  17-> 20  17-> 28       0.026066


-------------------------------------------
DLPNO BASED TRIPLES CORRECTION
-------------------------------------------

Singles multiplier          ...  1.000000
TCutTNO                     ... 1.000e-09
TCutMP2Pairs                ... 1.000e-06
TCutDOStrong                ... 1.000e-02
TCutMKNStrong               ... 1.000e-02
TCutDOWeak                  ... 2.000e-02
TCutMKNWeak                 ... 1.000e-01

Fragment selection                          .... not used
Number of Triples that are to be computed   ...       665

 . . . . . . . . .
10% done  
20% done  
30% done  
40% done  
50% done  
60% done  
70% done  
80% done  
90% done               (   3165.199 sec)
Triples timings:
Total time for T0               ...  3279.140 sec
Total time for Iterative (T)    ...     0.000 sec
Total time of overall (T)       ...  3279.147 sec

Triples List generation         ...     0.000 sec
TNO generation                  ...   113.854 sec
Pair density generation         ...     0.032 sec
Look up tables                  ...     0.000 sec
Generating 3-index integrals    ...  2591.975 sec
  Make 4-ind.int. from 3-ind.int...   230.552 sec
  Projecting amplitudes (D + S) ...    77.502 sec
  Downprojecting integrals      ...     0.008 sec
  Energy contr. (sum over a,b,c)...    73.433 sec
Fitting ET(->0)                 ...     0.000 sec

Everything after 3-index        ...   573.224 sec

Timing details:
 TNO integrals                  ...  2805.938 sec
   Reading 3-index integrals    ...     1.401 sec
   Sorting integrals            ...   197.031 sec
       Sorting integrals 1      ...     0.004 sec
       Sorting integrals 2      ...   128.541 sec
       Sorting integrals 3      ...     7.805 sec
       Sorting integrals 4      ...     0.183 sec
       Sorting integrals 5      ...     0.953 sec
       Sorting integrals 6      ...    59.545 sec
   Calculating local VM**-1/2   ...     8.940 sec
   Orthogonal. integrals        ...    13.488 sec
   Multipl. 3-index integrals   ...  2585.079 sec
   All concerning IRIab (w/TNO) ...   144.142 sec

 Calculate W0/W1                ...   191.647 sec
 W 3-ext contribution           ...   114.156 sec
 W 3-int contribution           ...    19.033 sec
 Sorting W                      ...    56.956 sec

 V exchange contribution        ...    32.540 sec

 Timings for Triples without generation
     of 3-index integrals       ...   573.220 sec
       0 weak pairs             ...   573.220 sec
       1 weak pair              ...     0.000 sec
       2 weak pairs             ...     0.000 sec
       3 weak pairs             ...     0.000 sec
  Extra time for extrapolation  ...     0.000 sec

Number of Triples   (0, 1, 2, 3 weak pairs; overall):    665       0       0       0  (   665)
Number of Atoms     (0, 1, 2, 3 weak pairs; overall):   13.0     0.0     0.0     0.0  (    13)
Number of PAOs      (0, 1, 2, 3 weak pairs; overall):  412.9     0.0     0.0     0.0  (   414)
Number of AuxFcns   (0, 1, 2, 3 weak pairs; overall):  656.6     0.0     0.0     0.0  (   898)
Number of TNOs      (0, 1, 2, 3 weak pairs         ):  129.7     0.0     0.0     0.0
Aver. Number of NTNO, Atoms, PAOs, AuxFcns / Triples:    665   129.7    13.0   412.9   656.6

Triples Correction (T)                     ...     -0.039995530
Final correlation energy                   ...     -1.020064899
E(CCSD)                                    ...   -228.183888764
E(CCSD(T))                                 ...   -228.223884294



------------------------------------------------------------------------------- 
                                     TIMINGS                                   
------------------------------------------------------------------------------- 


Total execution time                   ...     7558.409 sec

Localization of occupied MO's          ...        1.793 sec (  0.0%)
Fock Matrix Formation                  ...       57.659 sec (  0.8%)
Global overlap, Fock, MKN matrices     ...        1.176 sec (  0.0%)
Differential overlap integrals         ...        4.650 sec (  0.1%)
Organizing maps                        ...        0.061 sec (  0.0%)
RI 3-index integral generations        ...       51.760 sec (  0.7%)
RI-PNO integral transformation         ...     1732.667 sec ( 22.9%)
Initial Guess                          ...      194.805 sec (  2.6%)
DIIS Solver                            ...        7.809 sec (  0.1%)
State Vector Update                    ...        0.160 sec (  0.0%)
Sigma-vector construction              ...     2230.757 sec ( 29.5%)
  <0|H|D>                              ...        0.004 sec (  0.0% of sigma)
  <D|H|D>(0-ext)                       ...       30.541 sec (  1.4% of sigma)
  <D|H|D>(2-ext Fock)                  ...        0.125 sec (  0.0% of sigma)
  <D|H|D>(2-ext)                       ...      179.392 sec (  8.0% of sigma)
  <D|H|D>(4-ext)                       ...      326.327 sec ( 14.6% of sigma)
  <D|H|D>(4-ext-corr)                  ...     1444.590 sec ( 64.8% of sigma)
  CCSD doubles correction              ...        2.081 sec (  0.1% of sigma)
  <S|H|S>                              ...       10.708 sec (  0.5% of sigma)
  <S|H|D>(1-ext)                       ...        4.094 sec (  0.2% of sigma)
  <D|H|S>(1-ext)                       ...        0.119 sec (  0.0% of sigma)
  <S|H|D>(3-ext)                       ...        8.080 sec (  0.4% of sigma)
  Fock-dressing                        ...      171.764 sec (  7.7% of sigma)
  Singles amplitudes                   ...        1.013 sec (  0.0% of sigma)
  (ik|jl)-dressing                     ...       22.687 sec (  1.0% of sigma)
  (ij|ab),(ia|jb)-dressing             ...       27.579 sec (  1.2% of sigma)
  Pair energies                        ...        0.180 sec (  0.0% of sigma)
Total Time for computing (T)           ...     3279.323 sec ( 43.4% of ALL)


Maximum memory used throughout the entire MDCI-calculation: 37651.8 MB

-------------------------   --------------------
FINAL SINGLE POINT ENERGY      -228.223884293772
-------------------------   --------------------


                            ***************************************
                            *     ORCA property calculations      *
                            ***************************************


  WARNING: The energy has been calculated at the MDCI level but the densities
           used in the property calculations are still SCF densities
           MDCI response densities have not been calculated 
           use %mdci Density linearized end
           or  %mdci Density unrelaxed end
           or  %mdci Density orbopt end

                                    ---------------------
                                    Active property flags
                                    ---------------------
   (+) Dipole Moment


------------------------------------------------------------------------------
                       ORCA ELECTRIC PROPERTIES CALCULATION
------------------------------------------------------------------------------

Dipole Moment Calculation                       ... on
Quadrupole Moment Calculation                   ... off
Polarizability Calculation                      ... off
GBWName                                         ... C1_wt_dlpno_pos.gbw
Electron density file                           ... C1_wt_dlpno_pos.scfp
The origin for moment calculation is the CENTER OF MASS  = ( 5.880984, -0.839443 -11.054564)

-------------
DIPOLE MOMENT
-------------
                                X             Y             Z
Electronic contribution:      2.41179       1.87300      -0.80179
Nuclear contribution   :     -1.96139      -1.54412       0.26148
                        -----------------------------------------
Total Dipole Moment    :      0.45040       0.32888      -0.54031
                        -----------------------------------------
Magnitude (a.u.)       :      0.77650
Magnitude (Debye)      :      1.97371



--------------------
Rotational spectrum 
--------------------
 
Rotational constants in cm-1:     0.312277     0.136708     0.097371 
Rotational constants in MHz :  9361.815989  4098.393303  2919.105491 

 Dipole components along the rotational axes: 
x,y,z [a.u.] :     0.684068    -0.298068    -0.214852 
x,y,z [Debye]:     1.738763    -0.757629    -0.546111 

 

Timings for individual modules:

Sum of individual times         ...     7910.599 sec (= 131.843 min)
GTO integral calculation        ...        1.650 sec (=   0.027 min)   0.0 %
SCF iterations                  ...      349.463 sec (=   5.824 min)   4.4 %
MDCI module                     ...     7559.486 sec (= 125.991 min)  95.6 %
                             ****ORCA TERMINATED NORMALLY****
TOTAL RUN TIME: 0 days 2 hours 11 minutes 51 seconds 237 msec
