
                                        *****************
                                        * O   R   C   A *
                                        *****************

                                            #,                                       
                                            ###                                      
                                            ####                                     
                                            #####                                    
                                            ######                                   
                                           ########,                                 
                                     ,,################,,,,,                         
                               ,,#################################,,                 
                          ,,##########################################,,             
                       ,#########################################, ''#####,          
                    ,#############################################,,   '####,        
                  ,##################################################,,,,####,       
                ,###########''''           ''''###############################       
              ,#####''   ,,,,##########,,,,          '''####'''          '####       
            ,##' ,,,,###########################,,,                        '##       
           ' ,,###''''                  '''############,,,                           
         ,,##''                                '''############,,,,        ,,,,,,###''
      ,#''                                            '''#######################'''  
     '                                                          ''''####''''         
             ,#######,   #######,   ,#######,      ##                                
            ,#'     '#,  ##    ##  ,#'     '#,    #''#        ######   ,####,        
            ##       ##  ##   ,#'  ##            #'  '#       #        #'  '#        
            ##       ##  #######   ##           ,######,      #####,   #    #        
            '#,     ,#'  ##    ##  '#,     ,#' ,#      #,         ##   #,  ,#        
             '#######'   ##     ##  '#######'  #'      '#     #####' # '####'        



                  #######################################################
                  #                        -***-                        #
                  #          Department of theory and spectroscopy      #
                  #    Directorship and core code : Frank Neese         #
                  #        Max Planck Institute fuer Kohlenforschung    #
                  #                Kaiser Wilhelm Platz 1               #
                  #                 D-45470 Muelheim/Ruhr               #
                  #                      Germany                        #
                  #                                                     #
                  #                  All rights reserved                #
                  #                        -***-                        #
                  #######################################################


                         Program Version 5.0.0 -  RELEASE  -
                                (SVN: $Rev: 19529$)
                ($Date: 2021-06-28 11:36:33 +0200 (Mo, 28 Jun 2021) $)


 With contributions from (in alphabetic order):
   Daniel Aravena         : Magnetic Suceptibility
   Michael Atanasov       : Ab Initio Ligand Field Theory (pilot matlab implementation)
   Alexander A. Auer      : GIAO ZORA, VPT2 properties, NMR spectrum
   Ute Becker             : Parallelization
   Giovanni Bistoni       : ED, misc. LED, open-shell LED, HFLD
   Martin Brehm           : Molecular dynamics
   Dmytro Bykov           : SCF Hessian
   Vijay G. Chilkuri      : MRCI spin determinant printing, contributions to CSF-ICE
   Dipayan Datta          : RHF DLPNO-CCSD density
   Achintya Kumar Dutta   : EOM-CC, STEOM-CC
   Dmitry Ganyushin       : Spin-Orbit,Spin-Spin,Magnetic field MRCI
   Miquel Garcia          : C-PCM Hessian, Gaussian charge scheme
   Yang Guo               : DLPNO-NEVPT2, F12-NEVPT2, CIM, IAO-localization
   Andreas Hansen         : Spin unrestricted coupled pair/coupled cluster methods
   Benjamin Helmich-Paris : MC-RPA, TRAH-SCF, COSX integrals
   Lee Huntington         : MR-EOM, pCC
   Robert Izsak           : Overlap fitted RIJCOSX, COSX-SCS-MP3, EOM
   Marcus Kettner         : VPT2
   Christian Kollmar      : KDIIS, OOCD, Brueckner-CCSD(T), CCSD density, CASPT2, CASPT2-K
   Simone Kossmann        : Meta GGA functionals, TD-DFT gradient, OOMP2, MP2 Hessian
   Martin Krupicka        : Initial AUTO-CI
   Lucas Lang             : DCDCAS
   Marvin Lechner         : AUTO-CI (C++ implementation), FIC-MRCC
   Dagmar Lenk            : GEPOL surface, SMD
   Dimitrios Liakos       : Extrapolation schemes; Compound Job, initial MDCI parallelization
   Dimitrios Manganas     : Further ROCIS development; embedding schemes
   Dimitrios Pantazis     : SARC Basis sets
   Anastasios Papadopoulos: AUTO-CI, single reference methods and gradients
   Taras Petrenko         : DFT Hessian,TD-DFT gradient, ASA, ECA, R-Raman, ABS, FL, XAS/XES, NRVS
   Peter Pinski           : DLPNO-MP2, DLPNO-MP2 Gradient
   Christoph Reimann      : Effective Core Potentials
   Marius Retegan         : Local ZFS, SOC
   Christoph Riplinger    : Optimizer, TS searches, QM/MM, DLPNO-CCSD(T), (RO)-DLPNO pert. Triples
   Tobias Risthaus        : Range-separated hybrids, TD-DFT gradient, RPA, STAB
   Michael Roemelt        : Original ROCIS implementation
   Masaaki Saitow         : Open-shell DLPNO-CCSD energy and density
   Barbara Sandhoefer     : DKH picture change effects
   Avijit Sen             : IP-ROCIS
   Kantharuban Sivalingam : CASSCF convergence, NEVPT2, FIC-MRCI
   Bernardo de Souza      : ESD, SOC TD-DFT
   Georgi Stoychev        : AutoAux, RI-MP2 NMR
   Willem Van den Heuvel  : Paramagnetic NMR
   Boris Wezisla          : Elementary symmetry handling
   Frank Wennmohs         : Technical directorship


 We gratefully acknowledge several colleagues who have allowed us to
 interface, adapt or use parts of their codes:
   Stefan Grimme, W. Hujo, H. Kruse, P. Pracht,  : VdW corrections, initial TS optimization,
                  C. Bannwarth, S. Ehlert          DFT functionals, gCP, sTDA/sTD-DF
   Ed Valeev, F. Pavosevic, A. Kumar             : LibInt (2-el integral package), F12 methods
   Garnet Chan, S. Sharma, J. Yang, R. Olivares  : DMRG
   Ulf Ekstrom                                   : XCFun DFT Library
   Mihaly Kallay                                 : mrcc  (arbitrary order and MRCC methods)
   Jiri Pittner, Ondrej Demel                    : Mk-CCSD
   Frank Weinhold                                : gennbo (NPA and NBO analysis)
   Christopher J. Cramer and Donald G. Truhlar   : smd solvation model
   Lars Goerigk                                  : TD-DFT with DH, B97 family of functionals
   V. Asgeirsson, H. Jonsson                     : NEB implementation
   FAccTs GmbH                                   : IRC, NEB, NEB-TS, DLPNO-Multilevel, CI-OPT
                                                   MM, QMMM, 2- and 3-layer-ONIOM, Crystal-QMMM,
                                                   LR-CPCM, SF, NACMEs, symmetry and pop. for TD-DFT,
                                                   nearIR, NL-DFT gradient (VV10), updates on ESD,
                                                   ML-optimized integration grids
   S Lehtola, MJT Oliveira, MAL Marques          : LibXC Library
   Liviu Ungur et al                             : ANISO software


 Your calculation uses the libint2 library for the computation of 2-el integrals
 For citations please refer to: http://libint.valeyev.net

 Your ORCA version has been built with support for libXC version: 5.1.0
 For citations please refer to: https://tddft.org/programs/libxc/

 This ORCA versions uses:
   CBLAS   interface :  Fast vector & matrix operations
   LAPACKE interface :  Fast linear algebra routines
   SCALAPACK package :  Parallel linear algebra routines
   Shared memory     :  Shared parallel matrices
   BLAS/LAPACK       :  OpenBLAS 0.3.15  USE64BITINT DYNAMIC_ARCH NO_AFFINITY Haswell SINGLE_THREADED
        Core in use  :  Haswell
   Copyright (c) 2011-2014, The OpenBLAS Project




***************************************
The coordinates will be read from file: B.xyz
***************************************


Your calculation utilizes the atom-pairwise dispersion correction
with the zero-damping scheme (D30)
Cite in your paper:
S.Grimme, J.Antony, S.Ehrlich and H.Krieg, J.Chem.Phys., 132, (2010), 154104 
   

XCFun DFT library Copyright 2009-2010 Ulf Ekstrom and contributors.
See http://admol.org/xcfun for more information.
This is free software; see the source code for copying conditions.
There is ABSOLUTELY NO WARRANTY; not even for MERCHANTABILITY or FITNESS FOR A PARTICULAR PURPOSE.
For details see the documentation.
Scientific users of this library should cite U. Ekstrom, L. Visscher, R. Bast, A. J. Thorvaldsen and K. Ruud;
J.Chem.Theor.Comp. 2010, DOI: 10.1021/ct100117s
XCFun Version 0.99 

================================================================================

----- Orbital basis set information -----
Your calculation utilizes the basis: def2-SVPD
   F. Weigend and R. Ahlrichs, Phys. Chem. Chem. Phys. 7, 3297 (2005).
   D. Rappoport and F. Furche, J. Chem. Phys. 133 134105 (2010).

----- AuxJ basis set information -----
Your calculation utilizes the auxiliary basis: def2/J
   F. Weigend, Phys. Chem. Chem. Phys. 8, 1057 (2006).

================================================================================
                                        WARNINGS
                       Please study these warnings very carefully!
================================================================================


WARNING: Minnesota functionals are quite sensitive to the integration grid.
         see SE Wheeler, KN Houk, JCTC 2010, 6, 395,
             N Mardirossian, M Head-Gordon, JCTC 2016, 12, 4303.
         DEFGRID3 seems to be a minimum grid for reliable results with these functionals!
  ===> : Please increase the integration grid!


INFO   : the flag for use of the SHARK integral package has been found!

================================================================================
                                       INPUT FILE
================================================================================
NAME = 28Oct_SVPD_M062X_B_wt_wb97.com
|  1> !M062X D3Zero RIJCOSX def2-SVPD def2/J TightSCF xyzfile                                                                                         
|  2> 
|  3> *xyzfile 0 1 B.xyz
|  4> 
|  5> %MaxCore 64000
|  6> 
|  7> %pal nprocs 4                                                                                                                                                  
|  8> end  
|  9> 
| 10> %scf
| 11>   MaxIter 150
| 12> end
| 13> 
| 14> 
| 15>                          ****END OF INPUT****
================================================================================

                       ****************************
                       * Single Point Calculation *
                       ****************************

---------------------------------
CARTESIAN COORDINATES (ANGSTROEM)
---------------------------------
  C      2.486452   -2.677121   -2.563447
  C     -0.870963    0.248043   -2.662804
  C     -0.477492    0.608191   -4.101052
  H      0.206773    1.458299   -4.118748
  H     -1.368442    0.929419   -4.647855
  C      0.184673   -0.506640   -4.916760
  C      3.037640   -2.366715   -3.923509
  N      2.280360   -2.454408   -4.967692
  N      4.321736   -2.017932   -4.016641
  H      4.879940   -1.911668   -3.173823
  H      4.710148   -1.670882   -4.883561
  H      1.270423   -2.412650   -4.866143
  H      2.581829   -2.055282   -5.846878
  O     -0.158685   -1.701088   -4.657981
  O      1.055938   -0.174410   -5.740373
  C      2.497991   -1.469464   -1.610303
  C      1.582841   -0.321986   -2.042619
  H      2.193083   -1.833912   -0.625420
  H      3.523356   -1.103982   -1.490392
  C      0.100160   -0.673551   -1.915815
  H      1.822311   -0.040361   -3.072834
  H      1.813180    0.557019   -1.433266
  H     -0.063284   -1.679120   -2.301112
  H     -0.168820   -0.691680   -0.853831
  H     -1.001048    1.181040   -2.104071
  H     -1.844645   -0.246592   -2.663281
  H      1.472592   -3.051527   -2.694366
  H      3.083201   -3.490638   -2.141472

----------------------------
CARTESIAN COORDINATES (A.U.)
----------------------------
  NO LB      ZA    FRAG     MASS         X           Y           Z
   0 C     6.0000    0    12.011    4.698713   -5.059026   -4.844214
   1 C     6.0000    0    12.011   -1.645881    0.468734   -5.031970
   2 C     6.0000    0    12.011   -0.902329    1.149314   -7.749864
   3 H     1.0000    0     1.008    0.390744    2.755786   -7.783305
   4 H     1.0000    0     1.008   -2.585980    1.756347   -8.783173
   5 C     6.0000    0    12.011    0.348982   -0.957411   -9.291330
   6 C     6.0000    0    12.011    5.740308   -4.472444   -7.414358
   7 N     7.0000    0    14.007    4.309256   -4.638160   -9.387577
   8 N     7.0000    0    14.007    8.166898   -3.813339   -7.590352
   9 H     1.0000    0     1.008    9.221751   -3.612530   -5.997657
  10 H     1.0000    0     1.008    8.900891   -3.157510   -9.228594
  11 H     1.0000    0     1.008    2.400752   -4.559248   -9.195678
  12 H     1.0000    0     1.008    4.878950   -3.883920  -11.048997
  13 O     8.0000    0    15.999   -0.299872   -3.214590   -8.802309
  14 O     8.0000    0    15.999    1.995434   -0.329587  -10.847733
  15 C     6.0000    0    12.011    4.720518   -2.776884   -3.043032
  16 C     6.0000    0    12.011    2.991136   -0.608465   -3.859991
  17 H     1.0000    0     1.008    4.144326   -3.465591   -1.181872
  18 H     1.0000    0     1.008    6.658177   -2.086223   -2.816433
  19 C     6.0000    0    12.011    0.189274   -1.272828   -3.620365
  20 H     1.0000    0     1.008    3.443670   -0.076270   -5.806816
  21 H     1.0000    0     1.008    3.426413    1.052613   -2.708480
  22 H     1.0000    0     1.008   -0.119590   -3.173077   -4.348471
  23 H     1.0000    0     1.008   -0.319023   -1.307086   -1.613507
  24 H     1.0000    0     1.008   -1.891707    2.231842   -3.976118
  25 H     1.0000    0     1.008   -3.485874   -0.465991   -5.032871
  26 H     1.0000    0     1.008    2.782796   -5.766551   -5.091613
  27 H     1.0000    0     1.008    5.826406   -6.596350   -4.046796

--------------------------------
INTERNAL COORDINATES (ANGSTROEM)
--------------------------------
 C      0   0   0     0.000000000000     0.00000000     0.00000000
 C      1   0   0     4.454064584838     0.00000000     0.00000000
 C      2   1   0     1.533976128106    88.95459771     0.00000000
 H      3   2   1     1.091428365082   111.03171716   267.18333495
 H      3   2   1     1.093605109075   109.19532305   150.78855748
 C      3   2   1     1.531891446481   116.05722258    29.22456704
 C      1   2   3     1.499976287048    96.94160158     3.38330059
 N      7   1   2     1.292857194550   120.20153047   303.68195089
 N      7   1   2     1.333876682499   118.11023474   124.45999682
 H      9   7   1     1.016476835198   119.87469438   356.11519397
 H      9   7   1     1.011364586483   121.28466771   188.91527382
 H      8   7   1     1.015888226098   119.91986722    21.20577831
 H      8   7   1     1.011510284844   120.04373343   166.48528981
 O      6   3   2     1.269474918861   117.34059584    31.12063894
 O      6   3   2     1.244113151722   117.44399281   214.04914813
 C      1   2   3     1.538522864266    60.26212524   116.36906125
 C     16   1   2     1.530066108002   114.15104694   340.47209586
 H     16   1   2     1.093520442632   107.11405723   102.15692623
 H     16   1   2     1.095138864356   109.68305791   216.63029446
 C     17  16   1     1.529059344857   112.58830136    69.60978898
 H     17  16   1     1.094532649112   109.15039882   306.58294366
 H     17  16   1     1.094082501574   108.61687115   191.73619769
 H     20  17  16     1.089190578302   109.17429135   316.14372051
 H     20  17  16     1.095667243895   108.79798208    72.47390166
 H      2   1   3     1.095256859472   129.61268061   247.30838146
 H      2   1   3     1.092117796530   111.99987238   110.70635839
 H      1   2   3     1.088683249565    61.39264096   256.95470119
 H      1   2   3     1.093610044098   155.29380908   188.74897233

---------------------------
INTERNAL COORDINATES (A.U.)
---------------------------
 C      0   0   0     0.000000000000     0.00000000     0.00000000
 C      1   0   0     8.416962248141     0.00000000     0.00000000
 C      2   1   0     2.898794778093    88.95459771     0.00000000
 H      3   2   1     2.062500704798   111.03171716   267.18333495
 H      3   2   1     2.066614154809   109.19532305   150.78855748
 C      3   2   1     2.894855300746   116.05722258    29.22456704
 C      1   2   3     2.834544389897    96.94160158     3.38330059
 N      7   1   2     2.443146027969   120.20153047   303.68195089
 N      7   1   2     2.520661626346   118.11023474   124.45999682
 H      9   7   1     1.920862840000   119.87469438   356.11519397
 H      9   7   1     1.911202090000   121.28466771   188.91527382
 H      8   7   1     1.919750530000   119.91986722    21.20577831
 H      8   7   1     1.911477420000   120.04373343   166.48528981
 O      6   3   2     2.398959930530   117.34059584    31.12063894
 O      6   3   2     2.351033136364   117.44399281   214.04914813
 C      1   2   3     2.907386864238    60.26212524   116.36906125
 C     16   1   2     2.891405910918   114.15104694   340.47209586
 H     16   1   2     2.066454158419   107.11405723   102.15692623
 H     16   1   2     2.069512532246   109.68305791   216.63029446
 C     17  16   1     2.889503404292   112.58830136    69.60978898
 H     17  16   1     2.068366951457   109.15039882   306.58294366
 H     17  16   1     2.067516295890   108.61687115   191.73619769
 H     20  17  16     2.058271900637   109.17429135   316.14372051
 H     20  17  16     2.070511024871   108.79798208    72.47390166
 H      2   1   3     2.069735510701   129.61268061   247.30838146
 H      2   1   3     2.063803541424   111.99987238   110.70635839
 H      1   2   3     2.057313188266    61.39264096   256.95470119
 H      1   2   3     2.066623480650   155.29380908   188.74897233

---------------------
BASIS SET INFORMATION
---------------------
There are 4 groups of distinct atoms

 Group   1 Type C   : 8s4p2d contracted to 4s2p2d pattern {5111/31/11}
 Group   2 Type H   : 4s2p contracted to 2s2p pattern {31/11}
 Group   3 Type N   : 8s4p2d contracted to 4s2p2d pattern {5111/31/11}
 Group   4 Type O   : 8s5p2d contracted to 4s3p2d pattern {5111/311/11}

Atom   0C    basis set group =>   1
Atom   1C    basis set group =>   1
Atom   2C    basis set group =>   1
Atom   3H    basis set group =>   2
Atom   4H    basis set group =>   2
Atom   5C    basis set group =>   1
Atom   6C    basis set group =>   1
Atom   7N    basis set group =>   3
Atom   8N    basis set group =>   3
Atom   9H    basis set group =>   2
Atom  10H    basis set group =>   2
Atom  11H    basis set group =>   2
Atom  12H    basis set group =>   2
Atom  13O    basis set group =>   4
Atom  14O    basis set group =>   4
Atom  15C    basis set group =>   1
Atom  16C    basis set group =>   1
Atom  17H    basis set group =>   2
Atom  18H    basis set group =>   2
Atom  19C    basis set group =>   1
Atom  20H    basis set group =>   2
Atom  21H    basis set group =>   2
Atom  22H    basis set group =>   2
Atom  23H    basis set group =>   2
Atom  24H    basis set group =>   2
Atom  25H    basis set group =>   2
Atom  26H    basis set group =>   2
Atom  27H    basis set group =>   2
---------------------------------
AUXILIARY/J BASIS SET INFORMATION
---------------------------------
There are 4 groups of distinct atoms

 Group   1 Type C   : 12s5p4d2f1g contracted to 6s4p3d1f1g pattern {711111/2111/211/2/1}
 Group   2 Type H   : 5s2p1d contracted to 3s1p1d pattern {311/2/1}
 Group   3 Type N   : 12s5p4d2f1g contracted to 6s4p3d1f1g pattern {711111/2111/211/2/1}
 Group   4 Type O   : 12s5p4d2f1g contracted to 6s4p3d1f1g pattern {711111/2111/211/2/1}

Atom   0C    basis set group =>   1
Atom   1C    basis set group =>   1
Atom   2C    basis set group =>   1
Atom   3H    basis set group =>   2
Atom   4H    basis set group =>   2
Atom   5C    basis set group =>   1
Atom   6C    basis set group =>   1
Atom   7N    basis set group =>   3
Atom   8N    basis set group =>   3
Atom   9H    basis set group =>   2
Atom  10H    basis set group =>   2
Atom  11H    basis set group =>   2
Atom  12H    basis set group =>   2
Atom  13O    basis set group =>   4
Atom  14O    basis set group =>   4
Atom  15C    basis set group =>   1
Atom  16C    basis set group =>   1
Atom  17H    basis set group =>   2
Atom  18H    basis set group =>   2
Atom  19C    basis set group =>   1
Atom  20H    basis set group =>   2
Atom  21H    basis set group =>   2
Atom  22H    basis set group =>   2
Atom  23H    basis set group =>   2
Atom  24H    basis set group =>   2
Atom  25H    basis set group =>   2
Atom  26H    basis set group =>   2
Atom  27H    basis set group =>   2


           ************************************************************
           *        Program running with 4 parallel MPI-processes     *
           *              working on a common directory               *
           ************************************************************
------------------------------------------------------------------------------
                           ORCA GTO INTEGRAL CALCULATION
                           -- RI-GTO INTEGRALS CHOSEN --
------------------------------------------------------------------------------
------------------------------------------------------------------------------
                   ___                                                        
                  /   \      - P O W E R E D   B Y -                         
                 /     \                                                     
                 |  |  |   _    _      __       _____    __    __             
                 |  |  |  | |  | |    /  \     |  _  \  |  |  /  |          
                  \  \/   | |  | |   /    \    | | | |  |  | /  /          
                 / \  \   | |__| |  /  /\  \   | |_| |  |  |/  /          
                |  |  |   |  __  | /  /__\  \  |    /   |      \           
                |  |  |   | |  | | |   __   |  |    \   |  |\   \          
                \     /   | |  | | |  |  |  |  | |\  \  |  | \   \       
                 \___/    |_|  |_| |__|  |__|  |_| \__\ |__|  \__/        
                                                                              
                      - O R C A' S   B I G   F R I E N D -                    
                                      &                                       
                       - I N T E G R A L  F E E D E R -                       
                                                                              
 v1 FN, 2020, v2 2021                                                         
------------------------------------------------------------------------------


Reading SHARK input file 28Oct_SVPD_M062X_B_wt_wb97.SHARKINP.tmp ... ok
----------------------
SHARK INTEGRAL PACKAGE
----------------------

Number of atoms                             ...     28
Number of basis functions                   ...    374
Number of shells                            ...    162
Maximum angular momentum                    ...      2
Integral batch strategy                     ... SHARK/LIBINT Hybrid
RI-J (if used) integral strategy            ... SPLIT-RIJ (Revised 2003 algorithm where possible)
Printlevel                                  ...      1
Contraction scheme used                     ... SEGMENTED contraction
Coulomb Range Separation                    ... NOT USED
Exchange Range Separation                   ... NOT USED
Finite Nucleus Model                        ... NOT USED
Auxiliary Coulomb fitting basis             ... AVAILABLE
   # of basis functions in Aux-J            ...    764
   # of shells in Aux-J                     ...    260
   Maximum angular momentum in Aux-J        ...      4
Auxiliary J/K fitting basis                 ... NOT available
Auxiliary Correlation fitting basis         ... NOT available
Auxiliary 'external' fitting basis          ... NOT available
Integral threshold                          ...     2.500000e-11
Primitive cut-off                           ...     2.500000e-12
Primitive pair pre-selection threshold      ...     2.500000e-12

Calculating pre-screening integrals         ... done (  0.1 sec) Dimension = 162
Organizing shell pair data                  ... done (  0.1 sec)
Shell pair information
Total number of shell pairs                 ...     13203
Shell pairs after pre-screening             ...     12538
Total number of primitive shell pairs       ...     35715
Primitive shell pairs kept                  ...     26485
          la=0 lb=0:   3055 shell pairs
          la=1 lb=0:   4397 shell pairs
          la=1 lb=1:   1633 shell pairs
          la=2 lb=0:   1830 shell pairs
          la=2 lb=1:   1331 shell pairs
          la=2 lb=2:    292 shell pairs

Calculating one electron integrals          ... done (  0.0 sec)
Calculating RI/J V-Matrix + Cholesky decomp.... done (  0.1 sec)
Calculating Nuclear repulsion               ... done (  0.0 sec) ENN=    784.189905822612 Eh

SHARK setup successfully completed in   0.3 seconds

Maximum memory used throughout the entire GTOINT-calculation: 20.2 MB


           ************************************************************
           *        Program running with 4 parallel MPI-processes     *
           *              working on a common directory               *
           ************************************************************
-------------------------------------------------------------------------------
                                 ORCA SCF
-------------------------------------------------------------------------------

------------
SCF SETTINGS
------------
Hamiltonian:
 Density Functional     Method          .... DFT(GTOs)
 Exchange Functional    Exchange        .... M062X
 Correlation Functional Correlation     .... M062X
 Gradients option       PostSCFGGA      .... off
 Hybrid DFT is turned on
   Fraction HF Exchange ScalHFX         ....  0.540000
   Scaling of DF-GGA-X  ScalDFX         ....  0.460000
   Scaling of DF-GGA-C  ScalDFC         ....  1.000000
   Scaling of DF-LDA-C  ScalLDAC        ....  1.000000
   Perturbative correction              ....  0.000000
   Density functional embedding theory  .... OFF
 RI-approximation to the Coulomb term is turned on
   Number of AuxJ basis functions       .... 764
   RIJ-COSX (HFX calculated with COS-X)).... on


General Settings:
 Integral files         IntName         .... 28Oct_SVPD_M062X_B_wt_wb97
 Hartree-Fock type      HFTyp           .... RHF
 Total Charge           Charge          ....    0
 Multiplicity           Mult            ....    1
 Number of Electrons    NEL             ....   94
 Basis Dimension        Dim             ....  374
 Nuclear Repulsion      ENuc            ....    784.1899058226 Eh

Convergence Acceleration:
 DIIS                   CNVDIIS         .... on
   Start iteration      DIISMaxIt       ....    12
   Startup error        DIISStart       ....  0.200000
   # of expansion vecs  DIISMaxEq       ....     5
   Bias factor          DIISBfac        ....   1.050
   Max. coefficient     DIISMaxC        ....  10.000
 Trust-Rad. Augm. Hess. CNVTRAH         .... auto
   Auto Start mean grad. ratio tolernc. ....  1.125000
   Auto Start start iteration           ....    20
   Auto Start num. interpolation iter.  ....    10
   Max. Number of Micro iterations      ....    16
   Max. Number of Macro iterations      .... Maxiter - #DIIS iter
   Number of Davidson start vectors     ....     2
   Converg. threshold I  (grad. norm)   ....   1.000e-05
   Converg. threshold II (energy diff.) ....   1.000e-08
   Grad. Scal. Fac. for Micro threshold ....   0.100
   Minimum threshold for Micro iter.    ....   0.010
   NR start threshold (gradient norm)   ....   0.001
   Initial trust radius                 ....   0.400
   Minimum AH scaling param. (alpha)    ....   1.000
   Maximum AH scaling param. (alpha)    .... 1000.000
   Orbital update algorithm             .... Taylor
   White noise on init. David. guess    .... on
   Maximum white noise                  ....   0.010
   Quad. conv. algorithm                .... NR
 SOSCF                  CNVSOSCF        .... on
   Start iteration      SOSCFMaxIt      ....   150
   Startup grad/error   SOSCFStart      ....  0.003300
 Level Shifting         CNVShift        .... on
   Level shift para.    LevelShift      ....    0.2500
   Turn off err/grad.   ShiftErr        ....    0.0010
 Zerner damping         CNVZerner       .... off
 Static damping         CNVDamp         .... on
   Fraction old density DampFac         ....    0.7000
   Max. Damping (<1)    DampMax         ....    0.9800
   Min. Damping (>=0)   DampMin         ....    0.0000
   Turn off err/grad.   DampErr         ....    0.1000
 Fernandez-Rico         CNVRico         .... off

SCF Procedure:
 Maximum # iterations   MaxIter         ....   150
 SCF integral mode      SCFMode         .... Direct
   Integral package                     .... SHARK and LIBINT hybrid scheme
 Reset frequency        DirectResetFreq ....    20
 Integral Threshold     Thresh          ....  2.500e-11 Eh
 Primitive CutOff       TCut            ....  2.500e-12 Eh

Convergence Tolerance:
 Convergence Check Mode ConvCheckMode   .... Total+1el-Energy
 Convergence forced     ConvForced      .... 0
 Energy Change          TolE            ....  1.000e-08 Eh
 1-El. energy change                    ....  1.000e-05 Eh
 Orbital Gradient       TolG            ....  1.000e-05
 Orbital Rotation angle TolX            ....  1.000e-05
 DIIS Error             TolErr          ....  5.000e-07


Diagonalization of the overlap matrix:
Smallest eigenvalue                        ... 3.525e-05
Time for diagonalization                   ...    0.036 sec
Threshold for overlap eigenvalues          ... 1.000e-08
Number of eigenvalues below threshold      ... 0
Time for construction of square roots      ...    0.022 sec
Total time needed                          ...    0.059 sec

Time for model grid setup =    0.289 sec

------------------------------
INITIAL GUESS: MODEL POTENTIAL
------------------------------
Loading Hartree-Fock densities                     ... done
Calculating cut-offs                               ... done
Initializing the effective Hamiltonian             ... done
Setting up the integral package (SHARK)            ... done
Starting the Coulomb interaction                   ... done (   0.3 sec)
Reading the grid                                   ... done
Mapping shells                                     ... done
Starting the XC term evaluation                    ... done (   0.4 sec)
  promolecular density results
     # of electrons  =     93.986506330
     EX              =    -75.088290453
     EC              =     -3.142731925
     EX+EC           =    -78.231022377
Transforming the Hamiltonian                       ... done (   0.0 sec)
Diagonalizing the Hamiltonian                      ... done (   0.0 sec)
Back transforming the eigenvectors                 ... done (   0.0 sec)
Now organizing SCF variables                       ... done
                      ------------------
                      INITIAL GUESS DONE (   1.0 sec)
                      ------------------
-------------------
DFT GRID GENERATION
-------------------

General Integration Accuracy     IntAcc      ... 4.388
Radial Grid Type                 RadialGrid  ... OptM3 with GC (2021)
Angular Grid (max. ang.)         AngularGrid ... 4 (Lebedev-302)
Angular grid pruning method      GridPruning ... 4 (adaptive)
Weight generation scheme         WeightScheme... Becke
Basis function cutoff            BFCut       ... 1.0000e-11
Integration weight cutoff        WCut        ... 1.0000e-14
Angular grids for H and He will be reduced by one unit
Partially contracted basis set               ... off
Rotationally invariant grid construction     ... off

Total number of grid points                  ...   125671
Total number of batches                      ...     1975
Average number of points per batch           ...       63
Average number of grid points per atom       ...     4488
Time for grid setup =    1.048 sec

--------------------
COSX GRID GENERATION
--------------------

GRIDX 1
-------
General Integration Accuracy     IntAcc      ... 3.816
Radial Grid Type                 RadialGrid  ... OptM3 with GC (2021)
Angular Grid (max. ang.)         AngularGrid ... 1 (Lebedev-50)
Angular grid pruning method      GridPruning ... 4 (adaptive)
Weight generation scheme         WeightScheme... Becke
Basis function cutoff            BFCut       ... 1.0000e-11
Integration weight cutoff        WCut        ... 1.0000e-14
Angular grids for H and He will be reduced by one unit
Partially contracted basis set               ... on
Rotationally invariant grid construction     ... off

Total number of grid points                  ...    15708
Total number of batches                      ...      265
Average number of points per batch           ...       59
Average number of grid points per atom       ...      561
UseSFitting                                  ... on

GRIDX 2
-------
General Integration Accuracy     IntAcc      ... 4.020
Radial Grid Type                 RadialGrid  ... OptM3 with GC (2021)
Angular Grid (max. ang.)         AngularGrid ... 2 (Lebedev-110)
Angular grid pruning method      GridPruning ... 4 (adaptive)
Weight generation scheme         WeightScheme... Becke
Basis function cutoff            BFCut       ... 1.0000e-11
Integration weight cutoff        WCut        ... 1.0000e-14
Angular grids for H and He will be reduced by one unit
Partially contracted basis set               ... on
Rotationally invariant grid construction     ... off

Total number of grid points                  ...    34604
Total number of batches                      ...      553
Average number of points per batch           ...       62
Average number of grid points per atom       ...     1236
UseSFitting                                  ... on

GRIDX 3
-------
General Integration Accuracy     IntAcc      ... 4.338
Radial Grid Type                 RadialGrid  ... OptM3 with GC (2021)
Angular Grid (max. ang.)         AngularGrid ... 3 (Lebedev-194)
Angular grid pruning method      GridPruning ... 4 (adaptive)
Weight generation scheme         WeightScheme... Becke
Basis function cutoff            BFCut       ... 1.0000e-11
Integration weight cutoff        WCut        ... 1.0000e-14
Angular grids for H and He will be reduced by one unit
Partially contracted basis set               ... on
Rotationally invariant grid construction     ... off

Total number of grid points                  ...    77867
Total number of batches                      ...     1230
Average number of points per batch           ...       63
Average number of grid points per atom       ...     2781
UseSFitting                                  ... on

Time for X-Grid setup             =    1.333 sec

--------------
SCF ITERATIONS
--------------
ITER       Energy         Delta-E        Max-DP      RMS-DP      [F,P]     Damp
               ***  Starting incremental Fock matrix formation  ***
  0   -573.3838784451   0.000000000000 0.10572813  0.00233209  0.2579136 0.7000
  1   -573.5702860772  -0.186407632087 0.07100589  0.00159721  0.1227119 0.7000
                               ***Turning on DIIS***
  2   -573.6550401563  -0.084754079080 0.15825334  0.00317364  0.0475141 0.0000
  3   -573.7855547745  -0.130514618188 0.06712501  0.00114711  0.0690902 0.0000
  4   -573.8119195985  -0.026364824028 0.02456688  0.00031953  0.0073896 0.0000
  5   -573.8125108786  -0.000591280102 0.00933083  0.00013157  0.0053577 0.0000
                      *** Initiating the SOSCF procedure ***
                           *** Shutting down DIIS ***
                      *** Re-Reading the Fockian *** 
                      *** Removing any level shift *** 
ITER      Energy       Delta-E        Grad      Rot      Max-DP    RMS-DP
  6   -573.81261640  -0.0001055259  0.000335  0.000335  0.010554  0.000118
               *** Restarting incremental Fock matrix formation ***
  7   -573.81254577   0.0000706379  0.000128  0.000340  0.005460  0.000129
  8   -573.81254727  -0.0000015063  0.000137  0.000191  0.001759  0.000037
  9   -573.81254842  -0.0000011498  0.000036  0.000045  0.001093  0.000026
 10   -573.81254848  -0.0000000588  0.000024  0.000026  0.000186  0.000004
 11   -573.81254855  -0.0000000647  0.000006  0.000007  0.000197  0.000004
 12   -573.81254854   0.0000000049  0.000004  0.000006  0.000033  0.000001
                  ***Gradient check signals convergence***
              ***Rediagonalizing the Fockian in SOSCF/NRSCF***

               *****************************************************
               *                     SUCCESS                       *
               *           SCF CONVERGED AFTER  13 CYCLES          *
               *****************************************************

Old exchange energy                            =    -41.449257785 Eh
New exchange energy                            =    -41.449377367 Eh
Exchange energy change after final integration =     -0.000119582 Eh
Total energy after final integration           =   -573.812668122 Eh
Final COS-X integration done in                =    16.038 sec

----------------
TOTAL SCF ENERGY
----------------

Total Energy       :         -573.81266812 Eh          -15614.23651 eV

Components:
Nuclear Repulsion  :          784.18990582 Eh           21338.89219 eV
Electronic Energy  :        -1358.00257394 Eh          -36953.12870 eV
One Electron Energy:        -2336.00056787 Eh          -63565.80707 eV
Two Electron Energy:          977.99799392 Eh           26612.67838 eV
Max COSX asymmetry :            0.00002138 Eh               0.00058 eV

Virial components:
Potential Energy   :        -1141.70996002 Eh          -31067.50745 eV
Kinetic Energy     :          567.89729190 Eh           15453.27094 eV
Virial Ratio       :            2.01041628


DFT components:
N(Alpha)           :       46.999924803622 electrons
N(Beta)            :       46.999924803622 electrons
N(Total)           :       93.999849607243 electrons
E(XC)              :      -38.671903468693 Eh       
DFET-embed. en.    :        0.000000000000 Eh       

---------------
SCF CONVERGENCE
---------------

  Last Energy change         ...    9.5508e-10  Tolerance :   1.0000e-08
  Last MAX-Density change    ...    3.9968e-15  Tolerance :   1.0000e-07
  Last RMS-Density change    ...    3.6405e-17  Tolerance :   5.0000e-09
  Last Orbital Gradient      ...    7.7836e-07  Tolerance :   1.0000e-05
  Last Orbital Rotation      ...    1.6800e-06  Tolerance :   1.0000e-05

             **** THE GBW FILE WAS UPDATED (28Oct_SVPD_M062X_B_wt_wb97.gbw) ****
             **** DENSITY 28Oct_SVPD_M062X_B_wt_wb97.scfp WAS UPDATED ****
             **** ENERGY FILE WAS UPDATED (28Oct_SVPD_M062X_B_wt_wb97.en.tmp) ****
             **** THE GBW FILE WAS UPDATED (28Oct_SVPD_M062X_B_wt_wb97.gbw) ****
             **** DENSITY 28Oct_SVPD_M062X_B_wt_wb97.scfp WAS UPDATED ****
----------------
ORBITAL ENERGIES
----------------

  NO   OCC          E(Eh)            E(eV) 
   0   2.0000     -19.551012      -532.0101 
   1   2.0000     -19.544034      -531.8202 
   2   2.0000     -14.847389      -404.0180 
   3   2.0000     -14.811092      -403.0303 
   4   2.0000     -10.706379      -291.3354 
   5   2.0000     -10.607210      -288.6368 
   6   2.0000     -10.596835      -288.3545 
   7   2.0000     -10.579143      -287.8731 
   8   2.0000     -10.548516      -287.0397 
   9   2.0000     -10.529866      -286.5322 
  10   2.0000     -10.525203      -286.4053 
  11   2.0000     -10.512185      -286.0511 
  12   2.0000      -1.135631       -30.9021 
  13   2.0000      -1.109192       -30.1826 
  14   2.0000      -1.029151       -28.0046 
  15   2.0000      -1.007335       -27.4110 
  16   2.0000      -0.924039       -25.1444 
  17   2.0000      -0.868501       -23.6331 
  18   2.0000      -0.821063       -22.3423 
  19   2.0000      -0.762335       -20.7442 
  20   2.0000      -0.742174       -20.1956 
  21   2.0000      -0.696585       -18.9550 
  22   2.0000      -0.685227       -18.6460 
  23   2.0000      -0.656541       -17.8654 
  24   2.0000      -0.632945       -17.2233 
  25   2.0000      -0.598741       -16.2926 
  26   2.0000      -0.574129       -15.6228 
  27   2.0000      -0.551998       -15.0206 
  28   2.0000      -0.531193       -14.4545 
  29   2.0000      -0.524382       -14.2692 
  30   2.0000      -0.518986       -14.1223 
  31   2.0000      -0.493432       -13.4270 
  32   2.0000      -0.481819       -13.1110 
  33   2.0000      -0.478433       -13.0188 
  34   2.0000      -0.464424       -12.6376 
  35   2.0000      -0.450954       -12.2711 
  36   2.0000      -0.440070       -11.9749 
  37   2.0000      -0.422673       -11.5015 
  38   2.0000      -0.415618       -11.3095 
  39   2.0000      -0.400129       -10.8881 
  40   2.0000      -0.385303       -10.4846 
  41   2.0000      -0.375955       -10.2303 
  42   2.0000      -0.367119        -9.9898 
  43   2.0000      -0.357545        -9.7293 
  44   2.0000      -0.292611        -7.9624 
  45   2.0000      -0.283723        -7.7205 
  46   2.0000      -0.274540        -7.4706 
  47   0.0000      -0.009873        -0.2686 
  48   0.0000       0.003031         0.0825 
  49   0.0000       0.036378         0.9899 
  50   0.0000       0.047914         1.3038 
  51   0.0000       0.055119         1.4999 
  52   0.0000       0.068882         1.8744 
  53   0.0000       0.071432         1.9438 
  54   0.0000       0.080610         2.1935 
  55   0.0000       0.087869         2.3910 
  56   0.0000       0.095185         2.5901 
  57   0.0000       0.103631         2.8200 
  58   0.0000       0.114388         3.1127 
  59   0.0000       0.118839         3.2338 
  60   0.0000       0.119306         3.2465 
  61   0.0000       0.121566         3.3080 
  62   0.0000       0.132316         3.6005 
  63   0.0000       0.139066         3.7842 
  64   0.0000       0.149225         4.0606 
  65   0.0000       0.154705         4.2097 
  66   0.0000       0.159753         4.3471 
  67   0.0000       0.166409         4.5282 
  68   0.0000       0.175463         4.7746 
  69   0.0000       0.179952         4.8967 
  70   0.0000       0.183892         5.0040 
  71   0.0000       0.189899         5.1674 
  72   0.0000       0.193970         5.2782 
  73   0.0000       0.198642         5.4053 
  74   0.0000       0.209398         5.6980 
  75   0.0000       0.210048         5.7157 
  76   0.0000       0.219177         5.9641 
  77   0.0000       0.227064         6.1787 
  78   0.0000       0.228771         6.2252 
  79   0.0000       0.233099         6.3429 
  80   0.0000       0.239274         6.5110 
  81   0.0000       0.248542         6.7632 
  82   0.0000       0.252635         6.8745 
  83   0.0000       0.258280         7.0282 
  84   0.0000       0.262993         7.1564 
  85   0.0000       0.276710         7.5297 
  86   0.0000       0.280099         7.6219 
  87   0.0000       0.283139         7.7046 
  88   0.0000       0.283609         7.7174 
  89   0.0000       0.294895         8.0245 
  90   0.0000       0.298145         8.1129 
  91   0.0000       0.302912         8.2427 
  92   0.0000       0.307288         8.3617 
  93   0.0000       0.313766         8.5380 
  94   0.0000       0.318715         8.6727 
  95   0.0000       0.326002         8.8710 
  96   0.0000       0.327608         8.9147 
  97   0.0000       0.334435         9.1004 
  98   0.0000       0.338295         9.2055 
  99   0.0000       0.342397         9.3171 
 100   0.0000       0.348302         9.4778 
 101   0.0000       0.349065         9.4985 
 102   0.0000       0.355689         9.6788 
 103   0.0000       0.363594         9.8939 
 104   0.0000       0.365304         9.9404 
 105   0.0000       0.367933        10.0120 
 106   0.0000       0.375480        10.2173 
 107   0.0000       0.379417        10.3245 
 108   0.0000       0.381247        10.3742 
 109   0.0000       0.386657        10.5215 
 110   0.0000       0.389122        10.5885 
 111   0.0000       0.395405        10.7595 
 112   0.0000       0.400324        10.8934 
 113   0.0000       0.403624        10.9832 
 114   0.0000       0.407281        11.0827 
 115   0.0000       0.414842        11.2884 
 116   0.0000       0.420865        11.4523 
 117   0.0000       0.422125        11.4866 
 118   0.0000       0.426596        11.6083 
 119   0.0000       0.432907        11.7800 
 120   0.0000       0.435263        11.8441 
 121   0.0000       0.441381        12.0106 
 122   0.0000       0.446682        12.1548 
 123   0.0000       0.452464        12.3122 
 124   0.0000       0.455126        12.3846 
 125   0.0000       0.459058        12.4916 
 126   0.0000       0.466274        12.6880 
 127   0.0000       0.470970        12.8158 
 128   0.0000       0.480514        13.0754 
 129   0.0000       0.481822        13.1110 
 130   0.0000       0.489590        13.3224 
 131   0.0000       0.491230        13.3671 
 132   0.0000       0.497656        13.5419 
 133   0.0000       0.504409        13.7257 
 134   0.0000       0.510261        13.8849 
 135   0.0000       0.512478        13.9452 
 136   0.0000       0.518911        14.1203 
 137   0.0000       0.526143        14.3171 
 138   0.0000       0.530362        14.4319 
 139   0.0000       0.533014        14.5040 
 140   0.0000       0.540446        14.7063 
 141   0.0000       0.543188        14.7809 
 142   0.0000       0.548063        14.9136 
 143   0.0000       0.550696        14.9852 
 144   0.0000       0.554895        15.0995 
 145   0.0000       0.559216        15.2170 
 146   0.0000       0.566522        15.4159 
 147   0.0000       0.568800        15.4778 
 148   0.0000       0.575484        15.6597 
 149   0.0000       0.579537        15.7700 
 150   0.0000       0.585263        15.9258 
 151   0.0000       0.587923        15.9982 
 152   0.0000       0.592636        16.1264 
 153   0.0000       0.598131        16.2760 
 154   0.0000       0.602979        16.4079 
 155   0.0000       0.610642        16.6164 
 156   0.0000       0.613654        16.6984 
 157   0.0000       0.618361        16.8265 
 158   0.0000       0.620741        16.8912 
 159   0.0000       0.628176        17.0935 
 160   0.0000       0.631984        17.1972 
 161   0.0000       0.632650        17.2153 
 162   0.0000       0.640624        17.4323 
 163   0.0000       0.650206        17.6930 
 164   0.0000       0.656879        17.8746 
 165   0.0000       0.658575        17.9207 
 166   0.0000       0.667131        18.1536 
 167   0.0000       0.675035        18.3686 
 168   0.0000       0.678226        18.4555 
 169   0.0000       0.687834        18.7169 
 170   0.0000       0.691814        18.8252 
 171   0.0000       0.693932        18.8828 
 172   0.0000       0.706676        19.2296 
 173   0.0000       0.709512        19.3068 
 174   0.0000       0.721208        19.6251 
 175   0.0000       0.723880        19.6978 
 176   0.0000       0.729090        19.8396 
 177   0.0000       0.739831        20.1318 
 178   0.0000       0.744026        20.2460 
 179   0.0000       0.760267        20.6879 
 180   0.0000       0.768333        20.9074 
 181   0.0000       0.774645        21.0792 
 182   0.0000       0.780144        21.2288 
 183   0.0000       0.786126        21.3916 
 184   0.0000       0.793391        21.5893 
 185   0.0000       0.798054        21.7162 
 186   0.0000       0.807061        21.9612 
 187   0.0000       0.811589        22.0844 
 188   0.0000       0.827534        22.5183 
 189   0.0000       0.838850        22.8263 
 190   0.0000       0.845793        23.0152 
 191   0.0000       0.852633        23.2013 
 192   0.0000       0.868626        23.6365 
 193   0.0000       0.884249        24.0616 
 194   0.0000       0.888485        24.1769 
 195   0.0000       0.915313        24.9069 
 196   0.0000       0.919327        25.0162 
 197   0.0000       0.937036        25.4981 
 198   0.0000       0.945521        25.7289 
 199   0.0000       0.965725        26.2787 
 200   0.0000       0.991355        26.9762 
 201   0.0000       0.993403        27.0319 
 202   0.0000       0.998378        27.1672 
 203   0.0000       1.008284        27.4368 
 204   0.0000       1.014307        27.6007 
 205   0.0000       1.028872        27.9970 
 206   0.0000       1.033348        28.1188 
 207   0.0000       1.041395        28.3378 
 208   0.0000       1.058736        28.8097 
 209   0.0000       1.069378        29.0993 
 210   0.0000       1.073616        29.2146 
 211   0.0000       1.082875        29.4665 
 212   0.0000       1.091100        29.6903 
 213   0.0000       1.095549        29.8114 
 214   0.0000       1.102689        30.0057 
 215   0.0000       1.120520        30.4909 
 216   0.0000       1.123529        30.5728 
 217   0.0000       1.134245        30.8644 
 218   0.0000       1.142421        31.0869 
 219   0.0000       1.146028        31.1850 
 220   0.0000       1.159965        31.5643 
 221   0.0000       1.163945        31.6726 
 222   0.0000       1.180174        32.1142 
 223   0.0000       1.188231        32.3334 
 224   0.0000       1.202377        32.7183 
 225   0.0000       1.207767        32.8650 
 226   0.0000       1.216726        33.1088 
 227   0.0000       1.223143        33.2834 
 228   0.0000       1.241136        33.7730 
 229   0.0000       1.243960        33.8499 
 230   0.0000       1.270628        34.5755 
 231   0.0000       1.279421        34.8148 
 232   0.0000       1.297630        35.3103 
 233   0.0000       1.303725        35.4762 
 234   0.0000       1.324842        36.0508 
 235   0.0000       1.347787        36.6751 
 236   0.0000       1.355715        36.8909 
 237   0.0000       1.363174        37.0938 
 238   0.0000       1.365797        37.1652 
 239   0.0000       1.386187        37.7201 
 240   0.0000       1.416548        38.5462 
 241   0.0000       1.438617        39.1468 
 242   0.0000       1.451084        39.4860 
 243   0.0000       1.465937        39.8902 
 244   0.0000       1.481925        40.3252 
 245   0.0000       1.510904        41.1138 
 246   0.0000       1.516152        41.2566 
 247   0.0000       1.538080        41.8533 
 248   0.0000       1.570350        42.7314 
 249   0.0000       1.586056        43.1588 
 250   0.0000       1.590756        43.2867 
 251   0.0000       1.607590        43.7447 
 252   0.0000       1.617203        44.0063 
 253   0.0000       1.634263        44.4706 
 254   0.0000       1.658534        45.1310 
 255   0.0000       1.671908        45.4949 
 256   0.0000       1.698898        46.2294 
 257   0.0000       1.702894        46.3381 
 258   0.0000       1.709694        46.5231 
 259   0.0000       1.728926        47.0465 
 260   0.0000       1.732854        47.1533 
 261   0.0000       1.761255        47.9262 
 262   0.0000       1.780119        48.4395 
 263   0.0000       1.792311        48.7713 
 264   0.0000       1.802278        49.0425 
 265   0.0000       1.808786        49.2196 
 266   0.0000       1.811961        49.3060 
 267   0.0000       1.818484        49.4835 
 268   0.0000       1.842517        50.1374 
 269   0.0000       1.853429        50.4344 
 270   0.0000       1.877251        51.0826 
 271   0.0000       1.891290        51.4646 
 272   0.0000       1.900219        51.7076 
 273   0.0000       1.904022        51.8111 
 274   0.0000       1.914785        52.1039 
 275   0.0000       1.933064        52.6013 
 276   0.0000       1.942239        52.8510 
 277   0.0000       1.956746        53.2458 
 278   0.0000       1.967360        53.5346 
 279   0.0000       1.972759        53.6815 
 280   0.0000       1.982735        53.9530 
 281   0.0000       1.992365        54.2150 
 282   0.0000       1.994134        54.2631 
 283   0.0000       2.001850        54.4731 
 284   0.0000       2.015577        54.8466 
 285   0.0000       2.020368        54.9770 
 286   0.0000       2.034321        55.3567 
 287   0.0000       2.040541        55.5260 
 288   0.0000       2.053228        55.8712 
 289   0.0000       2.066552        56.2337 
 290   0.0000       2.067859        56.2693 
 291   0.0000       2.080743        56.6199 
 292   0.0000       2.088702        56.8365 
 293   0.0000       2.104220        57.2587 
 294   0.0000       2.121773        57.7364 
 295   0.0000       2.129615        57.9498 
 296   0.0000       2.137579        58.1665 
 297   0.0000       2.146069        58.3975 
 298   0.0000       2.161815        58.8260 
 299   0.0000       2.168789        59.0157 
 300   0.0000       2.186605        59.5006 
 301   0.0000       2.191795        59.6418 
 302   0.0000       2.212343        60.2009 
 303   0.0000       2.224636        60.5354 
 304   0.0000       2.234090        60.7927 
 305   0.0000       2.247627        61.1610 
 306   0.0000       2.263461        61.5919 
 307   0.0000       2.269512        61.7566 
 308   0.0000       2.291172        62.3459 
 309   0.0000       2.305309        62.7307 
 310   0.0000       2.314163        62.9716 
 311   0.0000       2.333967        63.5105 
 312   0.0000       2.351163        63.9784 
 313   0.0000       2.354027        64.0563 
 314   0.0000       2.383110        64.8477 
 315   0.0000       2.406624        65.4876 
 316   0.0000       2.413363        65.6709 
 317   0.0000       2.427721        66.0616 
 318   0.0000       2.447483        66.5994 
 319   0.0000       2.452218        66.7282 
 320   0.0000       2.462372        67.0046 
 321   0.0000       2.475043        67.3494 
 322   0.0000       2.494523        67.8794 
 323   0.0000       2.509970        68.2998 
 324   0.0000       2.534222        68.9597 
 325   0.0000       2.545591        69.2691 
 326   0.0000       2.567092        69.8541 
 327   0.0000       2.574874        70.0659 
 328   0.0000       2.580053        70.2068 
 329   0.0000       2.605685        70.9043 
 330   0.0000       2.637894        71.7808 
 331   0.0000       2.654852        72.2422 
 332   0.0000       2.662180        72.4416 
 333   0.0000       2.688298        73.1523 
 334   0.0000       2.696509        73.3757 
 335   0.0000       2.711984        73.7968 
 336   0.0000       2.719538        74.0024 
 337   0.0000       2.746571        74.7380 
 338   0.0000       2.750929        74.8566 
 339   0.0000       2.770962        75.4017 
 340   0.0000       2.789762        75.9133 
 341   0.0000       2.814686        76.5915 
 342   0.0000       2.846301        77.4518 
 343   0.0000       2.882943        78.4489 
 344   0.0000       2.928949        79.7008 
 345   0.0000       2.984757        81.2194 
 346   0.0000       3.013302        81.9961 
 347   0.0000       3.036936        82.6392 
 348   0.0000       3.066755        83.4506 
 349   0.0000       3.091191        84.1156 
 350   0.0000       3.102636        84.4270 
 351   0.0000       3.124150        85.0124 
 352   0.0000       3.129433        85.1562 
 353   0.0000       3.146235        85.6134 
 354   0.0000       3.163058        86.0712 
 355   0.0000       3.184970        86.6674 
 356   0.0000       3.193731        86.9058 
 357   0.0000       3.206268        87.2470 
 358   0.0000       3.230802        87.9146 
 359   0.0000       3.239307        88.1460 
 360   0.0000       3.248667        88.4007 
 361   0.0000       3.271105        89.0113 
 362   0.0000       3.276664        89.1626 
 363   0.0000       3.322345        90.4056 
 364   0.0000       3.330719        90.6335 
 365   0.0000       3.351597        91.2016 
 366   0.0000       3.365599        91.5826 
 367   0.0000       3.415460        92.9394 
 368   0.0000       3.470860        94.4469 
 369   0.0000       3.610480        98.2462 
 370   0.0000       3.619695        98.4969 
 371   0.0000       3.762079       102.3714 
 372   0.0000       3.870587       105.3240 
 373   0.0000       3.983609       108.3995 

                    ********************************
                    * MULLIKEN POPULATION ANALYSIS *
                    ********************************

-----------------------
MULLIKEN ATOMIC CHARGES
-----------------------
   0 C :    0.257906
   1 C :    0.519406
   2 C :    0.309653
   3 H :    0.213553
   4 H :   -0.320551
   5 C :    0.318575
   6 C :    0.642443
   7 N :    0.300291
   8 N :   -0.000002
   9 H :   -0.011874
  10 H :   -0.140807
  11 H :   -0.252982
  12 H :   -0.024857
  13 O :   -0.839038
  14 O :   -0.656511
  15 C :    0.309683
  16 C :    0.231562
  17 H :   -0.076095
  18 H :   -0.126704
  19 C :    0.048079
  20 H :   -0.167631
  21 H :   -0.228781
  22 H :    0.051566
  23 H :   -0.236465
  24 H :   -0.149664
  25 H :    0.043298
  26 H :    0.079032
  27 H :   -0.093085
Sum of atomic charges:    0.0000000

--------------------------------
MULLIKEN REDUCED ORBITAL CHARGES
--------------------------------
  0 C s       :     2.724501  s :     2.724501
      pz      :     0.932409  p :     2.767815
      px      :     0.808572
      py      :     1.026834
      dz2     :     0.120188  d :     0.249778
      dxz     :     0.002718
      dyz     :     0.003093
      dx2y2   :    -0.033911
      dxy     :     0.157690
  1 C s       :     2.626425  s :     2.626425
      pz      :     0.863928  p :     2.566661
      px      :     0.911639
      py      :     0.791094
      dz2     :     0.089986  d :     0.287508
      dxz     :     0.034462
      dyz     :     0.103287
      dx2y2   :     0.047042
      dxy     :     0.012732
  2 C s       :     2.637481  s :     2.637481
      pz      :     0.872693  p :     2.759024
      px      :     0.880310
      py      :     1.006021
      dz2     :     0.075185  d :     0.293842
      dxz     :     0.097862
      dyz     :     0.103664
      dx2y2   :    -0.003080
      dxy     :     0.020211
  3 H s       :     0.816500  s :     0.816500
      pz      :    -0.043155  p :    -0.030053
      px      :    -0.031978
      py      :     0.045080
  4 H s       :     1.298894  s :     1.298894
      pz      :     0.013160  p :     0.021657
      px      :     0.018203
      py      :    -0.009706
  5 C s       :     3.032537  s :     3.032537
      pz      :     0.717353  p :     2.306654
      px      :     0.746728
      py      :     0.842573
      dz2     :     0.069577  d :     0.342234
      dxz     :     0.039143
      dyz     :     0.047790
      dx2y2   :     0.059953
      dxy     :     0.125772
  6 C s       :     3.219640  s :     3.219640
      pz      :     0.839126  p :     2.328958
      px      :     0.790759
      py      :     0.699073
      dz2     :    -0.114854  d :    -0.191042
      dxz     :    -0.063119
      dyz     :     0.010271
      dx2y2   :    -0.004269
      dxy     :    -0.019071
  7 N s       :     3.092373  s :     3.092373
      pz      :     1.013429  p :     3.605327
      px      :     1.161556
      py      :     1.430342
      dz2     :    -0.008613  d :     0.002009
      dxz     :     0.000072
      dyz     :    -0.000793
      dx2y2   :    -0.009162
      dxy     :     0.020506
  8 N s       :     3.346944  s :     3.346944
      pz      :     1.047700  p :     3.683223
      px      :     1.071285
      py      :     1.564238
      dz2     :    -0.015475  d :    -0.030164
      dxz     :    -0.032339
      dyz     :    -0.003723
      dx2y2   :     0.013377
      dxy     :     0.007996
  9 H s       :     0.990151  s :     0.990151
      pz      :    -0.046167  p :     0.021723
      px      :     0.010734
      py      :     0.057156
 10 H s       :     1.107407  s :     1.107407
      pz      :    -0.021809  p :     0.033400
      px      :     0.003367
      py      :     0.051842
 11 H s       :     1.127840  s :     1.127840
      pz      :    -0.054359  p :     0.125142
      px      :     0.121294
      py      :     0.058207
 12 H s       :     1.021884  s :     1.021884
      pz      :    -0.000305  p :     0.002972
      px      :    -0.029209
      py      :     0.032487
 13 O s       :     4.049139  s :     4.049139
      pz      :     1.752941  p :     4.778117
      px      :     1.694815
      py      :     1.330361
      dz2     :     0.006995  d :     0.011783
      dxz     :    -0.002375
      dyz     :     0.005784
      dx2y2   :    -0.002125
      dxy     :     0.003503
 14 O s       :     3.885531  s :     3.885531
      pz      :     1.454716  p :     4.736613
      px      :     1.453276
      py      :     1.828621
      dz2     :     0.014189  d :     0.034368
      dxz     :     0.007234
      dyz     :     0.003968
      dx2y2   :     0.006475
      dxy     :     0.002500
 15 C s       :     2.757224  s :     2.757224
      pz      :     0.862492  p :     2.540210
      px      :     0.789649
      py      :     0.888070
      dz2     :     0.121365  d :     0.392882
      dxz     :     0.013764
      dyz     :     0.044522
      dx2y2   :     0.190878
      dxy     :     0.022353
 16 C s       :     2.738890  s :     2.738890
      pz      :     0.863122  p :     2.618698
      px      :     0.966872
      py      :     0.788705
      dz2     :     0.022449  d :     0.410850
      dxz     :     0.141699
      dyz     :     0.094335
      dx2y2   :     0.084971
      dxy     :     0.067398
 17 H s       :     1.109009  s :     1.109009
      pz      :     0.044564  p :    -0.032914
      px      :    -0.051679
      py      :    -0.025799
 18 H s       :     1.166838  s :     1.166838
      pz      :    -0.042720  p :    -0.040133
      px      :     0.019928
      py      :    -0.017342
 19 C s       :     2.790104  s :     2.790104
      pz      :     0.751903  p :     2.678067
      px      :     0.951925
      py      :     0.974239
      dz2     :     0.061756  d :     0.483751
      dxz     :     0.060028
      dyz     :     0.020584
      dx2y2   :     0.172962
      dxy     :     0.168420
 20 H s       :     1.166904  s :     1.166904
      pz      :     0.008493  p :     0.000727
      px      :     0.001577
      py      :    -0.009344
 21 H s       :     1.242777  s :     1.242777
      pz      :    -0.033291  p :    -0.013996
      px      :    -0.008808
      py      :     0.028103
 22 H s       :     0.911079  s :     0.911079
      pz      :    -0.017175  p :     0.037355
      px      :     0.001308
      py      :     0.053222
 23 H s       :     1.230486  s :     1.230486
      pz      :     0.041714  p :     0.005979
      px      :    -0.001390
      py      :    -0.034345
 24 H s       :     1.165277  s :     1.165277
      pz      :     0.000382  p :    -0.015613
      px      :    -0.029083
      py      :     0.013088
 25 H s       :     1.019698  s :     1.019698
      pz      :    -0.035733  p :    -0.062996
      px      :     0.035176
      py      :    -0.062439
 26 H s       :     0.820477  s :     0.820477
      pz      :     0.022869  p :     0.100491
      px      :     0.039367
      py      :     0.038256
 27 H s       :     1.106718  s :     1.106718
      pz      :    -0.017237  p :    -0.013633
      px      :    -0.027058
      py      :     0.030662


                     *******************************
                     * LOEWDIN POPULATION ANALYSIS *
                     *******************************

----------------------
LOEWDIN ATOMIC CHARGES
----------------------
   0 C :    0.058167
   1 C :   -0.017701
   2 C :    0.033221
   3 H :    0.018861
   4 H :    0.028788
   5 C :   -0.228686
   6 C :   -0.043454
   7 N :    0.308510
   8 N :    0.247817
   9 H :    0.025662
  10 H :    0.030864
  11 H :   -0.093287
  12 H :    0.036006
  13 O :   -0.271721
  14 O :   -0.275251
  15 C :   -0.013150
  16 C :   -0.008505
  17 H :    0.030911
  18 H :    0.010076
  19 C :   -0.027596
  20 H :    0.009186
  21 H :    0.028464
  22 H :   -0.011367
  23 H :    0.021742
  24 H :    0.015975
  25 H :    0.023759
  26 H :    0.025238
  27 H :    0.037473

-------------------------------
LOEWDIN REDUCED ORBITAL CHARGES
-------------------------------
  0 C s       :     2.677623  s :     2.677623
      pz      :     0.852836  p :     2.673069
      px      :     0.907428
      py      :     0.912805
      dz2     :     0.164460  d :     0.591141
      dxz     :     0.097349
      dyz     :     0.130818
      dx2y2   :     0.081046
      dxy     :     0.117468
  1 C s       :     2.679148  s :     2.679148
      pz      :     0.885477  p :     2.685808
      px      :     0.900693
      py      :     0.899637
      dz2     :     0.160005  d :     0.652745
      dxz     :     0.121899
      dyz     :     0.161662
      dx2y2   :     0.113424
      dxy     :     0.095755
  2 C s       :     2.678654  s :     2.678654
      pz      :     0.878917  p :     2.687341
      px      :     0.908747
      py      :     0.899677
      dz2     :     0.145268  d :     0.600784
      dxz     :     0.145884
      dyz     :     0.131559
      dx2y2   :     0.076655
      dxy     :     0.101418
  3 H s       :     0.718084  s :     0.718084
      pz      :     0.067309  p :     0.263055
      px      :     0.096646
      py      :     0.099100
  4 H s       :     0.720772  s :     0.720772
      pz      :     0.074714  p :     0.250441
      px      :     0.104609
      py      :     0.071118
  5 C s       :     2.653327  s :     2.653327
      pz      :     0.744955  p :     2.367129
      px      :     0.750112
      py      :     0.872061
      dz2     :     0.215277  d :     1.208230
      dxz     :     0.176293
      dyz     :     0.268160
      dx2y2   :     0.257543
      dxy     :     0.290957
  6 C s       :     2.640283  s :     2.640283
      pz      :     0.920864  p :     2.404421
      px      :     0.851694
      py      :     0.631863
      dz2     :     0.222066  d :     0.998750
      dxz     :     0.256054
      dyz     :     0.169361
      dx2y2   :     0.161437
      dxy     :     0.189831
  7 N s       :     2.922034  s :     2.922034
      pz      :     1.081619  p :     3.399983
      px      :     1.110815
      py      :     1.207549
      dz2     :     0.120817  d :     0.369472
      dxz     :     0.085194
      dyz     :     0.048622
      dx2y2   :     0.069633
      dxy     :     0.045206
  8 N s       :     2.932601  s :     2.932601
      pz      :     1.077344  p :     3.509852
      px      :     1.103431
      py      :     1.329077
      dz2     :     0.039938  d :     0.309730
      dxz     :     0.124859
      dyz     :     0.021296
      dx2y2   :     0.064515
      dxy     :     0.059122
  9 H s       :     0.638335  s :     0.638335
      pz      :     0.136358  p :     0.336003
      px      :     0.094911
      py      :     0.104734
 10 H s       :     0.648448  s :     0.648448
      pz      :     0.131150  p :     0.320687
      px      :     0.079158
      py      :     0.110379
 11 H s       :     0.557155  s :     0.557155
      pz      :     0.096398  p :     0.536132
      px      :     0.315537
      py      :     0.124197
 12 H s       :     0.628685  s :     0.628685
      pz      :     0.129478  p :     0.335309
      px      :     0.083475
      py      :     0.122356
 13 O s       :     3.402177  s :     3.402177
      pz      :     1.587743  p :     4.586539
      px      :     1.562159
      py      :     1.436637
      dz2     :     0.048554  d :     0.283004
      dxz     :     0.017305
      dyz     :     0.057510
      dx2y2   :     0.084312
      dxy     :     0.075323
 14 O s       :     3.439903  s :     3.439903
      pz      :     1.461544  p :     4.589095
      px      :     1.439526
      py      :     1.688025
      dz2     :     0.043081  d :     0.246253
      dxz     :     0.069991
      dyz     :     0.044493
      dx2y2   :     0.036385
      dxy     :     0.052303
 15 C s       :     2.681738  s :     2.681738
      pz      :     0.888746  p :     2.671517
      px      :     0.898840
      py      :     0.883931
      dz2     :     0.139700  d :     0.659895
      dxz     :     0.069544
      dyz     :     0.147971
      dx2y2   :     0.169537
      dxy     :     0.133143
 16 C s       :     2.674831  s :     2.674831
      pz      :     0.900846  p :     2.672517
      px      :     0.888130
      py      :     0.883541
      dz2     :     0.096212  d :     0.661157
      dxz     :     0.131174
      dyz     :     0.111445
      dx2y2   :     0.164596
      dxy     :     0.157730
 17 H s       :     0.720258  s :     0.720258
      pz      :     0.108082  p :     0.248831
      px      :     0.075254
      py      :     0.065496
 18 H s       :     0.730657  s :     0.730657
      pz      :     0.071648  p :     0.259267
      px      :     0.120066
      py      :     0.067552
 19 C s       :     2.673967  s :     2.673967
      pz      :     0.893193  p :     2.672159
      px      :     0.869905
      py      :     0.909061
      dz2     :     0.148870  d :     0.681470
      dxz     :     0.134147
      dyz     :     0.070315
      dx2y2   :     0.176340
      dxy     :     0.151798
 20 H s       :     0.697171  s :     0.697171
      pz      :     0.145169  p :     0.293643
      px      :     0.073581
      py      :     0.074893
 21 H s       :     0.729837  s :     0.729837
      pz      :     0.083190  p :     0.241699
      px      :     0.061280
      py      :     0.097229
 22 H s       :     0.698132  s :     0.698132
      pz      :     0.113713  p :     0.313236
      px      :     0.074821
      py      :     0.124702
 23 H s       :     0.733279  s :     0.733279
      pz      :     0.117478  p :     0.244980
      px      :     0.061545
      py      :     0.065957
 24 H s       :     0.734131  s :     0.734131
      pz      :     0.077681  p :     0.249894
      px      :     0.065777
      py      :     0.106436
 25 H s       :     0.724981  s :     0.724981
      pz      :     0.062625  p :     0.251260
      px      :     0.108102
      py      :     0.080533
 26 H s       :     0.694100  s :     0.694100
      pz      :     0.066279  p :     0.280662
      px      :     0.138787
      py      :     0.075596
 27 H s       :     0.718956  s :     0.718956
      pz      :     0.068106  p :     0.243571
      px      :     0.083671
      py      :     0.091794


                      *****************************
                      * MAYER POPULATION ANALYSIS *
                      *****************************

  NA   - Mulliken gross atomic population
  ZA   - Total nuclear charge
  QA   - Mulliken gross atomic charge
  VA   - Mayer's total valence
  BVA  - Mayer's bonded valence
  FA   - Mayer's free valence

  ATOM       NA         ZA         QA         VA         BVA        FA
  0 C      5.7421     6.0000     0.2579     4.1746     4.1746    -0.0000
  1 C      5.4806     6.0000     0.5194     4.2752     4.2752     0.0000
  2 C      5.6903     6.0000     0.3097     4.2215     4.2215     0.0000
  3 H      0.7864     1.0000     0.2136     0.8256     0.8256     0.0000
  4 H      1.3206     1.0000    -0.3206     0.9932     0.9932     0.0000
  5 C      5.6814     6.0000     0.3186     4.4370     4.4370    -0.0000
  6 C      5.3576     6.0000     0.6424     3.1715     3.1715     0.0000
  7 N      6.6997     7.0000     0.3003     3.7442     3.7442    -0.0000
  8 N      7.0000     7.0000    -0.0000     3.6144     3.6144    -0.0000
  9 H      1.0119     1.0000    -0.0119     0.8644     0.8644    -0.0000
 10 H      1.1408     1.0000    -0.1408     0.9172     0.9172     0.0000
 11 H      1.2530     1.0000    -0.2530     1.0774     1.0774     0.0000
 12 H      1.0249     1.0000    -0.0249     0.8434     0.8434    -0.0000
 13 O      8.8390     8.0000    -0.8390     1.5229     1.5229     0.0000
 14 O      8.6565     8.0000    -0.6565     1.5547     1.5547    -0.0000
 15 C      5.6903     6.0000     0.3097     4.5029     4.5029     0.0000
 16 C      5.7684     6.0000     0.2316     4.7712     4.7712     0.0000
 17 H      1.0761     1.0000    -0.0761     0.9459     0.9459     0.0000
 18 H      1.1267     1.0000    -0.1267     0.8902     0.8902     0.0000
 19 C      5.9519     6.0000     0.0481     4.9819     4.9819    -0.0000
 20 H      1.1676     1.0000    -0.1676     1.0909     1.0909     0.0000
 21 H      1.2288     1.0000    -0.2288     0.9035     0.9035     0.0000
 22 H      0.9484     1.0000     0.0516     1.0775     1.0775    -0.0000
 23 H      1.2365     1.0000    -0.2365     1.0303     1.0303    -0.0000
 24 H      1.1497     1.0000    -0.1497     0.9736     0.9736     0.0000
 25 H      0.9567     1.0000     0.0433     0.7923     0.7923    -0.0000
 26 H      0.9210     1.0000     0.0790     1.2354     1.2354     0.0000
 27 H      1.0931     1.0000    -0.0931     1.0020     1.0020     0.0000

  Mayer bond orders larger than 0.100000
B(  0-C ,  6-C ) :   1.1019 B(  0-C ,  7-N ) :   0.1035 B(  0-C , 15-C ) :   1.1423 
B(  0-C , 16-C ) :   0.1094 B(  0-C , 17-H ) :   0.1422 B(  0-C , 18-H ) :   0.1347 
B(  0-C , 26-H ) :   0.7336 B(  0-C , 27-H ) :   0.7621 B(  1-C ,  2-C ) :   1.1563 
B(  1-C , 19-C ) :   1.3046 B(  1-C , 24-H ) :   0.7858 B(  1-C , 25-H ) :   0.6647 
B(  2-C ,  3-H ) :   0.7436 B(  2-C ,  4-H ) :   0.7769 B(  2-C ,  5-C ) :   1.1456 
B(  2-C , 19-C ) :   0.1158 B(  2-C , 24-H ) :   0.1344 B(  3-H ,  4-H ) :  -0.1184 
B(  3-H ,  5-C ) :   0.2820 B(  4-H ,  5-C ) :   0.2825 B(  5-C , 13-O ) :   1.1364 
B(  5-C , 14-O ) :   1.4338 B(  6-C ,  7-N ) :   1.2008 B(  6-C ,  8-N ) :   0.9243 
B(  6-C ,  9-H ) :  -0.1130 B(  6-C , 10-H ) :  -0.1127 B(  6-C , 12-H ) :  -0.1469 
B(  6-C , 26-H ) :   0.2147 B(  6-C , 27-H ) :   0.1608 B(  7-N ,  8-N ) :   0.1946 
B(  7-N , 11-H ) :   1.0518 B(  7-N , 12-H ) :   1.0853 B(  8-N ,  9-H ) :   1.1597 
B(  8-N , 10-H ) :   1.2620 B(  9-H , 10-H ) :  -0.1928 B( 11-H , 12-H ) :  -0.1496 
B( 11-H , 13-O ) :   0.2745 B( 15-C , 16-C ) :   1.1890 B( 15-C , 17-H ) :   0.8927 
B( 15-C , 18-H ) :   0.7112 B( 15-C , 20-H ) :   0.1519 B( 15-C , 26-H ) :   0.1423 
B( 15-C , 27-H ) :   0.1068 B( 16-C , 18-H ) :   0.1990 B( 16-C , 19-C ) :   1.1721 
B( 16-C , 20-H ) :   0.8409 B( 16-C , 21-H ) :   0.8961 B( 16-C , 22-H ) :   0.1116 
B( 16-C , 23-H ) :   0.2503 B( 17-H , 18-H ) :  -0.1386 B( 19-C , 20-H ) :   0.1307 
B( 19-C , 22-H ) :   0.8553 B( 19-C , 23-H ) :   0.8291 B( 19-C , 24-H ) :   0.2074 
B( 19-C , 25-H ) :   0.2195 B( 22-H , 26-H ) :   0.1298 B( 24-H , 25-H ) :  -0.1435 


-------
TIMINGS
-------

Total SCF time: 0 days 0 hours 2 min 15 sec 

Total time                  ....     135.711 sec
Sum of individual times     ....     135.260 sec  ( 99.7%)

Fock matrix formation       ....     131.228 sec  ( 96.7%)
  Split-RI-J                ....       7.708 sec  (  5.9% of F)
  Chain of spheres X        ....      87.283 sec  ( 66.5% of F)
  XC integration            ....      36.094 sec  ( 27.5% of F)
    Basis function eval.    ....       4.612 sec  ( 12.8% of XC)
    Density eval.           ....      13.925 sec  ( 38.6% of XC)
    XC-Functional eval.     ....       1.016 sec  (  2.8% of XC)
    XC-Potential eval.      ....      15.933 sec  ( 44.1% of XC)
Diagonalization             ....       0.286 sec  (  0.2%)
Density matrix formation    ....       0.022 sec  (  0.0%)
Population analysis         ....       0.032 sec  (  0.0%)
Initial guess               ....       0.674 sec  (  0.5%)
Orbital Transformation      ....       0.000 sec  (  0.0%)
Orbital Orthonormalization  ....       0.000 sec  (  0.0%)
DIIS solution               ....       0.144 sec  (  0.1%)
SOSCF solution              ....       0.203 sec  (  0.1%)
Grid generation             ....       2.670 sec  (  2.0%)

Maximum memory used throughout the entire SCF-calculation: 79.8 MB


-------------------------------------------------------------------------------
                          DFT DISPERSION CORRECTION                            
                                                                               
                              DFTD3 V3.1  Rev 1                                
                              USING zero damping                               
-------------------------------------------------------------------------------
The M062X functional is recognized
Active option DFTDOPT                   ...         3   

molecular C6(AA) [au] = 6187.788991 


            DFT-D V3
 parameters
 s6 scaling factor         :     1.0000 
 rs6 scaling factor        :     1.6190 
 s8 scaling factor         :     0.0000 
 rs8 scaling factor        :     1.0000 
 Damping factor alpha6     :    14.0000 
 Damping factor alpha8     :    16.0000 
 ad hoc parameters k1-k3   :    16.0000     1.3333    -4.0000 

 Edisp/kcal,au: -0.874279652481  -0.001393253162 
 E6   /kcal   :  -0.874279652 
 E8   /kcal   :  -0.000000000 
 % E8         :   0.000000000 

-------------------------   ----------------
Dispersion correction           -0.001393253
-------------------------   ----------------


-------------------------   --------------------
FINAL SINGLE POINT ENERGY      -573.814061375169
-------------------------   --------------------


                            ***************************************
                            *     ORCA property calculations      *
                            ***************************************

                                    ---------------------
                                    Active property flags
                                    ---------------------
   (+) Dipole Moment


------------------------------------------------------------------------------
                       ORCA ELECTRIC PROPERTIES CALCULATION
------------------------------------------------------------------------------

Dipole Moment Calculation                       ... on
Quadrupole Moment Calculation                   ... off
Polarizability Calculation                      ... off
GBWName                                         ... 28Oct_SVPD_M062X_B_wt_wb97.gbw
Electron density file                           ... 28Oct_SVPD_M062X_B_wt_wb97.scfp
The origin for moment calculation is the CENTER OF MASS  = ( 2.553412, -2.137730 -6.853215)

-------------
DIPOLE MOMENT
-------------
                                X             Y             Z
Electronic contribution:      1.73745      -2.91832      -8.77702
Nuclear contribution   :      1.39386       1.90489      10.36520
                        -----------------------------------------
Total Dipole Moment    :      3.13131      -1.01342       1.58819
                        -----------------------------------------
Magnitude (a.u.)       :      3.65437
Magnitude (Debye)      :      9.28868



--------------------
Rotational spectrum 
--------------------
 
Rotational constants in cm-1:     0.041165     0.025922     0.019001 
Rotational constants in MHz :  1234.086888   777.109255   569.639629 

 Dipole components along the rotational axes: 
x,y,z [a.u.] :     3.268833    -1.498511     0.650878 
x,y,z [Debye]:     8.308713    -3.808913     1.654401 

 

Timings for individual modules:

Sum of individual times         ...      136.739 sec (=   2.279 min)
GTO integral calculation        ...        0.676 sec (=   0.011 min)   0.5 %
SCF iterations                  ...      136.063 sec (=   2.268 min)  99.5 %
                             ****ORCA TERMINATED NORMALLY****
TOTAL RUN TIME: 0 days 0 hours 2 minutes 17 seconds 341 msec
