
                                        *****************
                                        * O   R   C   A *
                                        *****************

                                            #,                                       
                                            ###                                      
                                            ####                                     
                                            #####                                    
                                            ######                                   
                                           ########,                                 
                                     ,,################,,,,,                         
                               ,,#################################,,                 
                          ,,##########################################,,             
                       ,#########################################, ''#####,          
                    ,#############################################,,   '####,        
                  ,##################################################,,,,####,       
                ,###########''''           ''''###############################       
              ,#####''   ,,,,##########,,,,          '''####'''          '####       
            ,##' ,,,,###########################,,,                        '##       
           ' ,,###''''                  '''############,,,                           
         ,,##''                                '''############,,,,        ,,,,,,###''
      ,#''                                            '''#######################'''  
     '                                                          ''''####''''         
             ,#######,   #######,   ,#######,      ##                                
            ,#'     '#,  ##    ##  ,#'     '#,    #''#        ######   ,####,        
            ##       ##  ##   ,#'  ##            #'  '#       #        #'  '#        
            ##       ##  #######   ##           ,######,      #####,   #    #        
            '#,     ,#'  ##    ##  '#,     ,#' ,#      #,         ##   #,  ,#        
             '#######'   ##     ##  '#######'  #'      '#     #####' # '####'        



                  #######################################################
                  #                        -***-                        #
                  #          Department of theory and spectroscopy      #
                  #    Directorship and core code : Frank Neese         #
                  #        Max Planck Institute fuer Kohlenforschung    #
                  #                Kaiser Wilhelm Platz 1               #
                  #                 D-45470 Muelheim/Ruhr               #
                  #                      Germany                        #
                  #                                                     #
                  #                  All rights reserved                #
                  #                        -***-                        #
                  #######################################################


                         Program Version 5.0.0 -  RELEASE  -
                                (SVN: $Rev: 19529$)
                ($Date: 2021-06-28 11:36:33 +0200 (Mo, 28 Jun 2021) $)


 With contributions from (in alphabetic order):
   Daniel Aravena         : Magnetic Suceptibility
   Michael Atanasov       : Ab Initio Ligand Field Theory (pilot matlab implementation)
   Alexander A. Auer      : GIAO ZORA, VPT2 properties, NMR spectrum
   Ute Becker             : Parallelization
   Giovanni Bistoni       : ED, misc. LED, open-shell LED, HFLD
   Martin Brehm           : Molecular dynamics
   Dmytro Bykov           : SCF Hessian
   Vijay G. Chilkuri      : MRCI spin determinant printing, contributions to CSF-ICE
   Dipayan Datta          : RHF DLPNO-CCSD density
   Achintya Kumar Dutta   : EOM-CC, STEOM-CC
   Dmitry Ganyushin       : Spin-Orbit,Spin-Spin,Magnetic field MRCI
   Miquel Garcia          : C-PCM Hessian, Gaussian charge scheme
   Yang Guo               : DLPNO-NEVPT2, F12-NEVPT2, CIM, IAO-localization
   Andreas Hansen         : Spin unrestricted coupled pair/coupled cluster methods
   Benjamin Helmich-Paris : MC-RPA, TRAH-SCF, COSX integrals
   Lee Huntington         : MR-EOM, pCC
   Robert Izsak           : Overlap fitted RIJCOSX, COSX-SCS-MP3, EOM
   Marcus Kettner         : VPT2
   Christian Kollmar      : KDIIS, OOCD, Brueckner-CCSD(T), CCSD density, CASPT2, CASPT2-K
   Simone Kossmann        : Meta GGA functionals, TD-DFT gradient, OOMP2, MP2 Hessian
   Martin Krupicka        : Initial AUTO-CI
   Lucas Lang             : DCDCAS
   Marvin Lechner         : AUTO-CI (C++ implementation), FIC-MRCC
   Dagmar Lenk            : GEPOL surface, SMD
   Dimitrios Liakos       : Extrapolation schemes; Compound Job, initial MDCI parallelization
   Dimitrios Manganas     : Further ROCIS development; embedding schemes
   Dimitrios Pantazis     : SARC Basis sets
   Anastasios Papadopoulos: AUTO-CI, single reference methods and gradients
   Taras Petrenko         : DFT Hessian,TD-DFT gradient, ASA, ECA, R-Raman, ABS, FL, XAS/XES, NRVS
   Peter Pinski           : DLPNO-MP2, DLPNO-MP2 Gradient
   Christoph Reimann      : Effective Core Potentials
   Marius Retegan         : Local ZFS, SOC
   Christoph Riplinger    : Optimizer, TS searches, QM/MM, DLPNO-CCSD(T), (RO)-DLPNO pert. Triples
   Tobias Risthaus        : Range-separated hybrids, TD-DFT gradient, RPA, STAB
   Michael Roemelt        : Original ROCIS implementation
   Masaaki Saitow         : Open-shell DLPNO-CCSD energy and density
   Barbara Sandhoefer     : DKH picture change effects
   Avijit Sen             : IP-ROCIS
   Kantharuban Sivalingam : CASSCF convergence, NEVPT2, FIC-MRCI
   Bernardo de Souza      : ESD, SOC TD-DFT
   Georgi Stoychev        : AutoAux, RI-MP2 NMR
   Willem Van den Heuvel  : Paramagnetic NMR
   Boris Wezisla          : Elementary symmetry handling
   Frank Wennmohs         : Technical directorship


 We gratefully acknowledge several colleagues who have allowed us to
 interface, adapt or use parts of their codes:
   Stefan Grimme, W. Hujo, H. Kruse, P. Pracht,  : VdW corrections, initial TS optimization,
                  C. Bannwarth, S. Ehlert          DFT functionals, gCP, sTDA/sTD-DF
   Ed Valeev, F. Pavosevic, A. Kumar             : LibInt (2-el integral package), F12 methods
   Garnet Chan, S. Sharma, J. Yang, R. Olivares  : DMRG
   Ulf Ekstrom                                   : XCFun DFT Library
   Mihaly Kallay                                 : mrcc  (arbitrary order and MRCC methods)
   Jiri Pittner, Ondrej Demel                    : Mk-CCSD
   Frank Weinhold                                : gennbo (NPA and NBO analysis)
   Christopher J. Cramer and Donald G. Truhlar   : smd solvation model
   Lars Goerigk                                  : TD-DFT with DH, B97 family of functionals
   V. Asgeirsson, H. Jonsson                     : NEB implementation
   FAccTs GmbH                                   : IRC, NEB, NEB-TS, DLPNO-Multilevel, CI-OPT
                                                   MM, QMMM, 2- and 3-layer-ONIOM, Crystal-QMMM,
                                                   LR-CPCM, SF, NACMEs, symmetry and pop. for TD-DFT,
                                                   nearIR, NL-DFT gradient (VV10), updates on ESD,
                                                   ML-optimized integration grids
   S Lehtola, MJT Oliveira, MAL Marques          : LibXC Library
   Liviu Ungur et al                             : ANISO software


 Your calculation uses the libint2 library for the computation of 2-el integrals
 For citations please refer to: http://libint.valeyev.net

 Your ORCA version has been built with support for libXC version: 5.1.0
 For citations please refer to: https://tddft.org/programs/libxc/

 This ORCA versions uses:
   CBLAS   interface :  Fast vector & matrix operations
   LAPACKE interface :  Fast linear algebra routines
   SCALAPACK package :  Parallel linear algebra routines
   Shared memory     :  Shared parallel matrices
   BLAS/LAPACK       :  OpenBLAS 0.3.15  USE64BITINT DYNAMIC_ARCH NO_AFFINITY Haswell SINGLE_THREADED
        Core in use  :  Haswell
   Copyright (c) 2011-2014, The OpenBLAS Project


Your calculation utilizes the atom-pairwise dispersion correction
with the Becke-Johnson damping scheme (D3BJ)
Cite in your paper:
S.Grimme, S.Ehrlich, L.Goerigk, J Comput Chem, (2011), 32, 1456–1465 
S.Grimme, J.Antony, S.Ehrlich and H.Krieg, J.Chem.Phys., 132, (2010), 154104 
   

================================================================================

----- Orbital basis set information -----
Your calculation utilizes the basis: def2-TZVP
   F. Weigend and R. Ahlrichs, Phys. Chem. Chem. Phys. 7, 3297 (2005).

----- AuxJ basis set information -----
Your calculation utilizes the auxiliary basis: def2/J
   F. Weigend, Phys. Chem. Chem. Phys. 8, 1057 (2006).

================================================================================
                                        WARNINGS
                       Please study these warnings very carefully!
================================================================================



WARNING: Found flag for RIJCOSX approximation but no HF exchange needed!
  ===> : RIJCOSX  will be disabled and Split-RI-J is turned on

INFO   : the flag for use of the SHARK integral package has been found!

================================================================================
                                       INPUT FILE
================================================================================
NAME = TZVP_PBE_C2_wt_dlpno_neg.com
|  1> !PBE D3BJ RIJCOSX def2-TZVP def2/J TightSCF
|  2> *xyz 0 1 
|  3> C         -0.10608        1.76991       -4.08984
|  4> C         -0.25875        1.00432       -5.40983
|  5> C          0.39596       -0.37070       -5.33994
|  6> H          0.23915        1.56939       -6.20125
|  7> H         -1.30936        0.88869       -5.68245
|  8> O         -0.32633       -1.39040       -5.49128
|  9> F          1.61941       -0.40073       -5.03683
| 10> H         -0.57627        2.72718       -4.17630
| 11> H          0.93321        1.90140       -3.87192
| 12> H         -0.56868        1.21534       -3.30031
| 13> *
| 14> %MaxCore 64000
| 15> 
| 16> %pal nprocs 4
| 17> end  
| 18> 
| 19> %scf
| 20>   MaxIter 150
| 21> end
| 22> 
| 23> 
| 24>                          ****END OF INPUT****
================================================================================

                       ****************************
                       * Single Point Calculation *
                       ****************************

---------------------------------
CARTESIAN COORDINATES (ANGSTROEM)
---------------------------------
  C     -0.106080    1.769910   -4.089840
  C     -0.258750    1.004320   -5.409830
  C      0.395960   -0.370700   -5.339940
  H      0.239150    1.569390   -6.201250
  H     -1.309360    0.888690   -5.682450
  O     -0.326330   -1.390400   -5.491280
  F      1.619410   -0.400730   -5.036830
  H     -0.576270    2.727180   -4.176300
  H      0.933210    1.901400   -3.871920
  H     -0.568680    1.215340   -3.300310

----------------------------
CARTESIAN COORDINATES (A.U.)
----------------------------
  NO LB      ZA    FRAG     MASS         X           Y           Z
   0 C     6.0000    0    12.011   -0.200462    3.344645   -7.728678
   1 C     6.0000    0    12.011   -0.488967    1.897890  -10.223097
   2 C     6.0000    0    12.011    0.748256   -0.700521  -10.091024
   3 H     1.0000    0     1.008    0.451928    2.965717  -11.718664
   4 H     1.0000    0     1.008   -2.474332    1.679381  -10.738274
   5 O     8.0000    0    15.999   -0.616674   -2.627475  -10.377015
   6 F     9.0000    0    18.998    3.060241   -0.757270   -9.518229
   7 H     1.0000    0     1.008   -1.088992    5.153623   -7.892063
   8 H     1.0000    0     1.008    1.763511    3.593125   -7.316868
   9 H     1.0000    0     1.008   -1.074649    2.296660   -6.236682

--------------------------------
INTERNAL COORDINATES (ANGSTROEM)
--------------------------------
 C      0   0   0     0.000000000000     0.00000000     0.00000000
 C      1   0   0     1.533561142276     0.00000000     0.00000000
 C      2   1   0     1.524535928275   111.59549479     0.00000000
 H      2   1   3     1.092499030343   108.65959152   241.39604748
 H      2   1   3     1.091546303828   111.32615887   122.32181944
 O      3   2   1     1.258727424703   118.60144394   118.44579200
 F      3   2   1     1.260796325938   116.69439283   303.37508509
 H      1   2   3     1.070009261923   109.47089552   180.00008670
 H      1   2   3     1.070001145140   109.47186238    60.00011054
 H      1   2   3     1.070001993363   109.47130051   299.99920492

---------------------------
INTERNAL COORDINATES (A.U.)
---------------------------
 C      0   0   0     0.000000000000     0.00000000     0.00000000
 C      1   0   0     2.898010568526     0.00000000     0.00000000
 C      2   1   0     2.880955385762   111.59549479     0.00000000
 H      2   1   3     2.064523968922   108.65959152   241.39604748
 H      2   1   3     2.062723576728   111.32615887   122.32181944
 O      3   2   1     2.378650109945   118.60144394   118.44579200
 F      3   2   1     2.382559766678   116.69439283   303.37508509
 H      1   2   3     2.022024465793   109.47089552   180.00008670
 H      1   2   3     2.022009127296   109.47186238    60.00011054
 H      1   2   3     2.022010730205   109.47130051   299.99920492

---------------------
BASIS SET INFORMATION
---------------------
There are 4 groups of distinct atoms

 Group   1 Type C   : 11s6p2d1f contracted to 5s3p2d1f pattern {62111/411/11/1}
 Group   2 Type H   : 5s1p contracted to 3s1p pattern {311/1}
 Group   3 Type O   : 11s6p2d1f contracted to 5s3p2d1f pattern {62111/411/11/1}
 Group   4 Type F   : 11s6p2d1f contracted to 5s3p2d1f pattern {62111/411/11/1}

Atom   0C    basis set group =>   1
Atom   1C    basis set group =>   1
Atom   2C    basis set group =>   1
Atom   3H    basis set group =>   2
Atom   4H    basis set group =>   2
Atom   5O    basis set group =>   3
Atom   6F    basis set group =>   4
Atom   7H    basis set group =>   2
Atom   8H    basis set group =>   2
Atom   9H    basis set group =>   2
---------------------------------
AUXILIARY/J BASIS SET INFORMATION
---------------------------------
There are 4 groups of distinct atoms

 Group   1 Type C   : 12s5p4d2f1g contracted to 6s4p3d1f1g pattern {711111/2111/211/2/1}
 Group   2 Type H   : 5s2p1d contracted to 3s1p1d pattern {311/2/1}
 Group   3 Type O   : 12s5p4d2f1g contracted to 6s4p3d1f1g pattern {711111/2111/211/2/1}
 Group   4 Type F   : 12s5p4d2f1g contracted to 6s4p3d1f1g pattern {711111/2111/211/2/1}

Atom   0C    basis set group =>   1
Atom   1C    basis set group =>   1
Atom   2C    basis set group =>   1
Atom   3H    basis set group =>   2
Atom   4H    basis set group =>   2
Atom   5O    basis set group =>   3
Atom   6F    basis set group =>   4
Atom   7H    basis set group =>   2
Atom   8H    basis set group =>   2
Atom   9H    basis set group =>   2


           ************************************************************
           *        Program running with 4 parallel MPI-processes     *
           *              working on a common directory               *
           ************************************************************
------------------------------------------------------------------------------
                           ORCA GTO INTEGRAL CALCULATION
                           -- RI-GTO INTEGRALS CHOSEN --
------------------------------------------------------------------------------
------------------------------------------------------------------------------
                   ___                                                        
                  /   \      - P O W E R E D   B Y -                         
                 /     \                                                     
                 |  |  |   _    _      __       _____    __    __             
                 |  |  |  | |  | |    /  \     |  _  \  |  |  /  |          
                  \  \/   | |  | |   /    \    | | | |  |  | /  /          
                 / \  \   | |__| |  /  /\  \   | |_| |  |  |/  /          
                |  |  |   |  __  | /  /__\  \  |    /   |      \           
                |  |  |   | |  | | |   __   |  |    \   |  |\   \          
                \     /   | |  | | |  |  |  |  | |\  \  |  | \   \       
                 \___/    |_|  |_| |__|  |__|  |_| \__\ |__|  \__/        
                                                                              
                      - O R C A' S   B I G   F R I E N D -                    
                                      &                                       
                       - I N T E G R A L  F E E D E R -                       
                                                                              
 v1 FN, 2020, v2 2021                                                         
------------------------------------------------------------------------------


Reading SHARK input file TZVP_PBE_C2_wt_dlpno_neg.SHARKINP.tmp ... ok
----------------------
SHARK INTEGRAL PACKAGE
----------------------

Number of atoms                             ...     10
Number of basis functions                   ...    185
Number of shells                            ...     75
Maximum angular momentum                    ...      3
Integral batch strategy                     ... SHARK/LIBINT Hybrid
RI-J (if used) integral strategy            ... SPLIT-RIJ (Revised 2003 algorithm where possible)
Printlevel                                  ...      1
Contraction scheme used                     ... SEGMENTED contraction
Coulomb Range Separation                    ... NOT USED
Exchange Range Separation                   ... NOT USED
Finite Nucleus Model                        ... NOT USED
Auxiliary Coulomb fitting basis             ... AVAILABLE
   # of basis functions in Aux-J            ...    300
   # of shells in Aux-J                     ...    100
   Maximum angular momentum in Aux-J        ...      4
Auxiliary J/K fitting basis                 ... NOT available
Auxiliary Correlation fitting basis         ... NOT available
Auxiliary 'external' fitting basis          ... NOT available
Integral threshold                          ...     2.500000e-11
Primitive cut-off                           ...     2.500000e-12
Primitive pair pre-selection threshold      ...     2.500000e-12

Calculating pre-screening integrals         ... done (  0.1 sec) Dimension = 75
Organizing shell pair data                  ... done (  0.0 sec)
Shell pair information
Total number of shell pairs                 ...      2850
Shell pairs after pre-screening             ...      2732
Total number of primitive shell pairs       ...      8640
Primitive shell pairs kept                  ...      6579
          la=0 lb=0:    762 shell pairs
          la=1 lb=0:    775 shell pairs
          la=1 lb=1:    208 shell pairs
          la=2 lb=0:    381 shell pairs
          la=2 lb=1:    197 shell pairs
          la=2 lb=2:     55 shell pairs
          la=3 lb=0:    190 shell pairs
          la=3 lb=1:     99 shell pairs
          la=3 lb=2:     50 shell pairs
          la=3 lb=3:     15 shell pairs

Calculating one electron integrals          ... done (  0.0 sec)
Calculating RI/J V-Matrix + Cholesky decomp.... done (  0.0 sec)
Calculating Nuclear repulsion               ... done (  0.0 sec) ENN=    176.885743759007 Eh

SHARK setup successfully completed in   0.2 seconds

Maximum memory used throughout the entire GTOINT-calculation: 13.8 MB


           ************************************************************
           *        Program running with 4 parallel MPI-processes     *
           *              working on a common directory               *
           ************************************************************
-------------------------------------------------------------------------------
                                 ORCA SCF
-------------------------------------------------------------------------------

------------
SCF SETTINGS
------------
Hamiltonian:
 Density Functional     Method          .... DFT(GTOs)
 Exchange Functional    Exchange        .... PBE
   PBE kappa parameter   XKappa         ....  0.804000
   PBE mue parameter    XMuePBE         ....  0.219520
 Correlation Functional Correlation     .... PBE
   PBE beta parameter  CBetaPBE         ....  0.066725
 LDA part of GGA corr.  LDAOpt          .... PW91-LDA
 Gradients option       PostSCFGGA      .... off
   Density functional embedding theory  .... OFF
   NL short-range parameter             ....  6.400000
 RI-approximation to the Coulomb term is turned on
   Number of AuxJ basis functions       .... 300


General Settings:
 Integral files         IntName         .... TZVP_PBE_C2_wt_dlpno_neg
 Hartree-Fock type      HFTyp           .... RHF
 Total Charge           Charge          ....    0
 Multiplicity           Mult            ....    1
 Number of Electrons    NEL             ....   40
 Basis Dimension        Dim             ....  185
 Nuclear Repulsion      ENuc            ....    176.8857437590 Eh

Convergence Acceleration:
 DIIS                   CNVDIIS         .... on
   Start iteration      DIISMaxIt       ....    12
   Startup error        DIISStart       ....  0.200000
   # of expansion vecs  DIISMaxEq       ....     5
   Bias factor          DIISBfac        ....   1.050
   Max. coefficient     DIISMaxC        ....  10.000
 Trust-Rad. Augm. Hess. CNVTRAH         .... auto
   Auto Start mean grad. ratio tolernc. ....  1.125000
   Auto Start start iteration           ....    20
   Auto Start num. interpolation iter.  ....    10
   Max. Number of Micro iterations      ....    16
   Max. Number of Macro iterations      .... Maxiter - #DIIS iter
   Number of Davidson start vectors     ....     2
   Converg. threshold I  (grad. norm)   ....   1.000e-05
   Converg. threshold II (energy diff.) ....   1.000e-08
   Grad. Scal. Fac. for Micro threshold ....   0.100
   Minimum threshold for Micro iter.    ....   0.010
   NR start threshold (gradient norm)   ....   0.001
   Initial trust radius                 ....   0.400
   Minimum AH scaling param. (alpha)    ....   1.000
   Maximum AH scaling param. (alpha)    .... 1000.000
   Orbital update algorithm             .... Taylor
   White noise on init. David. guess    .... on
   Maximum white noise                  ....   0.010
   Quad. conv. algorithm                .... NR
 SOSCF                  CNVSOSCF        .... on
   Start iteration      SOSCFMaxIt      ....   150
   Startup grad/error   SOSCFStart      ....  0.003300
 Level Shifting         CNVShift        .... on
   Level shift para.    LevelShift      ....    0.2500
   Turn off err/grad.   ShiftErr        ....    0.0010
 Zerner damping         CNVZerner       .... off
 Static damping         CNVDamp         .... on
   Fraction old density DampFac         ....    0.7000
   Max. Damping (<1)    DampMax         ....    0.9800
   Min. Damping (>=0)   DampMin         ....    0.0000
   Turn off err/grad.   DampErr         ....    0.1000
 Fernandez-Rico         CNVRico         .... off

SCF Procedure:
 Maximum # iterations   MaxIter         ....   150
 SCF integral mode      SCFMode         .... Direct
   Integral package                     .... SHARK and LIBINT hybrid scheme
 Reset frequency        DirectResetFreq ....    20
 Integral Threshold     Thresh          ....  2.500e-11 Eh
 Primitive CutOff       TCut            ....  2.500e-12 Eh

Convergence Tolerance:
 Convergence Check Mode ConvCheckMode   .... Total+1el-Energy
 Convergence forced     ConvForced      .... 0
 Energy Change          TolE            ....  1.000e-08 Eh
 1-El. energy change                    ....  1.000e-05 Eh
 Orbital Gradient       TolG            ....  1.000e-05
 Orbital Rotation angle TolX            ....  1.000e-05
 DIIS Error             TolErr          ....  5.000e-07


Diagonalization of the overlap matrix:
Smallest eigenvalue                        ... 3.785e-04
Time for diagonalization                   ...    0.009 sec
Threshold for overlap eigenvalues          ... 1.000e-08
Number of eigenvalues below threshold      ... 0
Time for construction of square roots      ...    0.006 sec
Total time needed                          ...    0.015 sec

Time for model grid setup =    0.063 sec

------------------------------
INITIAL GUESS: MODEL POTENTIAL
------------------------------
Loading Hartree-Fock densities                     ... done
Calculating cut-offs                               ... done
Initializing the effective Hamiltonian             ... done
Setting up the integral package (SHARK)            ... done
Starting the Coulomb interaction                   ... done (   0.0 sec)
Reading the grid                                   ... done
Mapping shells                                     ... done
Starting the XC term evaluation                    ... done (   0.1 sec)
  promolecular density results
     # of electrons  =     39.998587332
     EX              =    -34.955601377
     EC              =     -1.329728756
     EX+EC           =    -36.285330133
Transforming the Hamiltonian                       ... done (   0.0 sec)
Diagonalizing the Hamiltonian                      ... done (   0.0 sec)
Back transforming the eigenvectors                 ... done (   0.0 sec)
Now organizing SCF variables                       ... done
                      ------------------
                      INITIAL GUESS DONE (   0.2 sec)
                      ------------------
-------------------
DFT GRID GENERATION
-------------------

General Integration Accuracy     IntAcc      ... 4.388
Radial Grid Type                 RadialGrid  ... OptM3 with GC (2021)
Angular Grid (max. ang.)         AngularGrid ... 4 (Lebedev-302)
Angular grid pruning method      GridPruning ... 4 (adaptive)
Weight generation scheme         WeightScheme... Becke
Basis function cutoff            BFCut       ... 1.0000e-11
Integration weight cutoff        WCut        ... 1.0000e-14
Angular grids for H and He will be reduced by one unit
Partially contracted basis set               ... off
Rotationally invariant grid construction     ... off

Total number of grid points                  ...    46575
Total number of batches                      ...      733
Average number of points per batch           ...       63
Average number of grid points per atom       ...     4658
Time for grid setup =    0.313 sec

--------------
SCF ITERATIONS
--------------
ITER       Energy         Delta-E        Max-DP      RMS-DP      [F,P]     Damp
               ***  Starting incremental Fock matrix formation  ***
  0   -291.9811360283   0.000000000000 0.10612192  0.00193831  0.3000155 0.7000
  1   -292.0893017469  -0.108165718593 0.06407196  0.00112791  0.0864091 0.7000
                               ***Turning on DIIS***
  2   -292.1137486525  -0.024446905613 0.04481963  0.00133878  0.0445278 0.0000
  3   -292.1761624622  -0.062413809651 0.05542505  0.00084182  0.0568764 0.0000
  4   -292.1835303651  -0.007367902974 0.01041237  0.00026195  0.0422341 0.0000
  5   -292.1864779171  -0.002947551929 0.00340974  0.00010055  0.0099094 0.0000
  6   -292.1866589592  -0.000181042111 0.00119069  0.00003752  0.0033586 0.0000
                      *** Initiating the SOSCF procedure ***
                           *** Shutting down DIIS ***
                      *** Re-Reading the Fockian *** 
                      *** Removing any level shift *** 
ITER      Energy       Delta-E        Grad      Rot      Max-DP    RMS-DP
  7   -292.18667475  -0.0000157930  0.000265  0.000265  0.000517  0.000015
               *** Restarting incremental Fock matrix formation ***
  8   -292.18667659  -0.0000018411  0.000169  0.000692  0.000506  0.000015
  9   -292.18667433   0.0000022660  0.000730  0.000748  0.000482  0.000010
 10   -292.18667695  -0.0000026222  0.000057  0.000137  0.000158  0.000004
 11   -292.18667681   0.0000001427  0.000116  0.000092  0.000094  0.000002
 12   -292.18667700  -0.0000001968  0.000006  0.000014  0.000029  0.000001
 13   -292.18667700   0.0000000021  0.000008  0.000009  0.000018  0.000000
                  ***Gradient check signals convergence***
              ***Rediagonalizing the Fockian in SOSCF/NRSCF***

               *****************************************************
               *                     SUCCESS                       *
               *           SCF CONVERGED AFTER  14 CYCLES          *
               *****************************************************


----------------
TOTAL SCF ENERGY
----------------

Total Energy       :         -292.18667701 Eh           -7950.80369 eV

Components:
Nuclear Repulsion  :          176.88574376 Eh            4813.30579 eV
Electronic Energy  :         -469.07242077 Eh          -12764.10948 eV
One Electron Energy:         -750.25721271 Eh          -20415.53666 eV
Two Electron Energy:          281.18479195 Eh            7651.42718 eV

Virial components:
Potential Energy   :         -583.35356519 Eh          -15873.85752 eV
Kinetic Energy     :          291.16688819 Eh            7923.05383 eV
Virial Ratio       :            2.00350242


DFT components:
N(Alpha)           :       20.000002065440 electrons
N(Beta)            :       20.000002065440 electrons
N(Total)           :       40.000004130880 electrons
E(X)               :      -35.537656457762 Eh       
E(C)               :       -1.332541636254 Eh       
E(XC)              :      -36.870198094016 Eh       
DFET-embed. en.    :        0.000000000000 Eh       

---------------
SCF CONVERGENCE
---------------

  Last Energy change         ...   -4.5902e-09  Tolerance :   1.0000e-08
  Last MAX-Density change    ...    4.8406e-06  Tolerance :   1.0000e-07
  Last RMS-Density change    ...    1.3112e-07  Tolerance :   5.0000e-09
  Last Orbital Gradient      ...    9.2999e-07  Tolerance :   1.0000e-05
  Last Orbital Rotation      ...    2.0018e-06  Tolerance :   1.0000e-05

             **** THE GBW FILE WAS UPDATED (TZVP_PBE_C2_wt_dlpno_neg.gbw) ****
             **** DENSITY TZVP_PBE_C2_wt_dlpno_neg.scfp WAS UPDATED ****
             **** ENERGY FILE WAS UPDATED (TZVP_PBE_C2_wt_dlpno_neg.en.tmp) ****
             **** THE GBW FILE WAS UPDATED (TZVP_PBE_C2_wt_dlpno_neg.gbw) ****
             **** DENSITY TZVP_PBE_C2_wt_dlpno_neg.scfp WAS UPDATED ****
----------------
ORBITAL ENERGIES
----------------

  NO   OCC          E(Eh)            E(eV) 
   0   2.0000     -24.321894      -661.8324 
   1   2.0000     -18.750438      -510.2254 
   2   2.0000     -10.044777      -273.3323 
   3   2.0000      -9.911990      -269.7190 
   4   2.0000      -9.889413      -269.1046 
   5   2.0000      -1.210132       -32.9294 
   6   2.0000      -0.940391       -25.5893 
   7   2.0000      -0.732236       -19.9252 
   8   2.0000      -0.619923       -16.8690 
   9   2.0000      -0.577882       -15.7250 
  10   2.0000      -0.487687       -13.2706 
  11   2.0000      -0.474589       -12.9142 
  12   2.0000      -0.444198       -12.0872 
  13   2.0000      -0.415090       -11.2952 
  14   2.0000      -0.384979       -10.4758 
  15   2.0000      -0.356961        -9.7134 
  16   2.0000      -0.335800        -9.1376 
  17   2.0000      -0.332476        -9.0471 
  18   2.0000      -0.308617        -8.3979 
  19   2.0000      -0.238466        -6.4890 
  20   0.0000      -0.063970        -1.7407 
  21   0.0000       0.010381         0.2825 
  22   0.0000       0.053049         1.4435 
  23   0.0000       0.067191         1.8284 
  24   0.0000       0.081540         2.2188 
  25   0.0000       0.089180         2.4267 
  26   0.0000       0.094766         2.5787 
  27   0.0000       0.132423         3.6034 
  28   0.0000       0.141488         3.8501 
  29   0.0000       0.167020         4.5448 
  30   0.0000       0.183641         4.9971 
  31   0.0000       0.193508         5.2656 
  32   0.0000       0.217207         5.9105 
  33   0.0000       0.238200         6.4818 
  34   0.0000       0.263792         7.1782 
  35   0.0000       0.303345         8.2544 
  36   0.0000       0.323213         8.7951 
  37   0.0000       0.338330         9.2064 
  38   0.0000       0.342189         9.3114 
  39   0.0000       0.365462         9.9447 
  40   0.0000       0.376053        10.2329 
  41   0.0000       0.381208        10.3732 
  42   0.0000       0.403799        10.9879 
  43   0.0000       0.413914        11.2632 
  44   0.0000       0.429553        11.6887 
  45   0.0000       0.448395        12.2014 
  46   0.0000       0.479780        13.0555 
  47   0.0000       0.481871        13.1124 
  48   0.0000       0.524949        14.2846 
  49   0.0000       0.553405        15.0589 
  50   0.0000       0.564301        15.3554 
  51   0.0000       0.576893        15.6981 
  52   0.0000       0.643238        17.5034 
  53   0.0000       0.675775        18.3888 
  54   0.0000       0.741913        20.1885 
  55   0.0000       0.757588        20.6150 
  56   0.0000       0.773854        21.0576 
  57   0.0000       0.809984        22.0408 
  58   0.0000       0.834760        22.7150 
  59   0.0000       0.874693        23.8016 
  60   0.0000       0.911005        24.7897 
  61   0.0000       0.935155        25.4469 
  62   0.0000       0.955318        25.9955 
  63   0.0000       0.967008        26.3136 
  64   0.0000       1.012406        27.5490 
  65   0.0000       1.020167        27.7602 
  66   0.0000       1.078460        29.3464 
  67   0.0000       1.099951        29.9312 
  68   0.0000       1.175497        31.9869 
  69   0.0000       1.261846        34.3366 
  70   0.0000       1.344752        36.5926 
  71   0.0000       1.353194        36.8223 
  72   0.0000       1.406944        38.2849 
  73   0.0000       1.438666        39.1481 
  74   0.0000       1.446713        39.3671 
  75   0.0000       1.463356        39.8199 
  76   0.0000       1.492132        40.6030 
  77   0.0000       1.504170        40.9306 
  78   0.0000       1.529179        41.6111 
  79   0.0000       1.567148        42.6443 
  80   0.0000       1.631800        44.4035 
  81   0.0000       1.689583        45.9759 
  82   0.0000       1.704511        46.3821 
  83   0.0000       1.737230        47.2724 
  84   0.0000       1.751099        47.6498 
  85   0.0000       1.767864        48.1060 
  86   0.0000       1.845773        50.2260 
  87   0.0000       1.861418        50.6518 
  88   0.0000       1.913318        52.0640 
  89   0.0000       1.940784        52.8114 
  90   0.0000       1.966266        53.5048 
  91   0.0000       2.047154        55.7059 
  92   0.0000       2.068072        56.2751 
  93   0.0000       2.114443        57.5369 
  94   0.0000       2.161987        58.8307 
  95   0.0000       2.206125        60.0317 
  96   0.0000       2.244453        61.0747 
  97   0.0000       2.255137        61.3654 
  98   0.0000       2.270598        61.7861 
  99   0.0000       2.312462        62.9253 
 100   0.0000       2.337587        63.6090 
 101   0.0000       2.364226        64.3339 
 102   0.0000       2.387967        64.9799 
 103   0.0000       2.463886        67.0457 
 104   0.0000       2.487008        67.6749 
 105   0.0000       2.493363        67.8478 
 106   0.0000       2.523975        68.6808 
 107   0.0000       2.539486        69.1029 
 108   0.0000       2.570849        69.9564 
 109   0.0000       2.633936        71.6730 
 110   0.0000       2.648538        72.0704 
 111   0.0000       2.709697        73.7346 
 112   0.0000       2.747363        74.7596 
 113   0.0000       2.781697        75.6938 
 114   0.0000       2.812455        76.5308 
 115   0.0000       2.850890        77.5767 
 116   0.0000       2.896303        78.8124 
 117   0.0000       2.929514        79.7161 
 118   0.0000       2.933885        79.8351 
 119   0.0000       2.946957        80.1908 
 120   0.0000       2.998361        81.5896 
 121   0.0000       3.001380        81.6717 
 122   0.0000       3.056136        83.1617 
 123   0.0000       3.079372        83.7940 
 124   0.0000       3.110048        84.6287 
 125   0.0000       3.153019        85.7980 
 126   0.0000       3.186457        86.7079 
 127   0.0000       3.229382        87.8759 
 128   0.0000       3.265700        88.8642 
 129   0.0000       3.274717        89.1096 
 130   0.0000       3.290302        89.5337 
 131   0.0000       3.358530        91.3902 
 132   0.0000       3.385709        92.1298 
 133   0.0000       3.415515        92.9409 
 134   0.0000       3.444620        93.7329 
 135   0.0000       3.524317        95.9015 
 136   0.0000       3.553655        96.6999 
 137   0.0000       3.623516        98.6009 
 138   0.0000       3.680334       100.1470 
 139   0.0000       3.736933       101.6871 
 140   0.0000       3.765015       102.4513 
 141   0.0000       3.789298       103.1120 
 142   0.0000       3.810885       103.6995 
 143   0.0000       3.862041       105.0915 
 144   0.0000       3.937218       107.1372 
 145   0.0000       3.964938       107.8914 
 146   0.0000       4.085792       111.1801 
 147   0.0000       4.220385       114.8425 
 148   0.0000       4.268546       116.1530 
 149   0.0000       4.314407       117.4010 
 150   0.0000       4.390436       119.4698 
 151   0.0000       4.456025       121.2546 
 152   0.0000       4.501806       122.5004 
 153   0.0000       4.619215       125.6952 
 154   0.0000       4.676636       127.2577 
 155   0.0000       4.943210       134.5116 
 156   0.0000       5.062827       137.7665 
 157   0.0000       5.096828       138.6917 
 158   0.0000       5.364302       145.9701 
 159   0.0000       5.453333       148.3927 
 160   0.0000       5.815883       158.2582 
 161   0.0000       5.992867       163.0742 
 162   0.0000       6.077527       165.3779 
 163   0.0000       6.198840       168.6790 
 164   0.0000       6.293522       171.2554 
 165   0.0000       6.602611       179.6662 
 166   0.0000       6.672327       181.5633 
 167   0.0000       6.677410       181.7016 
 168   0.0000       6.703467       182.4106 
 169   0.0000       6.832255       185.9151 
 170   0.0000       6.913672       188.1306 
 171   0.0000       6.995069       190.3455 
 172   0.0000       7.174299       195.2226 
 173   0.0000       7.322126       199.2452 
 174   0.0000       7.654775       208.2970 
 175   0.0000       8.152661       221.8452 
 176   0.0000       8.237369       224.1502 
 177   0.0000       8.616923       234.4784 
 178   0.0000       8.780637       238.9333 
 179   0.0000       8.800738       239.4803 
 180   0.0000      22.076902       600.7430 
 181   0.0000      22.140077       602.4621 
 182   0.0000      22.910364       623.4227 
 183   0.0000      43.346940      1179.5302 
 184   0.0000      56.712962      1543.2381 

                    ********************************
                    * MULLIKEN POPULATION ANALYSIS *
                    ********************************

-----------------------
MULLIKEN ATOMIC CHARGES
-----------------------
   0 C :   -0.358161
   1 C :   -0.192287
   2 C :    0.290894
   3 H :    0.111508
   4 H :    0.127322
   5 O :   -0.291035
   6 F :   -0.068694
   7 H :    0.127798
   8 H :    0.123620
   9 H :    0.129035
Sum of atomic charges:   -0.0000000

--------------------------------
MULLIKEN REDUCED ORBITAL CHARGES
--------------------------------
  0 C s       :     3.247391  s :     3.247391
      pz      :     0.957267  p :     3.059945
      px      :     1.066035
      py      :     1.036643
      dz2     :     0.014874  d :     0.047721
      dxz     :     0.012264
      dyz     :     0.008975
      dx2y2   :     0.007068
      dxy     :     0.004540
      f0      :     0.000693  f :     0.003104
      f+1     :     0.000443
      f-1     :     0.000702
      f+2     :     0.000335
      f-2     :     0.000436
      f+3     :     0.000482
      f-3     :     0.000014
  1 C s       :     3.180245  s :     3.180245
      pz      :     0.970274  p :     2.925436
      px      :     1.026001
      py      :     0.929162
      dz2     :     0.016649  d :     0.081484
      dxz     :     0.016806
      dyz     :     0.017446
      dx2y2   :     0.017274
      dxy     :     0.013308
      f0      :     0.001012  f :     0.005122
      f+1     :     0.000579
      f-1     :     0.000805
      f+2     :     0.000553
      f-2     :     0.000606
      f+3     :     0.000837
      f-3     :     0.000730
  2 C s       :     3.093278  s :     3.093278
      pz      :     0.771380  p :     2.340068
      px      :     0.674024
      py      :     0.894664
      dz2     :     0.015807  d :     0.249291
      dxz     :     0.047150
      dyz     :     0.037345
      dx2y2   :     0.081702
      dxy     :     0.067286
      f0      :     0.002304  f :     0.026470
      f+1     :     0.002557
      f-1     :     0.001101
      f+2     :     0.003283
      f-2     :     0.002801
      f+3     :     0.003876
      f-3     :     0.010548
  3 H s       :     0.866862  s :     0.866862
      pz      :     0.009045  p :     0.021630
      px      :     0.005773
      py      :     0.006811
  4 H s       :     0.851054  s :     0.851054
      pz      :     0.005243  p :     0.021624
      px      :     0.012257
      py      :     0.004125
  5 O s       :     3.820736  s :     3.820736
      pz      :     1.366457  p :     4.439992
      px      :     1.584654
      py      :     1.488881
      dz2     :     0.002908  d :     0.028678
      dxz     :     0.003318
      dyz     :     0.006799
      dx2y2   :     0.007100
      dxy     :     0.008552
      f0      :     0.000140  f :     0.001629
      f+1     :     0.000072
      f-1     :     0.000122
      f+2     :     0.000061
      f-2     :     0.000361
      f+3     :     0.000404
      f-3     :     0.000469
  6 F s       :     3.887260  s :     3.887260
      pz      :     1.778689  p :     5.161984
      px      :     1.494212
      py      :     1.889082
      dz2     :     0.002287  d :     0.018593
      dxz     :     0.005337
      dyz     :     0.000389
      dx2y2   :     0.006003
      dxy     :     0.004577
      f0      :     0.000074  f :     0.000858
      f+1     :     0.000143
      f-1     :     0.000007
      f+2     :     0.000170
      f-2     :     0.000033
      f+3     :     0.000236
      f-3     :     0.000195
  7 H s       :     0.850151  s :     0.850151
      pz      :     0.004924  p :     0.022050
      px      :     0.006251
      py      :     0.010875
  8 H s       :     0.854518  s :     0.854518
      pz      :     0.005342  p :     0.021862
      px      :     0.011464
      py      :     0.005057
  9 H s       :     0.849206  s :     0.849206
      pz      :     0.009067  p :     0.021759
      px      :     0.006157
      py      :     0.006536


                     *******************************
                     * LOEWDIN POPULATION ANALYSIS *
                     *******************************

----------------------
LOEWDIN ATOMIC CHARGES
----------------------
   0 C :   -0.296024
   1 C :   -0.261665
   2 C :   -0.532402
   3 H :    0.149542
   4 H :    0.151764
   5 O :    0.082130
   6 F :    0.338936
   7 H :    0.122743
   8 H :    0.121319
   9 H :    0.123658

-------------------------------
LOEWDIN REDUCED ORBITAL CHARGES
-------------------------------
  0 C s       :     2.824049  s :     2.824049
      pz      :     1.048205  p :     3.194050
      px      :     1.084394
      py      :     1.061451
      dz2     :     0.069222  d :     0.252602
      dxz     :     0.051606
      dyz     :     0.055396
      dx2y2   :     0.045190
      dxy     :     0.031188
      f0      :     0.004658  f :     0.025322
      f+1     :     0.004692
      f-1     :     0.004454
      f+2     :     0.002768
      f-2     :     0.004535
      f+3     :     0.003441
      f-3     :     0.000775
  1 C s       :     2.793074  s :     2.793074
      pz      :     1.030153  p :     3.071796
      px      :     1.035084
      py      :     1.006559
      dz2     :     0.075074  d :     0.360009
      dxz     :     0.063670
      dyz     :     0.084026
      dx2y2   :     0.078469
      dxy     :     0.058771
      f0      :     0.006471  f :     0.036787
      f+1     :     0.005108
      f-1     :     0.005434
      f+2     :     0.003659
      f-2     :     0.005998
      f+3     :     0.005734
      f-3     :     0.004383
  2 C s       :     2.788397  s :     2.788397
      pz      :     0.752393  p :     2.628554
      px      :     0.853758
      py      :     1.022403
      dz2     :     0.077784  d :     0.944223
      dxz     :     0.155446
      dyz     :     0.109162
      dx2y2   :     0.321968
      dxy     :     0.279863
      f0      :     0.010432  f :     0.171228
      f+1     :     0.017153
      f-1     :     0.007924
      f+2     :     0.022929
      f-2     :     0.018485
      f+3     :     0.029123
      f-3     :     0.065182
  3 H s       :     0.789477  s :     0.789477
      pz      :     0.023922  p :     0.060981
      px      :     0.017968
      py      :     0.019091
  4 H s       :     0.788388  s :     0.788388
      pz      :     0.014082  p :     0.059848
      px      :     0.033922
      py      :     0.011844
  5 O s       :     3.451931  s :     3.451931
      pz      :     1.301803  p :     4.401276
      px      :     1.560401
      py      :     1.539071
      dz2     :     0.007916  d :     0.059580
      dxz     :     0.004669
      dyz     :     0.008558
      dx2y2   :     0.015562
      dxy     :     0.022875
      f0      :     0.000368  f :     0.005083
      f+1     :     0.000354
      f-1     :     0.000554
      f+2     :     0.000133
      f-2     :     0.000697
      f+3     :     0.001591
      f-3     :     0.001387
  6 F s       :     3.546337  s :     3.546337
      pz      :     1.702603  p :     5.074031
      px      :     1.582791
      py      :     1.788638
      dz2     :     0.004721  d :     0.038624
      dxz     :     0.009828
      dyz     :     0.000738
      dx2y2   :     0.013091
      dxy     :     0.010246
      f0      :     0.000173  f :     0.002072
      f+1     :     0.000323
      f-1     :     0.000025
      f+2     :     0.000364
      f-2     :     0.000096
      f+3     :     0.000518
      f-3     :     0.000572
  7 H s       :     0.811716  s :     0.811716
      pz      :     0.014589  p :     0.065541
      px      :     0.019223
      py      :     0.031729
  8 H s       :     0.812829  s :     0.812829
      pz      :     0.015296  p :     0.065852
      px      :     0.035540
      py      :     0.015016
  9 H s       :     0.810715  s :     0.810715
      pz      :     0.025761  p :     0.065626
      px      :     0.019086
      py      :     0.020780


                      *****************************
                      * MAYER POPULATION ANALYSIS *
                      *****************************

  NA   - Mulliken gross atomic population
  ZA   - Total nuclear charge
  QA   - Mulliken gross atomic charge
  VA   - Mayer's total valence
  BVA  - Mayer's bonded valence
  FA   - Mayer's free valence

  ATOM       NA         ZA         QA         VA         BVA        FA
  0 C      6.3582     6.0000    -0.3582     3.9031     3.9031     0.0000
  1 C      6.1923     6.0000    -0.1923     3.8471     3.8471    -0.0000
  2 C      5.7091     6.0000     0.2909     4.3427     4.3427    -0.0000
  3 H      0.8885     1.0000     0.1115     0.9671     0.9671     0.0000
  4 H      0.8727     1.0000     0.1273     0.9847     0.9847    -0.0000
  5 O      8.2910     8.0000    -0.2910     2.1816     2.1816     0.0000
  6 F      9.0687     9.0000    -0.0687     1.2306     1.2306     0.0000
  7 H      0.8722     1.0000     0.1278     0.9680     0.9680     0.0000
  8 H      0.8764     1.0000     0.1236     0.9793     0.9793     0.0000
  9 H      0.8710     1.0000     0.1290     0.9712     0.9712     0.0000

  Mayer bond orders larger than 0.100000
B(  0-C ,  1-C ) :   0.9793 B(  0-C ,  7-H ) :   0.9614 B(  0-C ,  8-H ) :   0.9665 
B(  0-C ,  9-H ) :   0.9688 B(  1-C ,  2-C ) :   1.0201 B(  1-C ,  3-H ) :   0.9245 
B(  1-C ,  4-H ) :   0.9515 B(  2-C ,  5-O ) :   2.0977 B(  2-C ,  6-F ) :   1.1773 


-------
TIMINGS
-------

Total SCF time: 0 days 0 hours 0 min 4 sec 

Total time                  ....       4.524 sec
Sum of individual times     ....       4.339 sec  ( 95.9%)

Fock matrix formation       ....       3.674 sec  ( 81.2%)
  Split-RI-J                ....       0.989 sec  ( 26.9% of F)
  XC integration            ....       2.643 sec  ( 71.9% of F)
    Basis function eval.    ....       0.887 sec  ( 33.6% of XC)
    Density eval.           ....       0.592 sec  ( 22.4% of XC)
    XC-Functional eval.     ....       0.170 sec  (  6.4% of XC)
    XC-Potential eval.      ....       0.775 sec  ( 29.3% of XC)
Diagonalization             ....       0.071 sec  (  1.6%)
Density matrix formation    ....       0.005 sec  (  0.1%)
Population analysis         ....       0.009 sec  (  0.2%)
Initial guess               ....       0.119 sec  (  2.6%)
Orbital Transformation      ....       0.000 sec  (  0.0%)
Orbital Orthonormalization  ....       0.000 sec  (  0.0%)
DIIS solution               ....       0.042 sec  (  0.9%)
SOSCF solution              ....       0.042 sec  (  0.9%)
Grid generation             ....       0.376 sec  (  8.3%)

Maximum memory used throughout the entire SCF-calculation: 17.8 MB


-------------------------------------------------------------------------------
                          DFT DISPERSION CORRECTION                            
                                                                               
                              DFTD3 V3.1  Rev 1                                
                          USING Becke-Johnson damping                          
-------------------------------------------------------------------------------
The PBE functional is recognized
Active option DFTDOPT                   ...         4   

molecular C6(AA) [au] = 808.370027 


            DFT-D V3
 parameters
 s6 scaling factor         :     1.0000 
 a1 scaling factor         :     0.4289 
 s8 scaling factor         :     0.7875 
 a2 scaling factor         :     4.4407 
 ad hoc parameters k1-k3   :    16.0000     1.3333    -4.0000 

 Edisp/kcal,au: -3.885365043370  -0.006191722658 
 E6   /kcal   :  -2.789058017 
 E8   /kcal   :  -1.096307026 
 % E8         :  28.216319801 

-------------------------   ----------------
Dispersion correction           -0.006191723
-------------------------   ----------------


-------------------------   --------------------
FINAL SINGLE POINT ENERGY      -292.192868728791
-------------------------   --------------------


                            ***************************************
                            *     ORCA property calculations      *
                            ***************************************

                                    ---------------------
                                    Active property flags
                                    ---------------------
   (+) Dipole Moment


------------------------------------------------------------------------------
                       ORCA ELECTRIC PROPERTIES CALCULATION
------------------------------------------------------------------------------

Dipole Moment Calculation                       ... on
Quadrupole Moment Calculation                   ... off
Polarizability Calculation                      ... off
GBWName                                         ... TZVP_PBE_C2_wt_dlpno_neg.gbw
Electron density file                           ... TZVP_PBE_C2_wt_dlpno_neg.scfp
The origin for moment calculation is the CENTER OF MASS  = ( 0.611765,  0.183312 -9.569147)

-------------
DIPOLE MOMENT
-------------
                                X             Y             Z
Electronic contribution:      4.08027      -6.57548      -1.80869
Nuclear contribution   :     -3.93139       7.77287       1.92635
                        -----------------------------------------
Total Dipole Moment    :      0.14888       1.19739       0.11766
                        -----------------------------------------
Magnitude (a.u.)       :      1.21234
Magnitude (Debye)      :      3.08152



--------------------
Rotational spectrum 
--------------------
 
Rotational constants in cm-1:     0.286068     0.133630     0.103472 
Rotational constants in MHz :  8576.109806  4006.118234  3102.010802 

 Dipole components along the rotational axes: 
x,y,z [a.u.] :     1.111269     0.338280    -0.347002 
x,y,z [Debye]:     2.824621     0.859840    -0.882008 

 

Timings for individual modules:

Sum of individual times         ...        8.978 sec (=   0.150 min)
GTO integral calculation        ...        2.435 sec (=   0.041 min)  27.1 %
SCF iterations                  ...        6.543 sec (=   0.109 min)  72.9 %
                             ****ORCA TERMINATED NORMALLY****
TOTAL RUN TIME: 0 days 0 hours 0 minutes 9 seconds 538 msec
