
                                        *****************
                                        * O   R   C   A *
                                        *****************

                                            #,                                       
                                            ###                                      
                                            ####                                     
                                            #####                                    
                                            ######                                   
                                           ########,                                 
                                     ,,################,,,,,                         
                               ,,#################################,,                 
                          ,,##########################################,,             
                       ,#########################################, ''#####,          
                    ,#############################################,,   '####,        
                  ,##################################################,,,,####,       
                ,###########''''           ''''###############################       
              ,#####''   ,,,,##########,,,,          '''####'''          '####       
            ,##' ,,,,###########################,,,                        '##       
           ' ,,###''''                  '''############,,,                           
         ,,##''                                '''############,,,,        ,,,,,,###''
      ,#''                                            '''#######################'''  
     '                                                          ''''####''''         
             ,#######,   #######,   ,#######,      ##                                
            ,#'     '#,  ##    ##  ,#'     '#,    #''#        ######   ,####,        
            ##       ##  ##   ,#'  ##            #'  '#       #        #'  '#        
            ##       ##  #######   ##           ,######,      #####,   #    #        
            '#,     ,#'  ##    ##  '#,     ,#' ,#      #,         ##   #,  ,#        
             '#######'   ##     ##  '#######'  #'      '#     #####' # '####'        



                  #######################################################
                  #                        -***-                        #
                  #          Department of theory and spectroscopy      #
                  #    Directorship and core code : Frank Neese         #
                  #        Max Planck Institute fuer Kohlenforschung    #
                  #                Kaiser Wilhelm Platz 1               #
                  #                 D-45470 Muelheim/Ruhr               #
                  #                      Germany                        #
                  #                                                     #
                  #                  All rights reserved                #
                  #                        -***-                        #
                  #######################################################


                         Program Version 5.0.0 -  RELEASE  -
                                (SVN: $Rev: 19529$)
                ($Date: 2021-06-28 11:36:33 +0200 (Mo, 28 Jun 2021) $)


 With contributions from (in alphabetic order):
   Daniel Aravena         : Magnetic Suceptibility
   Michael Atanasov       : Ab Initio Ligand Field Theory (pilot matlab implementation)
   Alexander A. Auer      : GIAO ZORA, VPT2 properties, NMR spectrum
   Ute Becker             : Parallelization
   Giovanni Bistoni       : ED, misc. LED, open-shell LED, HFLD
   Martin Brehm           : Molecular dynamics
   Dmytro Bykov           : SCF Hessian
   Vijay G. Chilkuri      : MRCI spin determinant printing, contributions to CSF-ICE
   Dipayan Datta          : RHF DLPNO-CCSD density
   Achintya Kumar Dutta   : EOM-CC, STEOM-CC
   Dmitry Ganyushin       : Spin-Orbit,Spin-Spin,Magnetic field MRCI
   Miquel Garcia          : C-PCM Hessian, Gaussian charge scheme
   Yang Guo               : DLPNO-NEVPT2, F12-NEVPT2, CIM, IAO-localization
   Andreas Hansen         : Spin unrestricted coupled pair/coupled cluster methods
   Benjamin Helmich-Paris : MC-RPA, TRAH-SCF, COSX integrals
   Lee Huntington         : MR-EOM, pCC
   Robert Izsak           : Overlap fitted RIJCOSX, COSX-SCS-MP3, EOM
   Marcus Kettner         : VPT2
   Christian Kollmar      : KDIIS, OOCD, Brueckner-CCSD(T), CCSD density, CASPT2, CASPT2-K
   Simone Kossmann        : Meta GGA functionals, TD-DFT gradient, OOMP2, MP2 Hessian
   Martin Krupicka        : Initial AUTO-CI
   Lucas Lang             : DCDCAS
   Marvin Lechner         : AUTO-CI (C++ implementation), FIC-MRCC
   Dagmar Lenk            : GEPOL surface, SMD
   Dimitrios Liakos       : Extrapolation schemes; Compound Job, initial MDCI parallelization
   Dimitrios Manganas     : Further ROCIS development; embedding schemes
   Dimitrios Pantazis     : SARC Basis sets
   Anastasios Papadopoulos: AUTO-CI, single reference methods and gradients
   Taras Petrenko         : DFT Hessian,TD-DFT gradient, ASA, ECA, R-Raman, ABS, FL, XAS/XES, NRVS
   Peter Pinski           : DLPNO-MP2, DLPNO-MP2 Gradient
   Christoph Reimann      : Effective Core Potentials
   Marius Retegan         : Local ZFS, SOC
   Christoph Riplinger    : Optimizer, TS searches, QM/MM, DLPNO-CCSD(T), (RO)-DLPNO pert. Triples
   Tobias Risthaus        : Range-separated hybrids, TD-DFT gradient, RPA, STAB
   Michael Roemelt        : Original ROCIS implementation
   Masaaki Saitow         : Open-shell DLPNO-CCSD energy and density
   Barbara Sandhoefer     : DKH picture change effects
   Avijit Sen             : IP-ROCIS
   Kantharuban Sivalingam : CASSCF convergence, NEVPT2, FIC-MRCI
   Bernardo de Souza      : ESD, SOC TD-DFT
   Georgi Stoychev        : AutoAux, RI-MP2 NMR
   Willem Van den Heuvel  : Paramagnetic NMR
   Boris Wezisla          : Elementary symmetry handling
   Frank Wennmohs         : Technical directorship


 We gratefully acknowledge several colleagues who have allowed us to
 interface, adapt or use parts of their codes:
   Stefan Grimme, W. Hujo, H. Kruse, P. Pracht,  : VdW corrections, initial TS optimization,
                  C. Bannwarth, S. Ehlert          DFT functionals, gCP, sTDA/sTD-DF
   Ed Valeev, F. Pavosevic, A. Kumar             : LibInt (2-el integral package), F12 methods
   Garnet Chan, S. Sharma, J. Yang, R. Olivares  : DMRG
   Ulf Ekstrom                                   : XCFun DFT Library
   Mihaly Kallay                                 : mrcc  (arbitrary order and MRCC methods)
   Jiri Pittner, Ondrej Demel                    : Mk-CCSD
   Frank Weinhold                                : gennbo (NPA and NBO analysis)
   Christopher J. Cramer and Donald G. Truhlar   : smd solvation model
   Lars Goerigk                                  : TD-DFT with DH, B97 family of functionals
   V. Asgeirsson, H. Jonsson                     : NEB implementation
   FAccTs GmbH                                   : IRC, NEB, NEB-TS, DLPNO-Multilevel, CI-OPT
                                                   MM, QMMM, 2- and 3-layer-ONIOM, Crystal-QMMM,
                                                   LR-CPCM, SF, NACMEs, symmetry and pop. for TD-DFT,
                                                   nearIR, NL-DFT gradient (VV10), updates on ESD,
                                                   ML-optimized integration grids
   S Lehtola, MJT Oliveira, MAL Marques          : LibXC Library
   Liviu Ungur et al                             : ANISO software


 Your calculation uses the libint2 library for the computation of 2-el integrals
 For citations please refer to: http://libint.valeyev.net

 Your ORCA version has been built with support for libXC version: 5.1.0
 For citations please refer to: https://tddft.org/programs/libxc/

 This ORCA versions uses:
   CBLAS   interface :  Fast vector & matrix operations
   LAPACKE interface :  Fast linear algebra routines
   SCALAPACK package :  Parallel linear algebra routines
   Shared memory     :  Shared parallel matrices
   BLAS/LAPACK       :  OpenBLAS 0.3.15  USE64BITINT DYNAMIC_ARCH NO_AFFINITY Haswell SINGLE_THREADED
        Core in use  :  Haswell
   Copyright (c) 2011-2014, The OpenBLAS Project




***************************************
The coordinates will be read from file: D2.xyz
***************************************


Your calculation utilizes the atom-pairwise dispersion correction
with the Becke-Johnson damping scheme (D3BJ)
Cite in your paper:
S.Grimme, S.Ehrlich, L.Goerigk, J Comput Chem, (2011), 32, 1456–1465 
S.Grimme, J.Antony, S.Ehrlich and H.Krieg, J.Chem.Phys., 132, (2010), 154104 
   

================================================================================

----- Orbital basis set information -----
Your calculation utilizes the basis: def2-TZVPD
   F. Weigend and R. Ahlrichs, Phys. Chem. Chem. Phys. 7, 3297 (2005).
   D. Rappoport and F. Furche, J. Chem. Phys. 133 134105 (2010).

----- AuxJ basis set information -----
Your calculation utilizes the auxiliary basis: def2/J
   F. Weigend, Phys. Chem. Chem. Phys. 8, 1057 (2006).

================================================================================
                                        WARNINGS
                       Please study these warnings very carefully!
================================================================================



WARNING: Found flag for RIJCOSX approximation but no HF exchange needed!
  ===> : RIJCOSX  will be disabled and Split-RI-J is turned on

INFO   : the flag for use of the SHARK integral package has been found!

================================================================================
                                       INPUT FILE
================================================================================
NAME = 28Oct_TZVPD_BLYP_D2_wb97.com
|  1> !BLYP D3BJ RIJCOSX def2-TZVPD def2/J TightSCF xyzfile                                                                                         
|  2> 
|  3> *xyzfile 0 1 D2.xyz
|  4> 
|  5> %MaxCore 64000
|  6> 
|  7> %pal nprocs 4                                                                                                                                                  
|  8> end  
|  9> 
| 10> %scf
| 11>   MaxIter 150
| 12> end
| 13> 
| 14> 
| 15>                          ****END OF INPUT****
================================================================================

                       ****************************
                       * Single Point Calculation *
                       ****************************

---------------------------------
CARTESIAN COORDINATES (ANGSTROEM)
---------------------------------
  C      1.647032   -2.345276   -5.020411
  C      0.217628   -1.814022   -4.924389
  C      2.209964   -2.812388   -3.665708
  C     -0.811356   -2.908780   -4.607625
  C     -1.916579   -2.485081   -3.643665
  H     -2.554525   -1.712428   -4.091993
  C     -1.363531   -1.981337   -2.293608
  H     -2.553448   -3.355667   -3.458815
  F     -0.350395   -2.749689   -1.796006
  H      2.308385   -1.588704   -5.457128
  H      1.674286   -3.203478   -5.697392
  C      2.489007   -1.668510   -2.737538
  N      3.596314   -0.947608   -2.952247
  C      1.663936   -1.413685   -1.777806
  H      0.811642   -1.963178   -1.702755
  H      1.845503   -0.635078   -1.158749
  H      4.205351   -1.176003   -3.733825
  H      3.817230   -0.125845   -2.406041
  H     -1.244829   -3.280884   -5.541040
  H     -0.306331   -3.757746   -4.142734
  H     -0.036244   -1.318555   -5.865303
  H      0.175004   -1.035382   -4.158095
  H      3.143106   -3.362803   -3.811524
  H      1.487683   -3.458935   -3.165211
  H     -2.226220   -1.908386   -1.602039
  H     -1.051353   -0.915671   -2.443331

----------------------------
CARTESIAN COORDINATES (A.U.)
----------------------------
  NO LB      ZA    FRAG     MASS         X           Y           Z
   0 C     6.0000    0    12.011    3.112440   -4.431930   -9.487201
   1 C     6.0000    0    12.011    0.411257   -3.428004   -9.305747
   2 C     6.0000    0    12.011    4.176227   -5.314643   -6.927185
   3 C     6.0000    0    12.011   -1.533240   -5.496797   -8.707150
   4 C     6.0000    0    12.011   -3.621809   -4.696122   -6.885529
   5 H     1.0000    0     1.008   -4.827352   -3.236019   -7.732746
   6 C     6.0000    0    12.011   -2.576700   -3.744185   -4.334291
   7 H     1.0000    0     1.008   -4.825318   -6.341292   -6.536213
   8 F     9.0000    0    18.998   -0.662150   -5.196160   -3.393960
   9 H     1.0000    0     1.008    4.362215   -3.002216  -10.312478
  10 H     1.0000    0     1.008    3.163942   -6.053697  -10.766511
  11 C     6.0000    0    12.011    4.703541   -3.153027   -5.173197
  12 N     7.0000    0    14.007    6.796049   -1.790720   -5.578938
  13 C     6.0000    0    12.011    3.144384   -2.671478   -3.359567
  14 H     1.0000    0     1.008    1.533781   -3.709870   -3.217740
  15 H     1.0000    0     1.008    3.487496   -1.200123   -2.189719
  16 H     1.0000    0     1.008    7.946962   -2.222324   -7.055907
  17 H     1.0000    0     1.008    7.213519   -0.237813   -4.546758
  18 H     1.0000    0     1.008   -2.352386   -6.199972  -10.471048
  19 H     1.0000    0     1.008   -0.578881   -7.101112   -7.828632
  20 H     1.0000    0     1.008   -0.068492   -2.491708  -11.083816
  21 H     1.0000    0     1.008    0.330710   -1.956588   -7.857661
  22 H     1.0000    0     1.008    5.939610   -6.354777   -7.202736
  23 H     1.0000    0     1.008    2.811313   -6.536440   -5.981383
  24 H     1.0000    0     1.008   -4.206946   -3.606326   -3.027415
  25 H     1.0000    0     1.008   -1.986770   -1.730367   -4.617227

--------------------------------
INTERNAL COORDINATES (ANGSTROEM)
--------------------------------
 C      0   0   0     0.000000000000     0.00000000     0.00000000
 C      1   0   0     1.527955821016     0.00000000     0.00000000
 C      1   2   0     1.539579205643   113.09455329     0.00000000
 C      2   1   3     1.535461230316   113.07837982   291.23996206
 C      4   2   1     1.526518013264   114.68151508   141.02031159
 H      5   4   2     1.097709457585   110.99149191    65.91249200
 C      5   4   2     1.543461531644   112.55125178   302.63242322
 H      5   4   2     1.094391684634   107.89035097   182.72439300
 F      7   5   4     1.365436496613   113.63906316   316.83056066
 H      1   2   3     1.095678430663   110.46506235   236.41999138
 H      1   2   3     1.093415443993   109.57996710   119.66959535
 C      3   1   2     1.499273670089   112.41483479   289.19826523
 N     12   3   1     1.338629911216   117.74508396   282.67965365
 C     12   3   1     1.291031372445   119.46306812   102.41218807
 H     14  12   3     1.016848561020   118.93801295   356.56161755
 H     14  12   3     1.011151613824   119.49536150   180.77736372
 H     13  12   3     1.016835553844   119.85280569     0.99571862
 H     13  12   3     1.011157270728   122.12368320   175.86123251
 H      4   2   1     1.094360258476   109.38491174   265.46471084
 H      4   2   1     1.091750183210   109.40711442    21.62836381
 H      2   1   3     1.093278200532   108.70646212   168.53833438
 H      2   1   3     1.093299402095   109.15594799    53.64298564
 H      3   1   2     1.093148557476   110.33542908   168.66584158
 H      3   1   2     1.090967803546   109.96265118    48.22038393
 H      7   5   4     1.108071177295   106.76422245   191.84539123
 H      7   5   4     1.120498875340   107.05873122    81.22964818

---------------------------
INTERNAL COORDINATES (A.U.)
---------------------------
 C      0   0   0     0.000000000000     0.00000000     0.00000000
 C      1   0   0     2.887418046452     0.00000000     0.00000000
 C      1   2   0     2.909383060145   113.09455329     0.00000000
 C      2   1   3     2.901601214551   113.07837982   291.23996206
 C      4   2   1     2.884700983566   114.68151508   141.02031159
 H      5   4   2     2.074370249452   110.99149191    65.91249200
 C      5   4   2     2.916719593051   112.55125178   302.63242322
 H      5   4   2     2.068100567200   107.89035097   182.72439300
 F      7   5   4     2.580301031860   113.63906316   316.83056066
 H      1   2   3     2.070532164797   110.46506235   236.41999138
 H      1   2   3     2.066255739747   109.57996710   119.66959535
 C      3   1   2     2.833216636266   112.41483479   289.19826523
 N     12   3   1     2.529643926874   117.74508396   282.67965365
 C     12   3   1     2.439695724222   119.46306812   102.41218807
 H     14  12   3     1.921565300000   118.93801295   356.56161755
 H     14  12   3     1.910799630000   119.49536150   180.77736372
 H     13  12   3     1.921540720000   119.85280569     0.99571862
 H     13  12   3     1.910810320000   122.12368320   175.86123251
 H      4   2   1     2.068041180366   109.38491174   265.46471084
 H      4   2   1     2.063108852925   109.40711442    21.62836381
 H      2   1   3     2.065996387191   108.70646212   168.53833438
 H      2   1   3     2.066036452339   109.15594799    53.64298564
 H      3   1   2     2.065751397322   110.33542908   168.66584158
 H      3   1   2     2.061630369627   109.96265118    48.22038393
 H      7   5   4     2.093951061980   106.76422245   191.84539123
 H      7   5   4     2.117436007760   107.05873122    81.22964818

---------------------
BASIS SET INFORMATION
---------------------
There are 4 groups of distinct atoms

 Group   1 Type C   : 12s6p3d1f contracted to 6s3p3d1f pattern {621111/411/111/1}
 Group   2 Type H   : 5s2p contracted to 3s2p pattern {311/11}
 Group   3 Type F   : 12s7p3d1f contracted to 6s4p3d1f pattern {621111/4111/111/1}
 Group   4 Type N   : 12s6p3d1f contracted to 6s3p3d1f pattern {621111/411/111/1}

Atom   0C    basis set group =>   1
Atom   1C    basis set group =>   1
Atom   2C    basis set group =>   1
Atom   3C    basis set group =>   1
Atom   4C    basis set group =>   1
Atom   5H    basis set group =>   2
Atom   6C    basis set group =>   1
Atom   7H    basis set group =>   2
Atom   8F    basis set group =>   3
Atom   9H    basis set group =>   2
Atom  10H    basis set group =>   2
Atom  11C    basis set group =>   1
Atom  12N    basis set group =>   4
Atom  13C    basis set group =>   1
Atom  14H    basis set group =>   2
Atom  15H    basis set group =>   2
Atom  16H    basis set group =>   2
Atom  17H    basis set group =>   2
Atom  18H    basis set group =>   2
Atom  19H    basis set group =>   2
Atom  20H    basis set group =>   2
Atom  21H    basis set group =>   2
Atom  22H    basis set group =>   2
Atom  23H    basis set group =>   2
Atom  24H    basis set group =>   2
Atom  25H    basis set group =>   2
---------------------------------
AUXILIARY/J BASIS SET INFORMATION
---------------------------------
There are 4 groups of distinct atoms

 Group   1 Type C   : 12s5p4d2f1g contracted to 6s4p3d1f1g pattern {711111/2111/211/2/1}
 Group   2 Type H   : 5s2p1d contracted to 3s1p1d pattern {311/2/1}
 Group   3 Type F   : 12s5p4d2f1g contracted to 6s4p3d1f1g pattern {711111/2111/211/2/1}
 Group   4 Type N   : 12s5p4d2f1g contracted to 6s4p3d1f1g pattern {711111/2111/211/2/1}

Atom   0C    basis set group =>   1
Atom   1C    basis set group =>   1
Atom   2C    basis set group =>   1
Atom   3C    basis set group =>   1
Atom   4C    basis set group =>   1
Atom   5H    basis set group =>   2
Atom   6C    basis set group =>   1
Atom   7H    basis set group =>   2
Atom   8F    basis set group =>   3
Atom   9H    basis set group =>   2
Atom  10H    basis set group =>   2
Atom  11C    basis set group =>   1
Atom  12N    basis set group =>   4
Atom  13C    basis set group =>   1
Atom  14H    basis set group =>   2
Atom  15H    basis set group =>   2
Atom  16H    basis set group =>   2
Atom  17H    basis set group =>   2
Atom  18H    basis set group =>   2
Atom  19H    basis set group =>   2
Atom  20H    basis set group =>   2
Atom  21H    basis set group =>   2
Atom  22H    basis set group =>   2
Atom  23H    basis set group =>   2
Atom  24H    basis set group =>   2
Atom  25H    basis set group =>   2


           ************************************************************
           *        Program running with 4 parallel MPI-processes     *
           *              working on a common directory               *
           ************************************************************
------------------------------------------------------------------------------
                           ORCA GTO INTEGRAL CALCULATION
                           -- RI-GTO INTEGRALS CHOSEN --
------------------------------------------------------------------------------
------------------------------------------------------------------------------
                   ___                                                        
                  /   \      - P O W E R E D   B Y -                         
                 /     \                                                     
                 |  |  |   _    _      __       _____    __    __             
                 |  |  |  | |  | |    /  \     |  _  \  |  |  /  |          
                  \  \/   | |  | |   /    \    | | | |  |  | /  /          
                 / \  \   | |__| |  /  /\  \   | |_| |  |  |/  /          
                |  |  |   |  __  | /  /__\  \  |    /   |      \           
                |  |  |   | |  | | |   __   |  |    \   |  |\   \          
                \     /   | |  | | |  |  |  |  | |\  \  |  | \   \       
                 \___/    |_|  |_| |__|  |__|  |_| \__\ |__|  \__/        
                                                                              
                      - O R C A' S   B I G   F R I E N D -                    
                                      &                                       
                       - I N T E G R A L  F E E D E R -                       
                                                                              
 v1 FN, 2020, v2 2021                                                         
------------------------------------------------------------------------------


Reading SHARK input file 28Oct_TZVPD_BLYP_D2_wb97.SHARKINP.tmp ... ok
----------------------
SHARK INTEGRAL PACKAGE
----------------------

Number of atoms                             ...     26
Number of basis functions                   ...    517
Number of shells                            ...    211
Maximum angular momentum                    ...      3
Integral batch strategy                     ... SHARK/LIBINT Hybrid
RI-J (if used) integral strategy            ... SPLIT-RIJ (Revised 2003 algorithm where possible)
Printlevel                                  ...      1
Contraction scheme used                     ... SEGMENTED contraction
Coulomb Range Separation                    ... NOT USED
Exchange Range Separation                   ... NOT USED
Finite Nucleus Model                        ... NOT USED
Auxiliary Coulomb fitting basis             ... AVAILABLE
   # of basis functions in Aux-J            ...    666
   # of shells in Aux-J                     ...    230
   Maximum angular momentum in Aux-J        ...      4
Auxiliary J/K fitting basis                 ... NOT available
Auxiliary Correlation fitting basis         ... NOT available
Auxiliary 'external' fitting basis          ... NOT available
Integral threshold                          ...     2.500000e-11
Primitive cut-off                           ...     2.500000e-12
Primitive pair pre-selection threshold      ...     2.500000e-12

Calculating pre-screening integrals         ... done (  0.2 sec) Dimension = 211
Organizing shell pair data                  ... done (  0.2 sec)
Shell pair information
Total number of shell pairs                 ...     22366
Shell pairs after pre-screening             ...     20664
Total number of primitive shell pairs       ...     55879
Primitive shell pairs kept                  ...     40395
          la=0 lb=0:   5224 shell pairs
          la=1 lb=0:   6324 shell pairs
          la=1 lb=1:   1927 shell pairs
          la=2 lb=0:   3027 shell pairs
          la=2 lb=1:   1823 shell pairs
          la=2 lb=2:    455 shell pairs
          la=3 lb=0:    953 shell pairs
          la=3 lb=1:    591 shell pairs
          la=3 lb=2:    289 shell pairs
          la=3 lb=3:     51 shell pairs

Calculating one electron integrals          ... done (  0.1 sec)
Calculating RI/J V-Matrix + Cholesky decomp.... done (  0.0 sec)
Calculating Nuclear repulsion               ... done (  0.0 sec) ENN=    589.783235870967 Eh

SHARK setup successfully completed in   0.5 seconds

Maximum memory used throughout the entire GTOINT-calculation: 30.8 MB


           ************************************************************
           *        Program running with 4 parallel MPI-processes     *
           *              working on a common directory               *
           ************************************************************
-------------------------------------------------------------------------------
                                 ORCA SCF
-------------------------------------------------------------------------------

------------
SCF SETTINGS
------------
Hamiltonian:
 Density Functional     Method          .... DFT(GTOs)
 Exchange Functional    Exchange        .... B88
   X-Alpha parameter    XAlpha          ....  0.666667
   Becke's b parameter  XBeta           ....  0.004200
 Correlation Functional Correlation     .... LYP
 Gradients option       PostSCFGGA      .... off
   Density functional embedding theory  .... OFF
   NL short-range parameter             ....  4.000000
 RI-approximation to the Coulomb term is turned on
   Number of AuxJ basis functions       .... 666


General Settings:
 Integral files         IntName         .... 28Oct_TZVPD_BLYP_D2_wb97
 Hartree-Fock type      HFTyp           .... RHF
 Total Charge           Charge          ....    0
 Multiplicity           Mult            ....    1
 Number of Electrons    NEL             ....   80
 Basis Dimension        Dim             ....  517
 Nuclear Repulsion      ENuc            ....    589.7832358710 Eh

Convergence Acceleration:
 DIIS                   CNVDIIS         .... on
   Start iteration      DIISMaxIt       ....    12
   Startup error        DIISStart       ....  0.200000
   # of expansion vecs  DIISMaxEq       ....     5
   Bias factor          DIISBfac        ....   1.050
   Max. coefficient     DIISMaxC        ....  10.000
 Trust-Rad. Augm. Hess. CNVTRAH         .... auto
   Auto Start mean grad. ratio tolernc. ....  1.125000
   Auto Start start iteration           ....    20
   Auto Start num. interpolation iter.  ....    10
   Max. Number of Micro iterations      ....    16
   Max. Number of Macro iterations      .... Maxiter - #DIIS iter
   Number of Davidson start vectors     ....     2
   Converg. threshold I  (grad. norm)   ....   1.000e-05
   Converg. threshold II (energy diff.) ....   1.000e-08
   Grad. Scal. Fac. for Micro threshold ....   0.100
   Minimum threshold for Micro iter.    ....   0.010
   NR start threshold (gradient norm)   ....   0.001
   Initial trust radius                 ....   0.400
   Minimum AH scaling param. (alpha)    ....   1.000
   Maximum AH scaling param. (alpha)    .... 1000.000
   Orbital update algorithm             .... Taylor
   White noise on init. David. guess    .... on
   Maximum white noise                  ....   0.010
   Quad. conv. algorithm                .... NR
 SOSCF                  CNVSOSCF        .... on
   Start iteration      SOSCFMaxIt      ....   150
   Startup grad/error   SOSCFStart      ....  0.003300
 Level Shifting         CNVShift        .... on
   Level shift para.    LevelShift      ....    0.2500
   Turn off err/grad.   ShiftErr        ....    0.0010
 Zerner damping         CNVZerner       .... off
 Static damping         CNVDamp         .... on
   Fraction old density DampFac         ....    0.7000
   Max. Damping (<1)    DampMax         ....    0.9800
   Min. Damping (>=0)   DampMin         ....    0.0000
   Turn off err/grad.   DampErr         ....    0.1000
 Fernandez-Rico         CNVRico         .... off

SCF Procedure:
 Maximum # iterations   MaxIter         ....   150
 SCF integral mode      SCFMode         .... Direct
   Integral package                     .... SHARK and LIBINT hybrid scheme
 Reset frequency        DirectResetFreq ....    20
 Integral Threshold     Thresh          ....  2.500e-11 Eh
 Primitive CutOff       TCut            ....  2.500e-12 Eh

Convergence Tolerance:
 Convergence Check Mode ConvCheckMode   .... Total+1el-Energy
 Convergence forced     ConvForced      .... 0
 Energy Change          TolE            ....  1.000e-08 Eh
 1-El. energy change                    ....  1.000e-05 Eh
 Orbital Gradient       TolG            ....  1.000e-05
 Orbital Rotation angle TolX            ....  1.000e-05
 DIIS Error             TolErr          ....  5.000e-07


Diagonalization of the overlap matrix:
Smallest eigenvalue                        ... 1.376e-06
Time for diagonalization                   ...    0.062 sec
Threshold for overlap eigenvalues          ... 1.000e-08
Number of eigenvalues below threshold      ... 0
Time for construction of square roots      ...    0.079 sec
Total time needed                          ...    0.144 sec

Time for model grid setup =    0.292 sec

------------------------------
INITIAL GUESS: MODEL POTENTIAL
------------------------------
Loading Hartree-Fock densities                     ... done
Calculating cut-offs                               ... done
Initializing the effective Hamiltonian             ... done
Setting up the integral package (SHARK)            ... done
Starting the Coulomb interaction                   ... done (   0.4 sec)
Reading the grid                                   ... done
Mapping shells                                     ... done
Starting the XC term evaluation                    ... done (   0.6 sec)
  promolecular density results
     # of electrons  =     80.003581951
     EX              =    -62.625260412
     EC              =     -2.664212483
     EX+EC           =    -65.289472895
Transforming the Hamiltonian                       ... done (   0.0 sec)
Diagonalizing the Hamiltonian                      ... done (   0.1 sec)
Back transforming the eigenvectors                 ... done (   0.0 sec)
Now organizing SCF variables                       ... done
                      ------------------
                      INITIAL GUESS DONE (   1.4 sec)
                      ------------------
-------------------
DFT GRID GENERATION
-------------------

General Integration Accuracy     IntAcc      ... 4.388
Radial Grid Type                 RadialGrid  ... OptM3 with GC (2021)
Angular Grid (max. ang.)         AngularGrid ... 4 (Lebedev-302)
Angular grid pruning method      GridPruning ... 4 (adaptive)
Weight generation scheme         WeightScheme... Becke
Basis function cutoff            BFCut       ... 1.0000e-11
Integration weight cutoff        WCut        ... 1.0000e-14
Angular grids for H and He will be reduced by one unit
Partially contracted basis set               ... off
Rotationally invariant grid construction     ... off

Total number of grid points                  ...   115654
Total number of batches                      ...     1823
Average number of points per batch           ...       63
Average number of grid points per atom       ...     4448
Time for grid setup =    1.055 sec

--------------
SCF ITERATIONS
--------------
ITER       Energy         Delta-E        Max-DP      RMS-DP      [F,P]     Damp
               ***  Starting incremental Fock matrix formation  ***
  0   -468.5572697982   0.000000000000 0.31959640  0.00336437  0.2573399 0.7000
  1   -468.7616896645  -0.204419866268 0.35450397  0.00274746  0.1145699 0.7000
                               ***Turning on DIIS***
  2   -468.8296165388  -0.067926874359 0.59704257  0.00484970  0.0286886 0.0000
  3   -468.9279335619  -0.098317023039 0.33744111  0.00213347  0.0806742 0.0000
  4   -468.9623529434  -0.034419381540 0.26870089  0.00111338  0.0174892 0.0000
  5   -468.9644402074  -0.002087264013 0.11752583  0.00056180  0.0057905 0.0000
                      *** Initiating the SOSCF procedure ***
                           *** Shutting down DIIS ***
                      *** Re-Reading the Fockian *** 
                      *** Removing any level shift *** 
ITER      Energy       Delta-E        Grad      Rot      Max-DP    RMS-DP
  6   -468.96462863  -0.0001884203  0.000501  0.000501  0.047768  0.000276
               *** Restarting incremental Fock matrix formation ***
  7   -468.96465773  -0.0000291000  0.000204  0.001087  0.036268  0.000293
  8   -468.96465951  -0.0000017811  0.000118  0.000399  0.005517  0.000056
  9   -468.96466173  -0.0000022254  0.000124  0.000575  0.009691  0.000082
 10   -468.96466199  -0.0000002601  0.000103  0.000195  0.002171  0.000016
 11   -468.96466241  -0.0000004154  0.000026  0.000102  0.003216  0.000037
 12   -468.96466248  -0.0000000687  0.000018  0.000025  0.003717  0.000017
 13   -468.96466255  -0.0000000762  0.000007  0.000033  0.004399  0.000026
 14   -468.96466257  -0.0000000130  0.000006  0.000008  0.002527  0.000014
                  ***Gradient check signals convergence***
              ***Rediagonalizing the Fockian in SOSCF/NRSCF***

               *****************************************************
               *                     SUCCESS                       *
               *           SCF CONVERGED AFTER  15 CYCLES          *
               *****************************************************


----------------
TOTAL SCF ENERGY
----------------

Total Energy       :         -468.96466257 Eh          -12761.17723 eV

Components:
Nuclear Repulsion  :          589.78323587 Eh           16048.81775 eV
Electronic Energy  :        -1058.74789844 Eh          -28809.99499 eV
One Electron Energy:        -1807.45359543 Eh          -49183.31276 eV
Two Electron Energy:          748.70569699 Eh           20373.31777 eV

Virial components:
Potential Energy   :         -937.17178494 Eh          -25501.74075 eV
Kinetic Energy     :          468.20712237 Eh           12740.56352 eV
Virial Ratio       :            2.00161796


DFT components:
N(Alpha)           :       40.000129464833 electrons
N(Beta)            :       40.000129464833 electrons
N(Total)           :       80.000258929666 electrons
E(X)               :      -64.187556233706 Eh       
E(C)               :       -2.680375423671 Eh       
E(XC)              :      -66.867931657376 Eh       
DFET-embed. en.    :        0.000000000000 Eh       

---------------
SCF CONVERGENCE
---------------

  Last Energy change         ...    3.5584e-10  Tolerance :   1.0000e-08
  Last MAX-Density change    ...    2.4707e-03  Tolerance :   1.0000e-07
  Last RMS-Density change    ...    2.0440e-05  Tolerance :   5.0000e-09
  Last Orbital Gradient      ...    2.1374e-06  Tolerance :   1.0000e-05
  Last Orbital Rotation      ...    1.1765e-05  Tolerance :   1.0000e-05

             **** THE GBW FILE WAS UPDATED (28Oct_TZVPD_BLYP_D2_wb97.gbw) ****
             **** DENSITY 28Oct_TZVPD_BLYP_D2_wb97.scfp WAS UPDATED ****
             **** ENERGY FILE WAS UPDATED (28Oct_TZVPD_BLYP_D2_wb97.en.tmp) ****
             **** THE GBW FILE WAS UPDATED (28Oct_TZVPD_BLYP_D2_wb97.gbw) ****
             **** DENSITY 28Oct_TZVPD_BLYP_D2_wb97.scfp WAS UPDATED ****
----------------
ORBITAL ENERGIES
----------------

  NO   OCC          E(Eh)            E(eV) 
   0   2.0000     -24.287457      -660.8953 
   1   2.0000     -13.993051      -380.7703 
   2   2.0000      -9.981896      -271.6212 
   3   2.0000      -9.909538      -269.6522 
   4   2.0000      -9.901090      -269.4224 
   5   2.0000      -9.898002      -269.3383 
   6   2.0000      -9.895137      -269.2604 
   7   2.0000      -9.891344      -269.1571 
   8   2.0000      -9.890100      -269.1233 
   9   2.0000      -9.804757      -266.8010 
  10   2.0000      -1.118989       -30.4492 
  11   2.0000      -0.821452       -22.3528 
  12   2.0000      -0.730389       -19.8749 
  13   2.0000      -0.698015       -18.9939 
  14   2.0000      -0.651242       -17.7212 
  15   2.0000      -0.626670       -17.0526 
  16   2.0000      -0.586526       -15.9602 
  17   2.0000      -0.538146       -14.6437 
  18   2.0000      -0.507306       -13.8045 
  19   2.0000      -0.504658       -13.7324 
  20   2.0000      -0.468338       -12.7441 
  21   2.0000      -0.453898       -12.3512 
  22   2.0000      -0.441486       -12.0134 
  23   2.0000      -0.430633       -11.7181 
  24   2.0000      -0.407404       -11.0860 
  25   2.0000      -0.390939       -10.6380 
  26   2.0000      -0.387982       -10.5575 
  27   2.0000      -0.379443       -10.3252 
  28   2.0000      -0.349905        -9.5214 
  29   2.0000      -0.334769        -9.1095 
  30   2.0000      -0.321541        -8.7496 
  31   2.0000      -0.311939        -8.4883 
  32   2.0000      -0.303293        -8.2530 
  33   2.0000      -0.291324        -7.9273 
  34   2.0000      -0.280838        -7.6420 
  35   2.0000      -0.278250        -7.5716 
  36   2.0000      -0.269353        -7.3295 
  37   2.0000      -0.262450        -7.1416 
  38   2.0000      -0.248527        -6.7628 
  39   2.0000      -0.144695        -3.9374 
  40   0.0000      -0.010130        -0.2757 
  41   0.0000      -0.003597        -0.0979 
  42   0.0000       0.003360         0.0914 
  43   0.0000       0.014158         0.3853 
  44   0.0000       0.024993         0.6801 
  45   0.0000       0.026980         0.7342 
  46   0.0000       0.034365         0.9351 
  47   0.0000       0.039870         1.0849 
  48   0.0000       0.044250         1.2041 
  49   0.0000       0.052317         1.4236 
  50   0.0000       0.059600         1.6218 
  51   0.0000       0.062961         1.7132 
  52   0.0000       0.069036         1.8786 
  53   0.0000       0.081453         2.2165 
  54   0.0000       0.085400         2.3239 
  55   0.0000       0.090938         2.4746 
  56   0.0000       0.099994         2.7210 
  57   0.0000       0.105078         2.8593 
  58   0.0000       0.109943         2.9917 
  59   0.0000       0.117616         3.2005 
  60   0.0000       0.123430         3.3587 
  61   0.0000       0.129143         3.5142 
  62   0.0000       0.133116         3.6223 
  63   0.0000       0.142003         3.8641 
  64   0.0000       0.143230         3.8975 
  65   0.0000       0.146508         3.9867 
  66   0.0000       0.156318         4.2536 
  67   0.0000       0.158554         4.3145 
  68   0.0000       0.166324         4.5259 
  69   0.0000       0.168945         4.5972 
  70   0.0000       0.176702         4.8083 
  71   0.0000       0.183617         4.9965 
  72   0.0000       0.185713         5.0535 
  73   0.0000       0.186824         5.0837 
  74   0.0000       0.192918         5.2496 
  75   0.0000       0.194568         5.2945 
  76   0.0000       0.202473         5.5096 
  77   0.0000       0.206059         5.6072 
  78   0.0000       0.207019         5.6333 
  79   0.0000       0.212625         5.7858 
  80   0.0000       0.218752         5.9525 
  81   0.0000       0.223587         6.0841 
  82   0.0000       0.228293         6.2122 
  83   0.0000       0.232578         6.3288 
  84   0.0000       0.234763         6.3882 
  85   0.0000       0.238638         6.4937 
  86   0.0000       0.245585         6.6827 
  87   0.0000       0.246066         6.6958 
  88   0.0000       0.251717         6.8496 
  89   0.0000       0.255035         6.9399 
  90   0.0000       0.258921         7.0456 
  91   0.0000       0.261625         7.1192 
  92   0.0000       0.267409         7.2766 
  93   0.0000       0.276543         7.5251 
  94   0.0000       0.277337         7.5467 
  95   0.0000       0.279231         7.5983 
  96   0.0000       0.282354         7.6832 
  97   0.0000       0.283587         7.7168 
  98   0.0000       0.296517         8.0686 
  99   0.0000       0.300224         8.1695 
 100   0.0000       0.304400         8.2831 
 101   0.0000       0.306376         8.3369 
 102   0.0000       0.307356         8.3636 
 103   0.0000       0.308909         8.4058 
 104   0.0000       0.315188         8.5767 
 105   0.0000       0.319315         8.6890 
 106   0.0000       0.325768         8.8646 
 107   0.0000       0.330517         8.9938 
 108   0.0000       0.332124         9.0375 
 109   0.0000       0.341221         9.2851 
 110   0.0000       0.345153         9.3921 
 111   0.0000       0.347011         9.4427 
 112   0.0000       0.351286         9.5590 
 113   0.0000       0.353486         9.6189 
 114   0.0000       0.361849         9.8464 
 115   0.0000       0.365774         9.9532 
 116   0.0000       0.369422        10.0525 
 117   0.0000       0.372411        10.1338 
 118   0.0000       0.374582        10.1929 
 119   0.0000       0.379874        10.3369 
 120   0.0000       0.383450        10.4342 
 121   0.0000       0.386200        10.5090 
 122   0.0000       0.396508        10.7895 
 123   0.0000       0.397177        10.8077 
 124   0.0000       0.397383        10.8133 
 125   0.0000       0.405618        11.0374 
 126   0.0000       0.407775        11.0961 
 127   0.0000       0.409572        11.1450 
 128   0.0000       0.417487        11.3604 
 129   0.0000       0.421119        11.4592 
 130   0.0000       0.426403        11.6030 
 131   0.0000       0.432880        11.7793 
 132   0.0000       0.435323        11.8457 
 133   0.0000       0.442098        12.0301 
 134   0.0000       0.447873        12.1872 
 135   0.0000       0.453745        12.3470 
 136   0.0000       0.456526        12.4227 
 137   0.0000       0.463243        12.6055 
 138   0.0000       0.464251        12.6329 
 139   0.0000       0.473127        12.8745 
 140   0.0000       0.478178        13.0119 
 141   0.0000       0.479301        13.0425 
 142   0.0000       0.485434        13.2093 
 143   0.0000       0.489611        13.3230 
 144   0.0000       0.489916        13.3313 
 145   0.0000       0.498874        13.5751 
 146   0.0000       0.504773        13.7356 
 147   0.0000       0.506346        13.7784 
 148   0.0000       0.511175        13.9098 
 149   0.0000       0.518542        14.1102 
 150   0.0000       0.528267        14.3749 
 151   0.0000       0.532677        14.4949 
 152   0.0000       0.540253        14.7010 
 153   0.0000       0.544695        14.8219 
 154   0.0000       0.552196        15.0260 
 155   0.0000       0.552647        15.0383 
 156   0.0000       0.562022        15.2934 
 157   0.0000       0.568510        15.4700 
 158   0.0000       0.570075        15.5125 
 159   0.0000       0.580579        15.7984 
 160   0.0000       0.582384        15.8475 
 161   0.0000       0.585528        15.9330 
 162   0.0000       0.595884        16.2148 
 163   0.0000       0.600368        16.3368 
 164   0.0000       0.604410        16.4468 
 165   0.0000       0.607459        16.5298 
 166   0.0000       0.609748        16.5921 
 167   0.0000       0.617668        16.8076 
 168   0.0000       0.626309        17.0427 
 169   0.0000       0.627858        17.0849 
 170   0.0000       0.635717        17.2987 
 171   0.0000       0.639690        17.4069 
 172   0.0000       0.640955        17.4413 
 173   0.0000       0.648381        17.6433 
 174   0.0000       0.652609        17.7584 
 175   0.0000       0.655166        17.8280 
 176   0.0000       0.663358        18.0509 
 177   0.0000       0.667191        18.1552 
 178   0.0000       0.668733        18.1971 
 179   0.0000       0.672192        18.2913 
 180   0.0000       0.677015        18.4225 
 181   0.0000       0.680901        18.5283 
 182   0.0000       0.689494        18.7621 
 183   0.0000       0.696885        18.9632 
 184   0.0000       0.701754        19.0957 
 185   0.0000       0.707895        19.2628 
 186   0.0000       0.711341        19.3566 
 187   0.0000       0.716402        19.4943 
 188   0.0000       0.719135        19.5687 
 189   0.0000       0.723573        19.6894 
 190   0.0000       0.726846        19.7785 
 191   0.0000       0.734565        19.9885 
 192   0.0000       0.741771        20.1846 
 193   0.0000       0.748118        20.3573 
 194   0.0000       0.752987        20.4898 
 195   0.0000       0.755729        20.5644 
 196   0.0000       0.761857        20.7312 
 197   0.0000       0.767320        20.8798 
 198   0.0000       0.769113        20.9286 
 199   0.0000       0.779478        21.2107 
 200   0.0000       0.790011        21.4973 
 201   0.0000       0.793986        21.6054 
 202   0.0000       0.797454        21.6998 
 203   0.0000       0.806442        21.9444 
 204   0.0000       0.814896        22.1744 
 205   0.0000       0.819165        22.2906 
 206   0.0000       0.823365        22.4049 
 207   0.0000       0.828686        22.5497 
 208   0.0000       0.835574        22.7371 
 209   0.0000       0.840847        22.8806 
 210   0.0000       0.853471        23.2241 
 211   0.0000       0.857904        23.3448 
 212   0.0000       0.868900        23.6440 
 213   0.0000       0.874073        23.7847 
 214   0.0000       0.882861        24.0239 
 215   0.0000       0.899621        24.4799 
 216   0.0000       0.905966        24.6526 
 217   0.0000       0.909762        24.7559 
 218   0.0000       0.916756        24.9462 
 219   0.0000       0.929124        25.2828 
 220   0.0000       0.937026        25.4978 
 221   0.0000       0.941170        25.6105 
 222   0.0000       0.949104        25.8264 
 223   0.0000       0.956739        26.0342 
 224   0.0000       0.976755        26.5788 
 225   0.0000       0.984020        26.7766 
 226   0.0000       0.993482        27.0340 
 227   0.0000       1.004828        27.3428 
 228   0.0000       1.018182        27.7061 
 229   0.0000       1.039111        28.2756 
 230   0.0000       1.045377        28.4461 
 231   0.0000       1.053419        28.6650 
 232   0.0000       1.061836        28.8940 
 233   0.0000       1.070721        29.1358 
 234   0.0000       1.096949        29.8495 
 235   0.0000       1.102368        29.9970 
 236   0.0000       1.108307        30.1586 
 237   0.0000       1.132241        30.8099 
 238   0.0000       1.157180        31.4885 
 239   0.0000       1.171342        31.8738 
 240   0.0000       1.178314        32.0635 
 241   0.0000       1.191578        32.4245 
 242   0.0000       1.199404        32.6374 
 243   0.0000       1.208921        32.8964 
 244   0.0000       1.229913        33.4676 
 245   0.0000       1.244631        33.8681 
 246   0.0000       1.248556        33.9749 
 247   0.0000       1.269842        34.5542 
 248   0.0000       1.277731        34.7688 
 249   0.0000       1.286929        35.0191 
 250   0.0000       1.301759        35.4227 
 251   0.0000       1.313889        35.7527 
 252   0.0000       1.323207        36.0063 
 253   0.0000       1.330809        36.2132 
 254   0.0000       1.347422        36.6652 
 255   0.0000       1.356042        36.8998 
 256   0.0000       1.358852        36.9762 
 257   0.0000       1.365012        37.1439 
 258   0.0000       1.386310        37.7234 
 259   0.0000       1.396683        38.0057 
 260   0.0000       1.409360        38.3506 
 261   0.0000       1.431014        38.9399 
 262   0.0000       1.434703        39.0402 
 263   0.0000       1.442289        39.2467 
 264   0.0000       1.451738        39.5038 
 265   0.0000       1.474643        40.1271 
 266   0.0000       1.483286        40.3623 
 267   0.0000       1.489309        40.5262 
 268   0.0000       1.498201        40.7681 
 269   0.0000       1.522981        41.4424 
 270   0.0000       1.544089        42.0168 
 271   0.0000       1.549018        42.1509 
 272   0.0000       1.596783        43.4507 
 273   0.0000       1.627591        44.2890 
 274   0.0000       1.633841        44.4591 
 275   0.0000       1.690822        46.0096 
 276   0.0000       1.724622        46.9293 
 277   0.0000       1.728199        47.0267 
 278   0.0000       1.753329        47.7105 
 279   0.0000       1.764237        48.0073 
 280   0.0000       1.771759        48.2120 
 281   0.0000       1.780877        48.4601 
 282   0.0000       1.784846        48.5681 
 283   0.0000       1.795224        48.8505 
 284   0.0000       1.806146        49.1477 
 285   0.0000       1.824782        49.6549 
 286   0.0000       1.828783        49.7637 
 287   0.0000       1.834732        49.9256 
 288   0.0000       1.842795        50.1450 
 289   0.0000       1.847653        50.2772 
 290   0.0000       1.856123        50.5077 
 291   0.0000       1.862620        50.6845 
 292   0.0000       1.869297        50.8662 
 293   0.0000       1.875644        51.0389 
 294   0.0000       1.906476        51.8779 
 295   0.0000       1.910240        51.9803 
 296   0.0000       1.929070        52.4927 
 297   0.0000       1.941057        52.8188 
 298   0.0000       1.955980        53.2249 
 299   0.0000       1.960594        53.3505 
 300   0.0000       1.992027        54.2058 
 301   0.0000       2.001546        54.4648 
 302   0.0000       2.011365        54.7320 
 303   0.0000       2.019469        54.9525 
 304   0.0000       2.039740        55.5041 
 305   0.0000       2.047650        55.7194 
 306   0.0000       2.064766        56.1851 
 307   0.0000       2.072339        56.3912 
 308   0.0000       2.073257        56.4162 
 309   0.0000       2.091256        56.9060 
 310   0.0000       2.105989        57.3069 
 311   0.0000       2.111776        57.4643 
 312   0.0000       2.120651        57.7058 
 313   0.0000       2.135690        58.1151 
 314   0.0000       2.159749        58.7698 
 315   0.0000       2.170306        59.0570 
 316   0.0000       2.179349        59.3031 
 317   0.0000       2.187832        59.5339 
 318   0.0000       2.200817        59.8873 
 319   0.0000       2.233809        60.7850 
 320   0.0000       2.242257        61.0149 
 321   0.0000       2.258854        61.4666 
 322   0.0000       2.262011        61.5524 
 323   0.0000       2.285053        62.1794 
 324   0.0000       2.292551        62.3835 
 325   0.0000       2.301052        62.6148 
 326   0.0000       2.329037        63.3763 
 327   0.0000       2.347588        63.8811 
 328   0.0000       2.362620        64.2902 
 329   0.0000       2.385651        64.9169 
 330   0.0000       2.393978        65.1434 
 331   0.0000       2.414512        65.7022 
 332   0.0000       2.437901        66.3386 
 333   0.0000       2.449081        66.6429 
 334   0.0000       2.461563        66.9825 
 335   0.0000       2.464330        67.0578 
 336   0.0000       2.481259        67.5185 
 337   0.0000       2.504276        68.1448 
 338   0.0000       2.517580        68.5068 
 339   0.0000       2.521610        68.6165 
 340   0.0000       2.545467        69.2657 
 341   0.0000       2.568504        69.8926 
 342   0.0000       2.578834        70.1736 
 343   0.0000       2.586336        70.3778 
 344   0.0000       2.595063        70.6153 
 345   0.0000       2.604786        70.8798 
 346   0.0000       2.621273        71.3285 
 347   0.0000       2.631971        71.6196 
 348   0.0000       2.648554        72.0708 
 349   0.0000       2.657915        72.3255 
 350   0.0000       2.663904        72.4885 
 351   0.0000       2.673616        72.7528 
 352   0.0000       2.679177        72.9041 
 353   0.0000       2.689202        73.1769 
 354   0.0000       2.709475        73.7286 
 355   0.0000       2.722467        74.0821 
 356   0.0000       2.729663        74.2779 
 357   0.0000       2.735993        74.4502 
 358   0.0000       2.752492        74.8991 
 359   0.0000       2.758928        75.0742 
 360   0.0000       2.777004        75.5661 
 361   0.0000       2.785907        75.8084 
 362   0.0000       2.791940        75.9725 
 363   0.0000       2.811349        76.5007 
 364   0.0000       2.815694        76.6189 
 365   0.0000       2.834248        77.1238 
 366   0.0000       2.857745        77.7632 
 367   0.0000       2.864697        77.9524 
 368   0.0000       2.876871        78.2836 
 369   0.0000       2.890419        78.6523 
 370   0.0000       2.919253        79.4369 
 371   0.0000       2.924836        79.5888 
 372   0.0000       2.943789        80.1046 
 373   0.0000       2.949528        80.2607 
 374   0.0000       2.982029        81.1451 
 375   0.0000       2.991999        81.4164 
 376   0.0000       3.010119        81.9095 
 377   0.0000       3.017421        82.1082 
 378   0.0000       3.022683        82.2514 
 379   0.0000       3.048250        82.9471 
 380   0.0000       3.059646        83.2572 
 381   0.0000       3.070742        83.5592 
 382   0.0000       3.075859        83.6984 
 383   0.0000       3.099751        84.3485 
 384   0.0000       3.119616        84.8891 
 385   0.0000       3.146432        85.6188 
 386   0.0000       3.149932        85.7140 
 387   0.0000       3.158559        85.9488 
 388   0.0000       3.183407        86.6249 
 389   0.0000       3.188503        86.7636 
 390   0.0000       3.198639        87.0394 
 391   0.0000       3.230332        87.9018 
 392   0.0000       3.248664        88.4006 
 393   0.0000       3.257279        88.6351 
 394   0.0000       3.274546        89.1049 
 395   0.0000       3.285091        89.3919 
 396   0.0000       3.297274        89.7234 
 397   0.0000       3.324749        90.4710 
 398   0.0000       3.330606        90.6304 
 399   0.0000       3.339681        90.8774 
 400   0.0000       3.356885        91.3455 
 401   0.0000       3.359241        91.4096 
 402   0.0000       3.364862        91.5626 
 403   0.0000       3.377795        91.9145 
 404   0.0000       3.393173        92.3329 
 405   0.0000       3.398170        92.4689 
 406   0.0000       3.415820        92.9492 
 407   0.0000       3.419088        93.0381 
 408   0.0000       3.426211        93.2320 
 409   0.0000       3.440627        93.6242 
 410   0.0000       3.455927        94.0405 
 411   0.0000       3.463050        94.2344 
 412   0.0000       3.467641        94.3593 
 413   0.0000       3.480505        94.7094 
 414   0.0000       3.499967        95.2389 
 415   0.0000       3.508858        95.4809 
 416   0.0000       3.525875        95.9439 
 417   0.0000       3.531645        96.1010 
 418   0.0000       3.554617        96.7261 
 419   0.0000       3.562723        96.9466 
 420   0.0000       3.573485        97.2395 
 421   0.0000       3.594998        97.8249 
 422   0.0000       3.609214        98.2117 
 423   0.0000       3.623703        98.6060 
 424   0.0000       3.643564        99.1464 
 425   0.0000       3.661808        99.6429 
 426   0.0000       3.668595        99.8275 
 427   0.0000       3.704036       100.7919 
 428   0.0000       3.706318       100.8540 
 429   0.0000       3.723599       101.3243 
 430   0.0000       3.749160       102.0198 
 431   0.0000       3.777892       102.8017 
 432   0.0000       3.787650       103.0672 
 433   0.0000       3.808135       103.6246 
 434   0.0000       3.836441       104.3949 
 435   0.0000       3.853195       104.8508 
 436   0.0000       3.880902       105.6047 
 437   0.0000       3.906749       106.3080 
 438   0.0000       3.928371       106.8964 
 439   0.0000       3.944852       107.3449 
 440   0.0000       3.967503       107.9612 
 441   0.0000       3.984227       108.4163 
 442   0.0000       3.989900       108.5707 
 443   0.0000       3.998551       108.8061 
 444   0.0000       4.021465       109.4296 
 445   0.0000       4.042935       110.0139 
 446   0.0000       4.068724       110.7156 
 447   0.0000       4.078514       110.9820 
 448   0.0000       4.100943       111.5923 
 449   0.0000       4.110876       111.8626 
 450   0.0000       4.130175       112.3878 
 451   0.0000       4.142617       112.7263 
 452   0.0000       4.175497       113.6210 
 453   0.0000       4.192569       114.0856 
 454   0.0000       4.214147       114.6728 
 455   0.0000       4.226165       114.9998 
 456   0.0000       4.262733       115.9948 
 457   0.0000       4.289247       116.7163 
 458   0.0000       4.329308       117.8065 
 459   0.0000       4.352148       118.4280 
 460   0.0000       4.391920       119.5102 
 461   0.0000       4.416101       120.1682 
 462   0.0000       4.435351       120.6920 
 463   0.0000       4.476681       121.8167 
 464   0.0000       4.500576       122.4669 
 465   0.0000       4.508806       122.6908 
 466   0.0000       4.544580       123.6643 
 467   0.0000       4.584734       124.7570 
 468   0.0000       4.600190       125.1775 
 469   0.0000       4.606279       125.3432 
 470   0.0000       4.615860       125.6039 
 471   0.0000       4.679319       127.3307 
 472   0.0000       4.710791       128.1871 
 473   0.0000       4.739926       128.9800 
 474   0.0000       4.760949       129.5520 
 475   0.0000       4.775320       129.9431 
 476   0.0000       4.828244       131.3832 
 477   0.0000       4.841980       131.7570 
 478   0.0000       4.857966       132.1920 
 479   0.0000       4.881457       132.8312 
 480   0.0000       4.913242       133.6961 
 481   0.0000       4.973666       135.3403 
 482   0.0000       4.998478       136.0155 
 483   0.0000       5.089906       138.5034 
 484   0.0000       5.121329       139.3584 
 485   0.0000       5.134463       139.7158 
 486   0.0000       5.188832       141.1953 
 487   0.0000       5.210988       141.7982 
 488   0.0000       5.265288       143.2758 
 489   0.0000       5.370480       146.1382 
 490   0.0000       5.419270       147.4658 
 491   0.0000       5.481299       149.1537 
 492   0.0000       5.548381       150.9791 
 493   0.0000       5.746051       156.3580 
 494   0.0000       6.051082       164.6583 
 495   0.0000       6.793339       184.8562 
 496   0.0000       6.847680       186.3349 
 497   0.0000       6.876318       187.1141 
 498   0.0000       7.042087       191.6249 
 499   0.0000       7.219688       196.4577 
 500   0.0000       7.233851       196.8431 
 501   0.0000       7.390948       201.1179 
 502   0.0000       8.496240       231.1944 
 503   0.0000       8.618928       234.5329 
 504   0.0000       8.759636       238.3618 
 505   0.0000       8.846827       240.7344 
 506   0.0000       9.221713       250.9356 
 507   0.0000      22.380555       609.0059 
 508   0.0000      22.416324       609.9792 
 509   0.0000      22.471337       611.4762 
 510   0.0000      22.493539       612.0803 
 511   0.0000      22.567446       614.0914 
 512   0.0000      22.579519       614.4200 
 513   0.0000      22.668059       616.8292 
 514   0.0000      23.253030       632.7471 
 515   0.0000      32.144123       874.6860 
 516   0.0000      57.401795      1561.9822 

                    ********************************
                    * MULLIKEN POPULATION ANALYSIS *
                    ********************************

-----------------------
MULLIKEN ATOMIC CHARGES
-----------------------
   0 C :   -0.447312
   1 C :   -0.458529
   2 C :   -0.636011
   3 C :   -0.428231
   4 C :   -0.570141
   5 H :    0.237851
   6 C :   -0.345026
   7 H :    0.274860
   8 F :   -0.359627
   9 H :    0.277313
  10 H :    0.215981
  11 C :    0.699201
  12 N :   -0.357541
  13 C :   -1.735364
  14 H :    0.925574
  15 H :    0.210237
  16 H :    0.133969
  17 H :    0.113972
  18 H :    0.297083
  19 H :    0.198408
  20 H :    0.308587
  21 H :    0.278963
  22 H :    0.352630
  23 H :    0.211372
  24 H :    0.309163
  25 H :    0.292617
Sum of atomic charges:   -0.0000000

--------------------------------
MULLIKEN REDUCED ORBITAL CHARGES
--------------------------------
  0 C s       :     3.349055  s :     3.349055
      pz      :     1.048599  p :     3.132709
      px      :     1.006026
      py      :     1.078085
      dz2     :     0.010385  d :    -0.040093
      dxz     :    -0.029143
      dyz     :    -0.014166
      dx2y2   :    -0.031786
      dxy     :     0.024617
      f0      :     0.001173  f :     0.005641
      f+1     :     0.000686
      f-1     :     0.000731
      f+2     :     0.000746
      f-2     :     0.000712
      f+3     :     0.000905
      f-3     :     0.000687
  1 C s       :     3.424650  s :     3.424650
      pz      :     1.159822  p :     3.021943
      px      :     0.984142
      py      :     0.877978
      dz2     :    -0.031679  d :     0.006403
      dxz     :    -0.010950
      dyz     :     0.030479
      dx2y2   :     0.013656
      dxy     :     0.004896
      f0      :     0.000632  f :     0.005533
      f+1     :     0.000250
      f-1     :     0.000849
      f+2     :     0.000451
      f-2     :     0.000806
      f+3     :     0.001298
      f-3     :     0.001247
  2 C s       :     3.380007  s :     3.380007
      pz      :     0.989369  p :     3.075810
      px      :     1.126800
      py      :     0.959642
      dz2     :     0.049030  d :     0.174671
      dxz     :    -0.029175
      dyz     :     0.066478
      dx2y2   :     0.052935
      dxy     :     0.035402
      f0      :     0.001104  f :     0.005522
      f+1     :     0.000476
      f-1     :     0.001200
      f+2     :     0.000683
      f-2     :     0.001238
      f+3     :     0.000203
      f-3     :     0.000618
  3 C s       :     3.386684  s :     3.386684
      pz      :     1.085573  p :     3.030208
      px      :     1.034621
      py      :     0.910014
      dz2     :    -0.021946  d :     0.005806
      dxz     :     0.036947
      dyz     :    -0.011782
      dx2y2   :    -0.021814
      dxy     :     0.024401
      f0      :     0.000451  f :     0.005532
      f+1     :     0.001114
      f-1     :     0.000391
      f+2     :     0.000359
      f-2     :     0.001497
      f+3     :     0.000972
      f-3     :     0.000748
  4 C s       :     3.352273  s :     3.352273
      pz      :     0.951731  p :     3.196178
      px      :     1.088691
      py      :     1.155756
      dz2     :    -0.002785  d :     0.016223
      dxz     :     0.018759
      dyz     :     0.003589
      dx2y2   :    -0.020214
      dxy     :     0.016875
      f0      :     0.001045  f :     0.005467
      f+1     :     0.001342
      f-1     :     0.000363
      f+2     :     0.000603
      f-2     :     0.001277
      f+3     :     0.000656
      f-3     :     0.000180
  5 H s       :     0.702450  s :     0.702450
      pz      :     0.022826  p :     0.059699
      px      :     0.015791
      py      :     0.021081
  6 C s       :     3.458924  s :     3.458924
      pz      :     0.936124  p :     2.720784
      px      :     0.825113
      py      :     0.959547
      dz2     :     0.027707  d :     0.152843
      dxz     :     0.031392
      dyz     :     0.035111
      dx2y2   :     0.052282
      dxy     :     0.006350
      f0      :     0.001297  f :     0.012475
      f+1     :     0.002076
      f-1     :     0.001546
      f+2     :     0.001501
      f-2     :     0.001957
      f+3     :     0.002559
      f-3     :     0.001539
  7 H s       :     0.678190  s :     0.678190
      pz      :     0.010733  p :     0.046950
      px      :     0.010349
      py      :     0.025868
  8 F s       :     4.020744  s :     4.020744
      pz      :     1.884960  p :     5.315474
      px      :     1.658032
      py      :     1.772482
      dz2     :     0.004871  d :     0.022775
      dxz     :     0.006283
      dyz     :     0.002972
      dx2y2   :     0.008029
      dxy     :     0.000620
      f0      :     0.000069  f :     0.000633
      f+1     :     0.000088
      f-1     :     0.000045
      f+2     :     0.000053
      f-2     :     0.000127
      f+3     :     0.000097
      f-3     :     0.000155
  9 H s       :     0.652816  s :     0.652816
      pz      :     0.012439  p :     0.069872
      px      :     0.029114
      py      :     0.028319
 10 H s       :     0.705551  s :     0.705551
      pz      :     0.034892  p :     0.078469
      px      :     0.010187
      py      :     0.033390
 11 C s       :     3.405445  s :     3.405445
      pz      :     0.665591  p :     1.939716
      px      :     0.682189
      py      :     0.591936
      dz2     :     0.001770  d :    -0.058398
      dxz     :     0.074080
      dyz     :    -0.119017
      dx2y2   :     0.008960
      dxy     :    -0.024192
      f0      :     0.002169  f :     0.014037
      f+1     :     0.001293
      f-1     :     0.001573
      f+2     :     0.001517
      f-2     :     0.002693
      f+3     :     0.003039
      f-3     :     0.001753
 12 N s       :     3.481729  s :     3.481729
      pz      :     1.332628  p :     3.827472
      px      :     1.230429
      py      :     1.264416
      dz2     :     0.009006  d :     0.045128
      dxz     :     0.013077
      dyz     :     0.010598
      dx2y2   :     0.011668
      dxy     :     0.000778
      f0      :     0.000274  f :     0.003211
      f+1     :     0.000488
      f-1     :     0.000285
      f+2     :     0.000515
      f-2     :     0.000621
      f+3     :     0.000630
      f-3     :     0.000398
 13 C s       :     3.888967  s :     3.888967
      pz      :     1.033630  p :     3.780516
      px      :     1.307248
      py      :     1.439638
      dz2     :     0.005264  d :     0.061150
      dxz     :     0.003201
      dyz     :     0.027477
      dx2y2   :     0.014228
      dxy     :     0.010981
      f0      :     0.000851  f :     0.004730
      f+1     :     0.000650
      f-1     :     0.000492
      f+2     :     0.000738
      f-2     :     0.001060
      f+3     :     0.000345
      f-3     :     0.000595
 14 H s       :     0.087835  s :     0.087835
      pz      :    -0.075353  p :    -0.013409
      px      :     0.083649
      py      :    -0.021704
 15 H s       :     0.655677  s :     0.655677
      pz      :     0.015536  p :     0.134086
      px      :     0.059034
      py      :     0.059515
 16 H s       :     0.799668  s :     0.799668
      pz      :     0.028227  p :     0.066363
      px      :     0.022999
      py      :     0.015138
 17 H s       :     0.816424  s :     0.816424
      pz      :     0.022235  p :     0.069604
      px      :     0.011310
      py      :     0.036058
 18 H s       :     0.667083  s :     0.667083
      pz      :     0.025927  p :     0.035834
      px      :     0.017708
      py      :    -0.007801
 19 H s       :     0.717613  s :     0.717613
      pz      :     0.012892  p :     0.083979
      px      :     0.044824
      py      :     0.026263
 20 H s       :     0.662926  s :     0.662926
      pz      :     0.020752  p :     0.028486
      px      :     0.013957
      py      :    -0.006222
 21 H s       :     0.644499  s :     0.644499
      pz      :     0.039531  p :     0.076538
      px      :     0.016443
      py      :     0.020565
 22 H s       :     0.593882  s :     0.593882
      pz      :     0.011471  p :     0.053488
      px      :     0.029714
      py      :     0.012304
 23 H s       :     0.730020  s :     0.730020
      pz      :     0.029087  p :     0.058608
      px      :     0.016287
      py      :     0.013234
 24 H s       :     0.658679  s :     0.658679
      pz      :     0.025832  p :     0.032158
      px      :     0.010390
      py      :    -0.004063
 25 H s       :     0.665905  s :     0.665905
      pz      :     0.002668  p :     0.041478
      px      :     0.007144
      py      :     0.031666


                     *******************************
                     * LOEWDIN POPULATION ANALYSIS *
                     *******************************

----------------------
LOEWDIN ATOMIC CHARGES
----------------------
   0 C :   -0.188738
   1 C :   -0.195631
   2 C :   -0.140046
   3 C :   -0.203308
   4 C :   -0.171779
   5 H :    0.115129
   6 C :   -0.223258
   7 H :    0.103752
   8 F :   -0.024543
   9 H :    0.102549
  10 H :    0.105525
  11 C :   -0.469883
  12 N :    0.112850
  13 C :    0.035770
  14 H :   -0.040309
  15 H :    0.033630
  16 H :    0.094639
  17 H :    0.098681
  18 H :    0.109346
  19 H :    0.097509
  20 H :    0.106761
  21 H :    0.093810
  22 H :    0.112113
  23 H :    0.098084
  24 H :    0.118583
  25 H :    0.118763

-------------------------------
LOEWDIN REDUCED ORBITAL CHARGES
-------------------------------
  0 C s       :     2.680431  s :     2.680431
      pz      :     0.904716  p :     2.730295
      px      :     0.908047
      py      :     0.917532
      dz2     :     0.119823  d :     0.738232
      dxz     :     0.168445
      dyz     :     0.176674
      dx2y2   :     0.111814
      dxy     :     0.161477
      f0      :     0.007676  f :     0.039779
      f+1     :     0.005701
      f-1     :     0.003962
      f+2     :     0.006538
      f-2     :     0.005113
      f+3     :     0.006034
      f-3     :     0.004755
  1 C s       :     2.673411  s :     2.673411
      pz      :     0.912397  p :     2.732752
      px      :     0.902488
      py      :     0.917866
      dz2     :     0.088113  d :     0.748961
      dxz     :     0.136295
      dyz     :     0.160759
      dx2y2   :     0.185787
      dxy     :     0.178007
      f0      :     0.004145  f :     0.040508
      f+1     :     0.004498
      f-1     :     0.004773
      f+2     :     0.005717
      f-2     :     0.004928
      f+3     :     0.008321
      f-3     :     0.008126
  2 C s       :     2.661516  s :     2.661516
      pz      :     0.902642  p :     2.706525
      px      :     0.899351
      py      :     0.904532
      dz2     :     0.191470  d :     0.731581
      dxz     :     0.127406
      dyz     :     0.180106
      dx2y2   :     0.076614
      dxy     :     0.155984
      f0      :     0.007633  f :     0.040423
      f+1     :     0.004904
      f-1     :     0.007626
      f+2     :     0.006254
      f-2     :     0.006408
      f+3     :     0.002432
      f-3     :     0.005166
  3 C s       :     2.673783  s :     2.673783
      pz      :     0.911956  p :     2.737330
      px      :     0.906522
      py      :     0.918852
      dz2     :     0.126821  d :     0.751677
      dxz     :     0.160277
      dyz     :     0.141059
      dx2y2   :     0.149390
      dxy     :     0.174132
      f0      :     0.004318  f :     0.040518
      f+1     :     0.007299
      f-1     :     0.004254
      f+2     :     0.004411
      f-2     :     0.007392
      f+3     :     0.007469
      f-3     :     0.005374
  4 C s       :     2.687807  s :     2.687807
      pz      :     0.904007  p :     2.746752
      px      :     0.917674
      py      :     0.925071
      dz2     :     0.192332  d :     0.698507
      dxz     :     0.145607
      dyz     :     0.122772
      dx2y2   :     0.054678
      dxy     :     0.183118
      f0      :     0.007926  f :     0.038713
      f+1     :     0.007442
      f-1     :     0.004388
      f+2     :     0.005339
      f-2     :     0.005983
      f+3     :     0.005288
      f-3     :     0.002347
  5 H s       :     0.684507  s :     0.684507
      pz      :     0.056729  p :     0.200364
      px      :     0.065182
      py      :     0.078453
  6 C s       :     2.682084  s :     2.682084
      pz      :     0.904683  p :     2.564287
      px      :     0.797983
      py      :     0.861620
      dz2     :     0.166285  d :     0.886291
      dxz     :     0.239890
      dyz     :     0.128383
      dx2y2   :     0.196522
      dxy     :     0.155212
      f0      :     0.010834  f :     0.090596
      f+1     :     0.012013
      f-1     :     0.011332
      f+2     :     0.010245
      f-2     :     0.015443
      f+3     :     0.016752
      f-3     :     0.013977
  7 H s       :     0.689621  s :     0.689621
      pz      :     0.054023  p :     0.206627
      px      :     0.067031
      py      :     0.085573
  8 F s       :     3.531139  s :     3.531139
      pz      :     1.772651  p :     5.153598
      px      :     1.650767
      py      :     1.730180
      dz2     :     0.056519  d :     0.338033
      dxz     :     0.061032
      dyz     :     0.032905
      dx2y2   :     0.082370
      dxy     :     0.105207
      f0      :     0.000133  f :     0.001772
      f+1     :     0.000268
      f-1     :     0.000146
      f+2     :     0.000154
      f-2     :     0.000303
      f+3     :     0.000303
      f-3     :     0.000465
  9 H s       :     0.686237  s :     0.686237
      pz      :     0.060932  p :     0.211214
      px      :     0.072555
      py      :     0.077726
 10 H s       :     0.685735  s :     0.685735
      pz      :     0.070556  p :     0.208740
      px      :     0.054646
      py      :     0.083538
 11 C s       :     2.608896  s :     2.608896
      pz      :     0.896156  p :     2.583548
      px      :     0.861325
      py      :     0.826067
      dz2     :     0.239361  d :     1.185511
      dxz     :     0.223187
      dyz     :     0.222521
      dx2y2   :     0.262234
      dxy     :     0.238208
      f0      :     0.013726  f :     0.091927
      f+1     :     0.010371
      f-1     :     0.010563
      f+2     :     0.011326
      f-2     :     0.014488
      f+3     :     0.019511
      f-3     :     0.011942
 12 N s       :     2.905861  s :     2.905861
      pz      :     1.182611  p :     3.564290
      px      :     1.192052
      py      :     1.189627
      dz2     :     0.042693  d :     0.405222
      dxz     :     0.110331
      dyz     :     0.055427
      dx2y2   :     0.112168
      dxy     :     0.084602
      f0      :     0.001072  f :     0.011777
      f+1     :     0.001664
      f-1     :     0.001171
      f+2     :     0.001656
      f-2     :     0.001776
      f+3     :     0.002700
      f-3     :     0.001739
 13 C s       :     2.699483  s :     2.699483
      pz      :     0.934793  p :     2.779501
      px      :     0.938013
      py      :     0.906696
      dz2     :     0.084361  d :     0.449984
      dxz     :     0.089777
      dyz     :     0.108657
      dx2y2   :     0.088199
      dxy     :     0.078990
      f0      :     0.005029  f :     0.035262
      f+1     :     0.007566
      f-1     :     0.003410
      f+2     :     0.006808
      f-2     :     0.005929
      f+3     :     0.002583
      f-3     :     0.003937
 14 H s       :     0.623866  s :     0.623866
      pz      :     0.084278  p :     0.416443
      px      :     0.195093
      py      :     0.137073
 15 H s       :     0.724638  s :     0.724638
      pz      :     0.078958  p :     0.241732
      px      :     0.066747
      py      :     0.096027
 16 H s       :     0.630268  s :     0.630268
      pz      :     0.110003  p :     0.275093
      px      :     0.087593
      py      :     0.077497
 17 H s       :     0.634107  s :     0.634107
      pz      :     0.090748  p :     0.267213
      px      :     0.069066
      py      :     0.107399
 18 H s       :     0.689014  s :     0.689014
      pz      :     0.085843  p :     0.201641
      px      :     0.056842
      py      :     0.058956
 19 H s       :     0.663929  s :     0.663929
      pz      :     0.078179  p :     0.238562
      px      :     0.082305
      py      :     0.078078
 20 H s       :     0.690921  s :     0.690921
      pz      :     0.086026  p :     0.202318
      px      :     0.054415
      py      :     0.061876
 21 H s       :     0.658365  s :     0.658365
      pz      :     0.109974  p :     0.247825
      px      :     0.064699
      py      :     0.073151
 22 H s       :     0.684636  s :     0.684636
      pz      :     0.052215  p :     0.203251
      px      :     0.087260
      py      :     0.063776
 23 H s       :     0.656637  s :     0.656637
      pz      :     0.073238  p :     0.245279
      px      :     0.102722
      py      :     0.069320
 24 H s       :     0.693007  s :     0.693007
      pz      :     0.070037  p :     0.188409
      px      :     0.072373
      py      :     0.045999
 25 H s       :     0.666470  s :     0.666470
      pz      :     0.061485  p :     0.214768
      px      :     0.064289
      py      :     0.088993


                      *****************************
                      * MAYER POPULATION ANALYSIS *
                      *****************************

  NA   - Mulliken gross atomic population
  ZA   - Total nuclear charge
  QA   - Mulliken gross atomic charge
  VA   - Mayer's total valence
  BVA  - Mayer's bonded valence
  FA   - Mayer's free valence

  ATOM       NA         ZA         QA         VA         BVA        FA
  0 C      6.4473     6.0000    -0.4473     3.8324     3.8324    -0.0000
  1 C      6.4585     6.0000    -0.4585     3.3561     3.3561    -0.0000
  2 C      6.6360     6.0000    -0.6360     3.6796     3.6796     0.0000
  3 C      6.4282     6.0000    -0.4282     3.3267     3.3267    -0.0000
  4 C      6.5701     6.0000    -0.5701     3.8192     3.8192     0.0000
  5 H      0.7621     1.0000     0.2379     0.9867     0.9867     0.0000
  6 C      6.3450     6.0000    -0.3450     3.6641     3.6641     0.0000
  7 H      0.7251     1.0000     0.2749     0.9299     0.9299     0.0000
  8 F      9.3596     9.0000    -0.3596     0.7919     0.7919     0.0000
  9 H      0.7227     1.0000     0.2773     0.8936     0.8936    -0.0000
 10 H      0.7840     1.0000     0.2160     0.9635     0.9635    -0.0000
 11 C      5.3008     6.0000     0.6992     2.4510     2.4510    -0.0000
 12 N      7.3575     7.0000    -0.3575     3.1495     3.1495    -0.0000
 13 C      7.7354     6.0000    -1.7354     3.2580     3.2580    -0.0000
 14 H      0.0744     1.0000     0.9256    -0.1301    -0.1301     0.0000
 15 H      0.7898     1.0000     0.2102     1.1622     1.1622    -0.0000
 16 H      0.8660     1.0000     0.1340     1.0331     1.0331     0.0000
 17 H      0.8860     1.0000     0.1140     1.0581     1.0581    -0.0000
 18 H      0.7029     1.0000     0.2971     0.8843     0.8843    -0.0000
 19 H      0.8016     1.0000     0.1984     1.0526     1.0526     0.0000
 20 H      0.6914     1.0000     0.3086     0.8803     0.8803     0.0000
 21 H      0.7210     1.0000     0.2790     1.0133     1.0133     0.0000
 22 H      0.6474     1.0000     0.3526     0.8797     0.8797    -0.0000
 23 H      0.7886     1.0000     0.2114     1.0429     1.0429     0.0000
 24 H      0.6908     1.0000     0.3092     0.8377     0.8377    -0.0000
 25 H      0.7074     1.0000     0.2926     0.9201     0.9201     0.0000

  Mayer bond orders larger than 0.100000
B(  0-C ,  1-C ) :   0.9288 B(  0-C ,  2-C ) :   0.8095 B(  0-C ,  3-C ) :   0.2055 
B(  0-C ,  9-H ) :   0.8516 B(  0-C , 10-H ) :   0.9793 B(  1-C ,  3-C ) :   0.5338 
B(  1-C ,  4-C ) :   0.1342 B(  1-C , 20-H ) :   0.9247 B(  1-C , 21-H ) :   0.9872 
B(  2-C , 11-C ) :   0.6839 B(  2-C , 12-N ) :   0.1442 B(  2-C , 13-C ) :   0.1013 
B(  2-C , 22-H ) :   0.9249 B(  2-C , 23-H ) :   1.0136 B(  3-C ,  4-C ) :   0.8621 
B(  3-C , 18-H ) :   0.9304 B(  3-C , 19-H ) :   1.0098 B(  4-C ,  5-H ) :   0.9671 
B(  4-C ,  6-C ) :   0.8412 B(  4-C ,  7-H ) :   0.9523 B(  4-C ,  8-F ) :   0.1303 
B(  6-C ,  8-F ) :   0.7763 B(  6-C , 13-C ) :   0.1974 B(  6-C , 24-H ) :   0.8614 
B(  6-C , 25-H ) :   0.9644 B(  8-F , 13-C ) :   0.1562 B(  8-F , 14-H ) :  -0.2948 
B( 11-C , 12-N ) :   0.8012 B( 11-C , 13-C ) :   1.0878 B( 11-C , 15-H ) :  -0.1385 
B( 12-N , 16-H ) :   1.0552 B( 12-N , 17-H ) :   1.0458 B( 13-C , 14-H ) :   0.3209 
B( 13-C , 15-H ) :   1.2527 

-------
TIMINGS
-------

Total SCF time: 0 days 0 hours 0 min 47 sec 

Total time                  ....      47.954 sec
Sum of individual times     ....      47.173 sec  ( 98.4%)

Fock matrix formation       ....      42.806 sec  ( 89.3%)
  Split-RI-J                ....      12.317 sec  ( 28.8% of F)
  XC integration            ....      30.257 sec  ( 70.7% of F)
    Basis function eval.    ....       6.606 sec  ( 21.8% of XC)
    Density eval.           ....      10.404 sec  ( 34.4% of XC)
    XC-Functional eval.     ....       0.375 sec  (  1.2% of XC)
    XC-Potential eval.      ....      12.040 sec  ( 39.8% of XC)
Diagonalization             ....       0.688 sec  (  1.4%)
Density matrix formation    ....       0.045 sec  (  0.1%)
Population analysis         ....       0.141 sec  (  0.3%)
Initial guess               ....       1.118 sec  (  2.3%)
Orbital Transformation      ....       0.000 sec  (  0.0%)
Orbital Orthonormalization  ....       0.000 sec  (  0.0%)
DIIS solution               ....       0.365 sec  (  0.8%)
SOSCF solution              ....       0.662 sec  (  1.4%)
Grid generation             ....       1.347 sec  (  2.8%)

Maximum memory used throughout the entire SCF-calculation: 73.3 MB


-------------------------------------------------------------------------------
                          DFT DISPERSION CORRECTION                            
                                                                               
                              DFTD3 V3.1  Rev 1                                
                          USING Becke-Johnson damping                          
-------------------------------------------------------------------------------
The BLYP functional is recognized
Active option DFTDOPT                   ...         4   

molecular C6(AA) [au] = 4922.683556 


            DFT-D V3
 parameters
 s6 scaling factor         :     1.0000 
 a1 scaling factor         :     0.4298 
 s8 scaling factor         :     2.6996 
 a2 scaling factor         :     4.2359 
 ad hoc parameters k1-k3   :    16.0000     1.3333    -4.0000 

 Edisp/kcal,au: -33.535429225103  -0.053442102524 
 E6   /kcal   : -13.997066109 
 E8   /kcal   : -19.538363116 
 % E8         :  58.261854902 

-------------------------   ----------------
Dispersion correction           -0.053442103
-------------------------   ----------------


-------------------------   --------------------
FINAL SINGLE POINT ENERGY      -469.018104669880
-------------------------   --------------------


                            ***************************************
                            *     ORCA property calculations      *
                            ***************************************

                                    ---------------------
                                    Active property flags
                                    ---------------------
   (+) Dipole Moment


------------------------------------------------------------------------------
                       ORCA ELECTRIC PROPERTIES CALCULATION
------------------------------------------------------------------------------

Dipole Moment Calculation                       ... on
Quadrupole Moment Calculation                   ... off
Polarizability Calculation                      ... off
GBWName                                         ... 28Oct_TZVPD_BLYP_D2_wb97.gbw
Electron density file                           ... 28Oct_TZVPD_BLYP_D2_wb97.scfp
The origin for moment calculation is the CENTER OF MASS  = ( 1.339881, -4.006805 -6.229736)

-------------
DIPOLE MOMENT
-------------
                                X             Y             Z
Electronic contribution:      0.44507      -1.33528       6.10119
Nuclear contribution   :     -0.73748       1.64619      -6.72655
                        -----------------------------------------
Total Dipole Moment    :     -0.29241       0.31091      -0.62536
                        -----------------------------------------
Magnitude (a.u.)       :      0.75713
Magnitude (Debye)      :      1.92448



--------------------
Rotational spectrum 
--------------------
 
Rotational constants in cm-1:     0.063169     0.031711     0.023958 
Rotational constants in MHz :  1893.751676   950.657187   718.229932 

 Dipole components along the rotational axes: 
x,y,z [a.u.] :    -0.247941     0.545085     0.463311 
x,y,z [Debye]:    -0.630217     1.385495     1.177642 

 

Timings for individual modules:

Sum of individual times         ...       49.228 sec (=   0.820 min)
GTO integral calculation        ...        0.905 sec (=   0.015 min)   1.8 %
SCF iterations                  ...       48.323 sec (=   0.805 min)  98.2 %
                             ****ORCA TERMINATED NORMALLY****
TOTAL RUN TIME: 0 days 0 hours 0 minutes 49 seconds 867 msec
