
                                        *****************
                                        * O   R   C   A *
                                        *****************

                                            #,                                       
                                            ###                                      
                                            ####                                     
                                            #####                                    
                                            ######                                   
                                           ########,                                 
                                     ,,################,,,,,                         
                               ,,#################################,,                 
                          ,,##########################################,,             
                       ,#########################################, ''#####,          
                    ,#############################################,,   '####,        
                  ,##################################################,,,,####,       
                ,###########''''           ''''###############################       
              ,#####''   ,,,,##########,,,,          '''####'''          '####       
            ,##' ,,,,###########################,,,                        '##       
           ' ,,###''''                  '''############,,,                           
         ,,##''                                '''############,,,,        ,,,,,,###''
      ,#''                                            '''#######################'''  
     '                                                          ''''####''''         
             ,#######,   #######,   ,#######,      ##                                
            ,#'     '#,  ##    ##  ,#'     '#,    #''#        ######   ,####,        
            ##       ##  ##   ,#'  ##            #'  '#       #        #'  '#        
            ##       ##  #######   ##           ,######,      #####,   #    #        
            '#,     ,#'  ##    ##  '#,     ,#' ,#      #,         ##   #,  ,#        
             '#######'   ##     ##  '#######'  #'      '#     #####' # '####'        



                  #######################################################
                  #                        -***-                        #
                  #          Department of theory and spectroscopy      #
                  #    Directorship and core code : Frank Neese         #
                  #        Max Planck Institute fuer Kohlenforschung    #
                  #                Kaiser Wilhelm Platz 1               #
                  #                 D-45470 Muelheim/Ruhr               #
                  #                      Germany                        #
                  #                                                     #
                  #                  All rights reserved                #
                  #                        -***-                        #
                  #######################################################


                         Program Version 5.0.0 -  RELEASE  -
                                (SVN: $Rev: 19529$)
                ($Date: 2021-06-28 11:36:33 +0200 (Mo, 28 Jun 2021) $)


 With contributions from (in alphabetic order):
   Daniel Aravena         : Magnetic Suceptibility
   Michael Atanasov       : Ab Initio Ligand Field Theory (pilot matlab implementation)
   Alexander A. Auer      : GIAO ZORA, VPT2 properties, NMR spectrum
   Ute Becker             : Parallelization
   Giovanni Bistoni       : ED, misc. LED, open-shell LED, HFLD
   Martin Brehm           : Molecular dynamics
   Dmytro Bykov           : SCF Hessian
   Vijay G. Chilkuri      : MRCI spin determinant printing, contributions to CSF-ICE
   Dipayan Datta          : RHF DLPNO-CCSD density
   Achintya Kumar Dutta   : EOM-CC, STEOM-CC
   Dmitry Ganyushin       : Spin-Orbit,Spin-Spin,Magnetic field MRCI
   Miquel Garcia          : C-PCM Hessian, Gaussian charge scheme
   Yang Guo               : DLPNO-NEVPT2, F12-NEVPT2, CIM, IAO-localization
   Andreas Hansen         : Spin unrestricted coupled pair/coupled cluster methods
   Benjamin Helmich-Paris : MC-RPA, TRAH-SCF, COSX integrals
   Lee Huntington         : MR-EOM, pCC
   Robert Izsak           : Overlap fitted RIJCOSX, COSX-SCS-MP3, EOM
   Marcus Kettner         : VPT2
   Christian Kollmar      : KDIIS, OOCD, Brueckner-CCSD(T), CCSD density, CASPT2, CASPT2-K
   Simone Kossmann        : Meta GGA functionals, TD-DFT gradient, OOMP2, MP2 Hessian
   Martin Krupicka        : Initial AUTO-CI
   Lucas Lang             : DCDCAS
   Marvin Lechner         : AUTO-CI (C++ implementation), FIC-MRCC
   Dagmar Lenk            : GEPOL surface, SMD
   Dimitrios Liakos       : Extrapolation schemes; Compound Job, initial MDCI parallelization
   Dimitrios Manganas     : Further ROCIS development; embedding schemes
   Dimitrios Pantazis     : SARC Basis sets
   Anastasios Papadopoulos: AUTO-CI, single reference methods and gradients
   Taras Petrenko         : DFT Hessian,TD-DFT gradient, ASA, ECA, R-Raman, ABS, FL, XAS/XES, NRVS
   Peter Pinski           : DLPNO-MP2, DLPNO-MP2 Gradient
   Christoph Reimann      : Effective Core Potentials
   Marius Retegan         : Local ZFS, SOC
   Christoph Riplinger    : Optimizer, TS searches, QM/MM, DLPNO-CCSD(T), (RO)-DLPNO pert. Triples
   Tobias Risthaus        : Range-separated hybrids, TD-DFT gradient, RPA, STAB
   Michael Roemelt        : Original ROCIS implementation
   Masaaki Saitow         : Open-shell DLPNO-CCSD energy and density
   Barbara Sandhoefer     : DKH picture change effects
   Avijit Sen             : IP-ROCIS
   Kantharuban Sivalingam : CASSCF convergence, NEVPT2, FIC-MRCI
   Bernardo de Souza      : ESD, SOC TD-DFT
   Georgi Stoychev        : AutoAux, RI-MP2 NMR
   Willem Van den Heuvel  : Paramagnetic NMR
   Boris Wezisla          : Elementary symmetry handling
   Frank Wennmohs         : Technical directorship


 We gratefully acknowledge several colleagues who have allowed us to
 interface, adapt or use parts of their codes:
   Stefan Grimme, W. Hujo, H. Kruse, P. Pracht,  : VdW corrections, initial TS optimization,
                  C. Bannwarth, S. Ehlert          DFT functionals, gCP, sTDA/sTD-DF
   Ed Valeev, F. Pavosevic, A. Kumar             : LibInt (2-el integral package), F12 methods
   Garnet Chan, S. Sharma, J. Yang, R. Olivares  : DMRG
   Ulf Ekstrom                                   : XCFun DFT Library
   Mihaly Kallay                                 : mrcc  (arbitrary order and MRCC methods)
   Jiri Pittner, Ondrej Demel                    : Mk-CCSD
   Frank Weinhold                                : gennbo (NPA and NBO analysis)
   Christopher J. Cramer and Donald G. Truhlar   : smd solvation model
   Lars Goerigk                                  : TD-DFT with DH, B97 family of functionals
   V. Asgeirsson, H. Jonsson                     : NEB implementation
   FAccTs GmbH                                   : IRC, NEB, NEB-TS, DLPNO-Multilevel, CI-OPT
                                                   MM, QMMM, 2- and 3-layer-ONIOM, Crystal-QMMM,
                                                   LR-CPCM, SF, NACMEs, symmetry and pop. for TD-DFT,
                                                   nearIR, NL-DFT gradient (VV10), updates on ESD,
                                                   ML-optimized integration grids
   S Lehtola, MJT Oliveira, MAL Marques          : LibXC Library
   Liviu Ungur et al                             : ANISO software


 Your calculation uses the libint2 library for the computation of 2-el integrals
 For citations please refer to: http://libint.valeyev.net

 Your ORCA version has been built with support for libXC version: 5.1.0
 For citations please refer to: https://tddft.org/programs/libxc/

 This ORCA versions uses:
   CBLAS   interface :  Fast vector & matrix operations
   LAPACKE interface :  Fast linear algebra routines
   SCALAPACK package :  Parallel linear algebra routines
   Shared memory     :  Shared parallel matrices
   BLAS/LAPACK       :  OpenBLAS 0.3.15  USE64BITINT DYNAMIC_ARCH NO_AFFINITY Haswell SINGLE_THREADED
        Core in use  :  Haswell
   Copyright (c) 2011-2014, The OpenBLAS Project


================================================================================

----- Orbital basis set information -----
Your calculation utilizes the basis: def2-TZVPD
   F. Weigend and R. Ahlrichs, Phys. Chem. Chem. Phys. 7, 3297 (2005).
   D. Rappoport and F. Furche, J. Chem. Phys. 133 134105 (2010).

----- AuxJ basis set information -----
Your calculation utilizes the auxiliary basis: def2/J
   F. Weigend, Phys. Chem. Chem. Phys. 8, 1057 (2006).

================================================================================
                                        WARNINGS
                       Please study these warnings very carefully!
================================================================================


INFO   : the flag for use of the SHARK integral package has been found!

================================================================================
                                       INPUT FILE
================================================================================
NAME = TZVPD_LC_PBE_A_wt_dlpno_pos.com
|  1> !LC-PBE RIJCOSX def2-TZVPD def2/J TightSCF
|  2> *xyz 1 1 
|  3> C          0.64866        1.00359       -3.64560
|  4> N          0.28128        0.67645       -2.24018
|  5> C          0.13297        2.38587       -4.02462
|  6> H          0.39079       -0.31925       -2.02649
|  7> H         -0.69269        0.99010       -2.13812
|  8> H          0.85421        1.21221       -1.57528
|  9> H          0.19099        0.23965       -4.27575
| 10> H          1.73157        0.93173       -3.75075
| 11> H          0.40589        2.60338       -5.03610
| 12> H          0.56342        3.11797       -3.37374
| 13> H         -0.93265        2.40724       -3.93025
| 14> *
| 15> %MaxCore 64000
| 16> 
| 17> %pal nprocs 4
| 18> end  
| 19> 
| 20> %scf
| 21>   MaxIter 150
| 22> end
| 23> 
| 24> 
| 25>                          ****END OF INPUT****
================================================================================

                       ****************************
                       * Single Point Calculation *
                       ****************************

---------------------------------
CARTESIAN COORDINATES (ANGSTROEM)
---------------------------------
  C      0.648660    1.003590   -3.645600
  N      0.281280    0.676450   -2.240180
  C      0.132970    2.385870   -4.024620
  H      0.390790   -0.319250   -2.026490
  H     -0.692690    0.990100   -2.138120
  H      0.854210    1.212210   -1.575280
  H      0.190990    0.239650   -4.275750
  H      1.731570    0.931730   -3.750750
  H      0.405890    2.603380   -5.036100
  H      0.563420    3.117970   -3.373740
  H     -0.932650    2.407240   -3.930250

----------------------------
CARTESIAN COORDINATES (A.U.)
----------------------------
  NO LB      ZA    FRAG     MASS         X           Y           Z
   0 C     6.0000    0    12.011    1.225790    1.896510   -6.889186
   1 N     7.0000    0    14.007    0.531542    1.278305   -4.233327
   2 C     6.0000    0    12.011    0.251277    4.508641   -7.605430
   3 H     1.0000    0     1.008    0.738486   -0.603295   -3.829511
   4 H     1.0000    0     1.008   -1.308994    1.871018   -4.040461
   5 H     1.0000    0     1.008    1.614223    2.290745   -2.976848
   6 H     1.0000    0     1.008    0.360919    0.452873   -8.079997
   7 H     1.0000    0     1.008    3.272193    1.760715   -7.087890
   8 H     1.0000    0     1.008    0.767021    4.919675   -9.516850
   9 H     1.0000    0     1.008    1.064709    5.892109   -6.375445
  10 H     1.0000    0     1.008   -1.762453    4.549024   -7.427096

--------------------------------
INTERNAL COORDINATES (ANGSTROEM)
--------------------------------
 C      0   0   0     0.000000000000     0.00000000     0.00000000
 N      1   0   0     1.489024519744     0.00000000     0.00000000
 C      1   2   0     1.523249925291   110.52972337     0.00000000
 H      2   1   3     1.024243304201   112.58892905   165.09834246
 H      2   1   3     1.028304491384   105.09108425    42.74206744
 H      2   1   3     1.028289634539   110.99990650   286.54439674
 H      1   2   3     1.090942333490   106.72840787   239.83662356
 H      1   2   3     1.090373537005   108.75835793   123.14312847
 H      3   1   2     1.069994260218   109.47119075   180.00011491
 H      3   1   2     1.070001115373   109.47117776    59.99996876
 H      3   1   2     1.070003905694   109.47145656   300.00033926

---------------------------
INTERNAL COORDINATES (A.U.)
---------------------------
 C      0   0   0     0.000000000000     0.00000000     0.00000000
 N      1   0   0     2.813848549011     0.00000000     0.00000000
 C      1   2   0     2.878525192317   110.52972337     0.00000000
 H      2   1   3     1.935539339442   112.58892905   165.09834246
 H      2   1   3     1.943213870996   105.09108425    42.74206744
 H      2   1   3     1.943185795628   110.99990650   286.54439674
 H      1   2   3     2.061582238197   106.72840787   239.83662356
 H      1   2   3     2.060507368614   108.75835793   123.14312847
 H      3   1   2     2.021996116680   109.47119075   180.00011491
 H      3   1   2     2.022009071046   109.47117776    59.99996876
 H      3   1   2     2.022014343987   109.47145656   300.00033926

---------------------
BASIS SET INFORMATION
---------------------
There are 3 groups of distinct atoms

 Group   1 Type C   : 12s6p3d1f contracted to 6s3p3d1f pattern {621111/411/111/1}
 Group   2 Type N   : 12s6p3d1f contracted to 6s3p3d1f pattern {621111/411/111/1}
 Group   3 Type H   : 5s2p contracted to 3s2p pattern {311/11}

Atom   0C    basis set group =>   1
Atom   1N    basis set group =>   2
Atom   2C    basis set group =>   1
Atom   3H    basis set group =>   3
Atom   4H    basis set group =>   3
Atom   5H    basis set group =>   3
Atom   6H    basis set group =>   3
Atom   7H    basis set group =>   3
Atom   8H    basis set group =>   3
Atom   9H    basis set group =>   3
Atom  10H    basis set group =>   3
---------------------------------
AUXILIARY/J BASIS SET INFORMATION
---------------------------------
There are 3 groups of distinct atoms

 Group   1 Type C   : 12s5p4d2f1g contracted to 6s4p3d1f1g pattern {711111/2111/211/2/1}
 Group   2 Type N   : 12s5p4d2f1g contracted to 6s4p3d1f1g pattern {711111/2111/211/2/1}
 Group   3 Type H   : 5s2p1d contracted to 3s1p1d pattern {311/2/1}

Atom   0C    basis set group =>   1
Atom   1N    basis set group =>   2
Atom   2C    basis set group =>   1
Atom   3H    basis set group =>   3
Atom   4H    basis set group =>   3
Atom   5H    basis set group =>   3
Atom   6H    basis set group =>   3
Atom   7H    basis set group =>   3
Atom   8H    basis set group =>   3
Atom   9H    basis set group =>   3
Atom  10H    basis set group =>   3


           ************************************************************
           *        Program running with 4 parallel MPI-processes     *
           *              working on a common directory               *
           ************************************************************
------------------------------------------------------------------------------
                           ORCA GTO INTEGRAL CALCULATION
                           -- RI-GTO INTEGRALS CHOSEN --
------------------------------------------------------------------------------
------------------------------------------------------------------------------
                   ___                                                        
                  /   \      - P O W E R E D   B Y -                         
                 /     \                                                     
                 |  |  |   _    _      __       _____    __    __             
                 |  |  |  | |  | |    /  \     |  _  \  |  |  /  |          
                  \  \/   | |  | |   /    \    | | | |  |  | /  /          
                 / \  \   | |__| |  /  /\  \   | |_| |  |  |/  /          
                |  |  |   |  __  | /  /__\  \  |    /   |      \           
                |  |  |   | |  | | |   __   |  |    \   |  |\   \          
                \     /   | |  | | |  |  |  |  | |\  \  |  | \   \       
                 \___/    |_|  |_| |__|  |__|  |_| \__\ |__|  \__/        
                                                                              
                      - O R C A' S   B I G   F R I E N D -                    
                                      &                                       
                       - I N T E G R A L  F E E D E R -                       
                                                                              
 v1 FN, 2020, v2 2021                                                         
------------------------------------------------------------------------------


Reading SHARK input file TZVPD_LC_PBE_A_wt_dlpno_pos.SHARKINP.tmp ... ok
----------------------
SHARK INTEGRAL PACKAGE
----------------------

Number of atoms                             ...     11
Number of basis functions                   ...    183
Number of shells                            ...     79
Maximum angular momentum                    ...      3
Integral batch strategy                     ... SHARK/LIBINT Hybrid
RI-J (if used) integral strategy            ... SPLIT-RIJ (Revised 2003 algorithm where possible)
Printlevel                                  ...      1
Contraction scheme used                     ... SEGMENTED contraction
Coulomb Range Separation                    ... NOT USED
Exchange Range Separation                   ... Long Range
   Mu parameter                             ...  0.470000
   Scaling (regular/separated)              ...  0.000000  1.000000
Finite Nucleus Model                        ... NOT USED
Auxiliary Coulomb fitting basis             ... AVAILABLE
   # of basis functions in Aux-J            ...    235
   # of shells in Aux-J                     ...     85
   Maximum angular momentum in Aux-J        ...      4
Auxiliary J/K fitting basis                 ... NOT available
Auxiliary Correlation fitting basis         ... NOT available
Auxiliary 'external' fitting basis          ... NOT available
Integral threshold                          ...     2.500000e-11
Primitive cut-off                           ...     2.500000e-12
Primitive pair pre-selection threshold      ...     2.500000e-12

Calculating pre-screening integrals         ... done (  0.1 sec) Dimension = 79
Organizing shell pair data                  ... done (  0.0 sec)
Shell pair information
Total number of shell pairs                 ...      3160
Shell pairs after pre-screening             ...      3138
Total number of primitive shell pairs       ...      7593
Primitive shell pairs kept                  ...      6645
          la=0 lb=0:    886 shell pairs
          la=1 lb=0:   1046 shell pairs
          la=1 lb=1:    325 shell pairs
          la=2 lb=0:    377 shell pairs
          la=2 lb=1:    225 shell pairs
          la=2 lb=2:     45 shell pairs
          la=3 lb=0:    126 shell pairs
          la=3 lb=1:     75 shell pairs
          la=3 lb=2:     27 shell pairs
          la=3 lb=3:      6 shell pairs

Calculating one electron integrals          ... done (  0.0 sec)
Calculating RI/J V-Matrix + Cholesky decomp.... done (  0.0 sec)
Calculating Nuclear repulsion               ... done (  0.0 sec) ENN=     90.746639731330 Eh

SHARK setup successfully completed in   0.2 seconds

Maximum memory used throughout the entire GTOINT-calculation: 13.8 MB


           ************************************************************
           *        Program running with 4 parallel MPI-processes     *
           *              working on a common directory               *
           ************************************************************
-------------------------------------------------------------------------------
                                 ORCA SCF
-------------------------------------------------------------------------------

------------
SCF SETTINGS
------------
Hamiltonian:
 Density Functional     Method          .... DFT(GTOs)
 Exchange Functional    Exchange        .... LC-PBE
 Correlation Functional Correlation     .... PBE
   PBE beta parameter  CBetaPBE         ....  0.066725
 LDA part of GGA corr.  LDAOpt          .... PW91-LDA
 Gradients option       PostSCFGGA      .... off
   Density functional embedding theory  .... OFF
 Long-range corrected/Screened/Range-Separated Hybrid DFT is turned on
   Amount of maximum screened exact exchange              ....  1.000000
   Range separation parameter mu (erf(mu*r12)/r12)        ....  0.470000
   NL short-range parameter             ....  6.400000
 RI-approximation to the Coulomb term is turned on
   Number of AuxJ basis functions       .... 235
   RIJ-COSX (HFX calculated with COS-X)).... on


General Settings:
 Integral files         IntName         .... TZVPD_LC_PBE_A_wt_dlpno_pos
 Hartree-Fock type      HFTyp           .... RHF
 Total Charge           Charge          ....    1
 Multiplicity           Mult            ....    1
 Number of Electrons    NEL             ....   26
 Basis Dimension        Dim             ....  183
 Nuclear Repulsion      ENuc            ....     90.7466397313 Eh

Convergence Acceleration:
 DIIS                   CNVDIIS         .... on
   Start iteration      DIISMaxIt       ....    12
   Startup error        DIISStart       ....  0.200000
   # of expansion vecs  DIISMaxEq       ....     5
   Bias factor          DIISBfac        ....   1.050
   Max. coefficient     DIISMaxC        ....  10.000
 Trust-Rad. Augm. Hess. CNVTRAH         .... auto
   Auto Start mean grad. ratio tolernc. ....  1.125000
   Auto Start start iteration           ....    20
   Auto Start num. interpolation iter.  ....    10
   Max. Number of Micro iterations      ....    16
   Max. Number of Macro iterations      .... Maxiter - #DIIS iter
   Number of Davidson start vectors     ....     2
   Converg. threshold I  (grad. norm)   ....   1.000e-05
   Converg. threshold II (energy diff.) ....   1.000e-08
   Grad. Scal. Fac. for Micro threshold ....   0.100
   Minimum threshold for Micro iter.    ....   0.010
   NR start threshold (gradient norm)   ....   0.001
   Initial trust radius                 ....   0.400
   Minimum AH scaling param. (alpha)    ....   1.000
   Maximum AH scaling param. (alpha)    .... 1000.000
   Orbital update algorithm             .... Taylor
   White noise on init. David. guess    .... on
   Maximum white noise                  ....   0.010
   Quad. conv. algorithm                .... NR
 SOSCF                  CNVSOSCF        .... on
   Start iteration      SOSCFMaxIt      ....   150
   Startup grad/error   SOSCFStart      ....  0.003300
 Level Shifting         CNVShift        .... on
   Level shift para.    LevelShift      ....    0.2500
   Turn off err/grad.   ShiftErr        ....    0.0010
 Zerner damping         CNVZerner       .... off
 Static damping         CNVDamp         .... on
   Fraction old density DampFac         ....    0.7000
   Max. Damping (<1)    DampMax         ....    0.9800
   Min. Damping (>=0)   DampMin         ....    0.0000
   Turn off err/grad.   DampErr         ....    0.1000
 Fernandez-Rico         CNVRico         .... off

SCF Procedure:
 Maximum # iterations   MaxIter         ....   150
 SCF integral mode      SCFMode         .... Direct
   Integral package                     .... SHARK and LIBINT hybrid scheme
 Reset frequency        DirectResetFreq ....    20
 Integral Threshold     Thresh          ....  2.500e-11 Eh
 Primitive CutOff       TCut            ....  2.500e-12 Eh

Convergence Tolerance:
 Convergence Check Mode ConvCheckMode   .... Total+1el-Energy
 Convergence forced     ConvForced      .... 0
 Energy Change          TolE            ....  1.000e-08 Eh
 1-El. energy change                    ....  1.000e-05 Eh
 Orbital Gradient       TolG            ....  1.000e-05
 Orbital Rotation angle TolX            ....  1.000e-05
 DIIS Error             TolErr          ....  5.000e-07


Diagonalization of the overlap matrix:
Smallest eigenvalue                        ... 1.266e-05
Time for diagonalization                   ...    0.010 sec
Threshold for overlap eigenvalues          ... 1.000e-08
Number of eigenvalues below threshold      ... 0
Time for construction of square roots      ...    0.007 sec
Total time needed                          ...    0.017 sec

Time for model grid setup =    0.059 sec

------------------------------
INITIAL GUESS: MODEL POTENTIAL
------------------------------
Loading Hartree-Fock densities                     ... done
Calculating cut-offs                               ... done
Initializing the effective Hamiltonian             ... done
Setting up the integral package (SHARK)            ... done
Starting the Coulomb interaction                   ... done (   0.0 sec)
Reading the grid                                   ... done
Mapping shells                                     ... done
Starting the XC term evaluation                    ... done (   0.1 sec)
  promolecular density results
     # of electrons  =     26.998749255
     EX              =    -13.028615139
     EC              =     -0.867322959
     EX+EC           =    -13.895938098
Transforming the Hamiltonian                       ... done (   0.0 sec)
Diagonalizing the Hamiltonian                      ... done (   0.0 sec)
Back transforming the eigenvectors                 ... done (   0.0 sec)
Now organizing SCF variables                       ... done
                      ------------------
                      INITIAL GUESS DONE (   0.2 sec)
                      ------------------
-------------------
DFT GRID GENERATION
-------------------

General Integration Accuracy     IntAcc      ... 4.388
Radial Grid Type                 RadialGrid  ... OptM3 with GC (2021)
Angular Grid (max. ang.)         AngularGrid ... 4 (Lebedev-302)
Angular grid pruning method      GridPruning ... 4 (adaptive)
Weight generation scheme         WeightScheme... Becke
Basis function cutoff            BFCut       ... 1.0000e-11
Integration weight cutoff        WCut        ... 1.0000e-14
Angular grids for H and He will be reduced by one unit
Partially contracted basis set               ... off
Rotationally invariant grid construction     ... off

Total number of grid points                  ...    46414
Total number of batches                      ...      731
Average number of points per batch           ...       63
Average number of grid points per atom       ...     4219
Time for grid setup =    0.293 sec

--------------------
COSX GRID GENERATION
--------------------

GRIDX 1
-------
General Integration Accuracy     IntAcc      ... 3.816
Radial Grid Type                 RadialGrid  ... OptM3 with GC (2021)
Angular Grid (max. ang.)         AngularGrid ... 1 (Lebedev-50)
Angular grid pruning method      GridPruning ... 4 (adaptive)
Weight generation scheme         WeightScheme... Becke
Basis function cutoff            BFCut       ... 1.0000e-11
Integration weight cutoff        WCut        ... 1.0000e-14
Angular grids for H and He will be reduced by one unit
Partially contracted basis set               ... on
Rotationally invariant grid construction     ... off

Total number of grid points                  ...     5809
Total number of batches                      ...       96
Average number of points per batch           ...       60
Average number of grid points per atom       ...      528
UseSFitting                                  ... on

GRIDX 2
-------
General Integration Accuracy     IntAcc      ... 4.020
Radial Grid Type                 RadialGrid  ... OptM3 with GC (2021)
Angular Grid (max. ang.)         AngularGrid ... 2 (Lebedev-110)
Angular grid pruning method      GridPruning ... 4 (adaptive)
Weight generation scheme         WeightScheme... Becke
Basis function cutoff            BFCut       ... 1.0000e-11
Integration weight cutoff        WCut        ... 1.0000e-14
Angular grids for H and He will be reduced by one unit
Partially contracted basis set               ... on
Rotationally invariant grid construction     ... off

Total number of grid points                  ...    13403
Total number of batches                      ...      217
Average number of points per batch           ...       61
Average number of grid points per atom       ...     1218
UseSFitting                                  ... on

GRIDX 3
-------
General Integration Accuracy     IntAcc      ... 4.338
Radial Grid Type                 RadialGrid  ... OptM3 with GC (2021)
Angular Grid (max. ang.)         AngularGrid ... 3 (Lebedev-194)
Angular grid pruning method      GridPruning ... 4 (adaptive)
Weight generation scheme         WeightScheme... Becke
Basis function cutoff            BFCut       ... 1.0000e-11
Integration weight cutoff        WCut        ... 1.0000e-14
Angular grids for H and He will be reduced by one unit
Partially contracted basis set               ... on
Rotationally invariant grid construction     ... off

Total number of grid points                  ...    30570
Total number of batches                      ...      482
Average number of points per batch           ...       63
Average number of grid points per atom       ...     2779
UseSFitting                                  ... on

Time for X-Grid setup             =    0.296 sec

--------------
SCF ITERATIONS
--------------
ITER       Energy         Delta-E        Max-DP      RMS-DP      [F,P]     Damp
               ***  Starting incremental Fock matrix formation  ***
  0   -135.0865639073   0.000000000000 0.03951311  0.00101424  0.1070237 0.7000
  1   -135.1015571274  -0.014993220082 0.03214500  0.00088817  0.0635831 0.7000
                               ***Turning on DIIS***
  2   -135.1107138339  -0.009156706463 0.06384846  0.00208715  0.0328682 0.0000
  3   -135.1294536420  -0.018739808142 0.01658685  0.00047580  0.0280084 0.0000
                      *** Initiating the SOSCF procedure ***
                           *** Shutting down DIIS ***
                      *** Re-Reading the Fockian *** 
                      *** Removing any level shift *** 
ITER      Energy       Delta-E        Grad      Rot      Max-DP    RMS-DP
  4   -135.13091995  -0.0014663042  0.001603  0.001603  0.007774  0.000241
               *** Restarting incremental Fock matrix formation ***
  5   -135.13105083  -0.0001308836  0.000511  0.000874  0.005739  0.000147
  6   -135.13106586  -0.0000150351  0.000143  0.000344  0.002238  0.000056
  7   -135.13106716  -0.0000012905  0.000062  0.000036  0.000282  0.000009
  8   -135.13106734  -0.0000001831  0.000008  0.000013  0.000064  0.000002
                  ***Gradient check signals convergence***
              ***Rediagonalizing the Fockian in SOSCF/NRSCF***

               *****************************************************
               *                     SUCCESS                       *
               *           SCF CONVERGED AFTER   9 CYCLES          *
               *****************************************************


----------------
TOTAL SCF ENERGY
----------------

Total Energy       :         -135.13106734 Eh           -3677.10328 eV

Components:
Nuclear Repulsion  :           90.74663973 Eh            2469.34161 eV
Electronic Energy  :         -225.87770707 Eh           -6146.44489 eV
One Electron Energy:         -354.48796650 Eh           -9646.10797 eV
Two Electron Energy:          128.61025942 Eh            3499.66308 eV
Max COSX asymmetry :            0.00000617 Eh               0.00017 eV

Virial components:
Potential Energy   :         -269.55581358 Eh           -7334.98659 eV
Kinetic Energy     :          134.42474624 Eh            3657.88331 eV
Virial Ratio       :            2.00525440


DFT components:
N(Alpha)           :       13.000035044127 electrons
N(Beta)            :       13.000035044127 electrons
N(Total)           :       26.000070088253 electrons
E(X)               :      -13.349339986282 Eh       
E(C)               :       -0.843155192043 Eh       
E(XC)              :      -14.192495178326 Eh       
DFET-embed. en.    :        0.000000000000 Eh       

---------------
SCF CONVERGENCE
---------------

  Last Energy change         ...   -4.5444e-09  Tolerance :   1.0000e-08
  Last MAX-Density change    ...    6.5523e-05  Tolerance :   1.0000e-07
  Last RMS-Density change    ...    9.3868e-07  Tolerance :   5.0000e-09
  Last Orbital Gradient      ...    2.3039e-06  Tolerance :   1.0000e-05
  Last Orbital Rotation      ...    2.6306e-06  Tolerance :   1.0000e-05

             **** THE GBW FILE WAS UPDATED (TZVPD_LC_PBE_A_wt_dlpno_pos.gbw) ****
             **** DENSITY TZVPD_LC_PBE_A_wt_dlpno_pos.scfp WAS UPDATED ****
             **** ENERGY FILE WAS UPDATED (TZVPD_LC_PBE_A_wt_dlpno_pos.en.tmp) ****
             **** THE GBW FILE WAS UPDATED (TZVPD_LC_PBE_A_wt_dlpno_pos.gbw) ****
             **** DENSITY TZVPD_LC_PBE_A_wt_dlpno_pos.scfp WAS UPDATED ****
----------------
ORBITAL ENERGIES
----------------

  NO   OCC          E(Eh)            E(eV) 
   0   2.0000     -14.549293      -395.9064 
   1   2.0000     -10.370117      -282.1852 
   2   2.0000     -10.289588      -279.9939 
   3   2.0000      -1.391331       -37.8601 
   4   2.0000      -1.140509       -31.0348 
   5   2.0000      -1.007831       -27.4245 
   6   2.0000      -0.948930       -25.8217 
   7   2.0000      -0.941051       -25.6073 
   8   2.0000      -0.837134       -22.7796 
   9   2.0000      -0.784143       -21.3376 
  10   2.0000      -0.719646       -19.5826 
  11   2.0000      -0.704136       -19.1605 
  12   2.0000      -0.683451       -18.5976 
  13   0.0000      -0.120030        -3.2662 
  14   0.0000      -0.067197        -1.8285 
  15   0.0000      -0.062508        -1.7009 
  16   0.0000      -0.061231        -1.6662 
  17   0.0000      -0.026760        -0.7282 
  18   0.0000      -0.018662        -0.5078 
  19   0.0000      -0.006529        -0.1777 
  20   0.0000       0.002273         0.0619 
  21   0.0000       0.017997         0.4897 
  22   0.0000       0.035273         0.9598 
  23   0.0000       0.038983         1.0608 
  24   0.0000       0.042205         1.1485 
  25   0.0000       0.063388         1.7249 
  26   0.0000       0.073255         1.9934 
  27   0.0000       0.083906         2.2832 
  28   0.0000       0.090272         2.4564 
  29   0.0000       0.109450         2.9783 
  30   0.0000       0.119306         3.2465 
  31   0.0000       0.136022         3.7013 
  32   0.0000       0.140521         3.8238 
  33   0.0000       0.150686         4.1004 
  34   0.0000       0.156617         4.2618 
  35   0.0000       0.170109         4.6289 
  36   0.0000       0.180066         4.8998 
  37   0.0000       0.186690         5.0801 
  38   0.0000       0.188198         5.1211 
  39   0.0000       0.204172         5.5558 
  40   0.0000       0.211881         5.7656 
  41   0.0000       0.220188         5.9916 
  42   0.0000       0.224100         6.0981 
  43   0.0000       0.230225         6.2648 
  44   0.0000       0.238963         6.5025 
  45   0.0000       0.247088         6.7236 
  46   0.0000       0.256065         6.9679 
  47   0.0000       0.267947         7.2912 
  48   0.0000       0.285096         7.7578 
  49   0.0000       0.292519         7.9599 
  50   0.0000       0.299172         8.1409 
  51   0.0000       0.311069         8.4646 
  52   0.0000       0.316626         8.6158 
  53   0.0000       0.327690         8.9169 
  54   0.0000       0.334888         9.1128 
  55   0.0000       0.343370         9.3436 
  56   0.0000       0.346426         9.4267 
  57   0.0000       0.348242         9.4762 
  58   0.0000       0.363086         9.8801 
  59   0.0000       0.367200         9.9920 
  60   0.0000       0.391041        10.6408 
  61   0.0000       0.404692        11.0122 
  62   0.0000       0.422316        11.4918 
  63   0.0000       0.453281        12.3344 
  64   0.0000       0.478882        13.0310 
  65   0.0000       0.489363        13.3163 
  66   0.0000       0.532486        14.4897 
  67   0.0000       0.543152        14.7799 
  68   0.0000       0.556152        15.1337 
  69   0.0000       0.581992        15.8368 
  70   0.0000       0.585875        15.9425 
  71   0.0000       0.605809        16.4849 
  72   0.0000       0.621682        16.9168 
  73   0.0000       0.624601        16.9962 
  74   0.0000       0.645298        17.5595 
  75   0.0000       0.646537        17.5932 
  76   0.0000       0.659215        17.9381 
  77   0.0000       0.664090        18.0708 
  78   0.0000       0.681327        18.5398 
  79   0.0000       0.697497        18.9799 
  80   0.0000       0.719372        19.5751 
  81   0.0000       0.753211        20.4959 
  82   0.0000       0.800373        21.7793 
  83   0.0000       0.811262        22.0756 
  84   0.0000       0.845030        22.9944 
  85   0.0000       0.869139        23.6505 
  86   0.0000       0.879645        23.9364 
  87   0.0000       0.970003        26.3951 
  88   0.0000       0.985819        26.8255 
  89   0.0000       1.061190        28.8764 
  90   0.0000       1.076528        29.2938 
  91   0.0000       1.133061        30.8321 
  92   0.0000       1.157336        31.4927 
  93   0.0000       1.183488        32.2044 
  94   0.0000       1.229422        33.4543 
  95   0.0000       1.289699        35.0945 
  96   0.0000       1.340913        36.4881 
  97   0.0000       1.384483        37.6737 
  98   0.0000       1.441341        39.2209 
  99   0.0000       1.531556        41.6758 
 100   0.0000       1.538854        41.8744 
 101   0.0000       1.608207        43.7615 
 102   0.0000       1.690587        46.0032 
 103   0.0000       1.702898        46.3382 
 104   0.0000       1.720197        46.8089 
 105   0.0000       1.728091        47.0238 
 106   0.0000       1.739538        47.3352 
 107   0.0000       1.795098        48.8471 
 108   0.0000       1.808231        49.2045 
 109   0.0000       1.815096        49.3913 
 110   0.0000       1.824381        49.6439 
 111   0.0000       1.898417        51.6586 
 112   0.0000       1.941950        52.8432 
 113   0.0000       1.954249        53.1778 
 114   0.0000       2.002047        54.4785 
 115   0.0000       2.086120        56.7662 
 116   0.0000       2.112418        57.4818 
 117   0.0000       2.133941        58.0675 
 118   0.0000       2.176212        59.2177 
 119   0.0000       2.217760        60.3483 
 120   0.0000       2.317130        63.0523 
 121   0.0000       2.331604        63.4462 
 122   0.0000       2.344212        63.7893 
 123   0.0000       2.404356        65.4259 
 124   0.0000       2.449330        66.6497 
 125   0.0000       2.476519        67.3895 
 126   0.0000       2.485110        67.6233 
 127   0.0000       2.516770        68.4848 
 128   0.0000       2.545348        69.2624 
 129   0.0000       2.583157        70.2913 
 130   0.0000       2.625345        71.4393 
 131   0.0000       2.645040        71.9752 
 132   0.0000       2.659552        72.3701 
 133   0.0000       2.674675        72.7816 
 134   0.0000       2.722363        74.0793 
 135   0.0000       2.734740        74.4161 
 136   0.0000       2.776480        75.5519 
 137   0.0000       2.795890        76.0800 
 138   0.0000       2.891661        78.6861 
 139   0.0000       2.909144        79.1618 
 140   0.0000       2.965462        80.6943 
 141   0.0000       3.019274        82.1586 
 142   0.0000       3.062145        83.3252 
 143   0.0000       3.099315        84.3367 
 144   0.0000       3.127540        85.1047 
 145   0.0000       3.168922        86.2308 
 146   0.0000       3.203602        87.1744 
 147   0.0000       3.252608        88.5080 
 148   0.0000       3.279284        89.2339 
 149   0.0000       3.339003        90.8589 
 150   0.0000       3.365203        91.5718 
 151   0.0000       3.433385        93.4272 
 152   0.0000       3.443443        93.7008 
 153   0.0000       3.485547        94.8466 
 154   0.0000       3.590562        97.7042 
 155   0.0000       3.684549       100.2617 
 156   0.0000       3.732512       101.5668 
 157   0.0000       3.794977       103.2666 
 158   0.0000       3.886410       105.7546 
 159   0.0000       3.919829       106.6640 
 160   0.0000       3.982567       108.3711 
 161   0.0000       4.040938       109.9595 
 162   0.0000       4.190371       114.0258 
 163   0.0000       4.209980       114.5594 
 164   0.0000       4.312624       117.3525 
 165   0.0000       4.473440       121.7285 
 166   0.0000       4.496667       122.3605 
 167   0.0000       4.618034       125.6631 
 168   0.0000       4.655933       126.6944 
 169   0.0000       4.707615       128.1007 
 170   0.0000       4.748375       129.2098 
 171   0.0000       4.793948       130.4500 
 172   0.0000       4.851230       132.0087 
 173   0.0000       4.951667       134.7417 
 174   0.0000       5.003266       136.1458 
 175   0.0000       5.118150       139.2719 
 176   0.0000       5.224730       142.1721 
 177   0.0000       5.416805       147.3988 
 178   0.0000       5.435633       147.9111 
 179   0.0000       5.779944       157.2803 
 180   0.0000      22.348437       608.1319 
 181   0.0000      22.412013       609.8619 
 182   0.0000      31.901022       868.0709 

                    ********************************
                    * MULLIKEN POPULATION ANALYSIS *
                    ********************************

-----------------------
MULLIKEN ATOMIC CHARGES
-----------------------
   0 C :   -0.412487
   1 N :   -0.426457
   2 C :   -1.342005
   3 H :    0.387671
   4 H :    0.396762
   5 H :    0.388992
   6 H :    0.369542
   7 H :    0.380500
   8 H :    0.366620
   9 H :    0.422969
  10 H :    0.467894
Sum of atomic charges:    1.0000000

--------------------------------
MULLIKEN REDUCED ORBITAL CHARGES
--------------------------------
  0 C s       :     3.262119  s :     3.262119
      pz      :     0.739617  p :     3.144236
      px      :     1.288233
      py      :     1.116385
      dz2     :     0.014219  d :    -0.001382
      dxz     :     0.002295
      dyz     :     0.002581
      dx2y2   :     0.006166
      dxy     :    -0.026644
      f0      :     0.002003  f :     0.007515
      f+1     :     0.001387
      f-1     :     0.001479
      f+2     :     0.000705
      f-2     :     0.000443
      f+3     :     0.000803
      f-3     :     0.000694
  1 N s       :     3.452003  s :     3.452003
      pz      :     1.280549  p :     3.918348
      px      :     1.333862
      py      :     1.303937
      dz2     :     0.007729  d :     0.054394
      dxz     :     0.013350
      dyz     :     0.016364
      dx2y2   :     0.010445
      dxy     :     0.006507
      f0      :     0.000379  f :     0.001711
      f+1     :     0.000370
      f-1     :     0.000372
      f+2     :     0.000077
      f-2     :     0.000093
      f+3     :     0.000092
      f-3     :     0.000331
  2 C s       :     3.419243  s :     3.419243
      pz      :     1.439406  p :     3.852922
      px      :     1.415919
      py      :     0.997598
      dz2     :     0.040175  d :     0.066968
      dxz     :     0.021872
      dyz     :     0.013431
      dx2y2   :     0.011271
      dxy     :    -0.019780
      f0      :     0.000460  f :     0.002872
      f+1     :     0.000240
      f-1     :     0.000491
      f+2     :     0.000245
      f-2     :     0.000107
      f+3     :     0.000680
      f-3     :     0.000648
  3 H s       :     0.569728  s :     0.569728
      pz      :     0.005037  p :     0.042601
      px      :     0.008756
      py      :     0.028808
  4 H s       :     0.555305  s :     0.555305
      pz      :     0.008143  p :     0.047933
      px      :     0.032707
      py      :     0.007083
  5 H s       :     0.569152  s :     0.569152
      pz      :     0.013544  p :     0.041857
      px      :     0.017517
      py      :     0.010796
  6 H s       :     0.570624  s :     0.570624
      pz      :     0.017917  p :     0.059834
      px      :     0.014910
      py      :     0.027007
  7 H s       :     0.561040  s :     0.561040
      pz      :     0.010636  p :     0.058460
      px      :     0.032155
      py      :     0.015669
  8 H s       :     0.546324  s :     0.546324
      pz      :     0.041266  p :     0.087056
      px      :     0.039084
      py      :     0.006706
  9 H s       :     0.506736  s :     0.506736
      pz      :     0.021421  p :     0.070294
      px      :     0.025145
      py      :     0.023728
 10 H s       :     0.469867  s :     0.469867
      pz      :     0.018144  p :     0.062239
      px      :     0.035232
      py      :     0.008862


                     *******************************
                     * LOEWDIN POPULATION ANALYSIS *
                     *******************************

----------------------
LOEWDIN ATOMIC CHARGES
----------------------
   0 C :   -0.220938
   1 N :    0.174387
   2 C :   -0.080716
   3 H :    0.186250
   4 H :    0.181588
   5 H :    0.188555
   6 H :    0.143248
   7 H :    0.143703
   8 H :    0.100800
   9 H :    0.092136
  10 H :    0.090987

-------------------------------
LOEWDIN REDUCED ORBITAL CHARGES
-------------------------------
  0 C s       :     2.678732  s :     2.678732
      pz      :     0.783819  p :     2.748055
      px      :     0.980429
      py      :     0.983807
      dz2     :     0.177073  d :     0.742895
      dxz     :     0.100111
      dyz     :     0.202480
      dx2y2   :     0.156025
      dxy     :     0.107206
      f0      :     0.011552  f :     0.051255
      f+1     :     0.009639
      f-1     :     0.009004
      f+2     :     0.004623
      f-2     :     0.006572
      f+3     :     0.005374
      f-3     :     0.004492
  1 N s       :     2.893137  s :     2.893137
      pz      :     1.184208  p :     3.515316
      px      :     1.170886
      py      :     1.160222
      dz2     :     0.109209  d :     0.407153
      dxz     :     0.103991
      dyz     :     0.114467
      dx2y2   :     0.059985
      dxy     :     0.019500
      f0      :     0.001856  f :     0.010008
      f+1     :     0.002055
      f-1     :     0.002213
      f+2     :     0.000657
      f-2     :     0.001762
      f+3     :     0.000354
      f-3     :     0.001112
  2 C s       :     2.718183  s :     2.718183
      pz      :     0.995908  p :     2.929190
      px      :     0.990268
      py      :     0.943014
      dz2     :     0.077964  d :     0.407894
      dxz     :     0.024978
      dyz     :     0.092826
      dx2y2   :     0.124949
      dxy     :     0.087177
      f0      :     0.002815  f :     0.025449
      f+1     :     0.002659
      f-1     :     0.003260
      f+2     :     0.002582
      f-2     :     0.004238
      f+3     :     0.005496
      f-3     :     0.004399
  3 H s       :     0.591058  s :     0.591058
      pz      :     0.055730  p :     0.222692
      px      :     0.048972
      py      :     0.117990
  4 H s       :     0.581105  s :     0.581105
      pz      :     0.059827  p :     0.237307
      px      :     0.116451
      py      :     0.061029
  5 H s       :     0.587504  s :     0.587504
      pz      :     0.082386  p :     0.223941
      px      :     0.070977
      py      :     0.070578
  6 H s       :     0.668966  s :     0.668966
      pz      :     0.055638  p :     0.187786
      px      :     0.059118
      py      :     0.073030
  7 H s       :     0.670540  s :     0.670540
      pz      :     0.037928  p :     0.185757
      px      :     0.100027
      py      :     0.047801
  8 H s       :     0.684557  s :     0.684557
      pz      :     0.103707  p :     0.214642
      px      :     0.059257
      py      :     0.051678
  9 H s       :     0.692430  s :     0.692430
      pz      :     0.078062  p :     0.215435
      px      :     0.063872
      py      :     0.073501
 10 H s       :     0.690967  s :     0.690967
      pz      :     0.059661  p :     0.218046
      px      :     0.107203
      py      :     0.051181


                      *****************************
                      * MAYER POPULATION ANALYSIS *
                      *****************************

  NA   - Mulliken gross atomic population
  ZA   - Total nuclear charge
  QA   - Mulliken gross atomic charge
  VA   - Mayer's total valence
  BVA  - Mayer's bonded valence
  FA   - Mayer's free valence

  ATOM       NA         ZA         QA         VA         BVA        FA
  0 C      6.4125     6.0000    -0.4125     3.0478     3.0478     0.0000
  1 N      7.4265     7.0000    -0.4265     3.4356     3.4356    -0.0000
  2 C      7.3420     6.0000    -1.3420     3.3262     3.3262     0.0000
  3 H      0.6123     1.0000     0.3877     0.8533     0.8533    -0.0000
  4 H      0.6032     1.0000     0.3968     0.8614     0.8614    -0.0000
  5 H      0.6110     1.0000     0.3890     0.8527     0.8527    -0.0000
  6 H      0.6305     1.0000     0.3695     0.9723     0.9723     0.0000
  7 H      0.6195     1.0000     0.3805     0.9881     0.9881     0.0000
  8 H      0.6334     1.0000     0.3666     1.0706     1.0706     0.0000
  9 H      0.5770     1.0000     0.4230     0.9856     0.9856    -0.0000
 10 H      0.5321     1.0000     0.4679     0.9287     0.9287    -0.0000

  Mayer bond orders larger than 0.100000
B(  0-C ,  1-N ) :   0.8503 B(  0-C ,  2-C ) :   0.5725 B(  0-C ,  6-H ) :   0.9017 
B(  0-C ,  7-H ) :   0.8947 B(  1-N ,  3-H ) :   0.8486 B(  1-N ,  4-H ) :   0.8327 
B(  1-N ,  5-H ) :   0.8462 B(  2-C ,  8-H ) :   0.9532 B(  2-C ,  9-H ) :   0.8738 
B(  2-C , 10-H ) :   0.8099 

-------
TIMINGS
-------

Total SCF time: 0 days 0 hours 0 min 14 sec 

Total time                  ....      14.079 sec
Sum of individual times     ....      13.908 sec  ( 98.8%)

Fock matrix formation       ....      13.026 sec  ( 92.5%)
  Split-RI-J                ....       0.552 sec  (  4.2% of F)
  Chain of spheres X        ....      10.137 sec  ( 77.8% of F)
  XC integration            ....       2.306 sec  ( 17.7% of F)
    Basis function eval.    ....       0.674 sec  ( 29.2% of XC)
    Density eval.           ....       0.531 sec  ( 23.0% of XC)
    XC-Functional eval.     ....       0.182 sec  (  7.9% of XC)
    XC-Potential eval.      ....       0.793 sec  ( 34.4% of XC)
Diagonalization             ....       0.044 sec  (  0.3%)
Density matrix formation    ....       0.004 sec  (  0.0%)
Population analysis         ....       0.008 sec  (  0.1%)
Initial guess               ....       0.124 sec  (  0.9%)
Orbital Transformation      ....       0.000 sec  (  0.0%)
Orbital Orthonormalization  ....       0.000 sec  (  0.0%)
DIIS solution               ....       0.023 sec  (  0.2%)
SOSCF solution              ....       0.029 sec  (  0.2%)
Grid generation             ....       0.649 sec  (  4.6%)

Maximum memory used throughout the entire SCF-calculation: 19.5 MB

-------------------------   --------------------
FINAL SINGLE POINT ENERGY      -135.131067343101
-------------------------   --------------------


                            ***************************************
                            *     ORCA property calculations      *
                            ***************************************

                                    ---------------------
                                    Active property flags
                                    ---------------------
   (+) Dipole Moment


------------------------------------------------------------------------------
                       ORCA ELECTRIC PROPERTIES CALCULATION
------------------------------------------------------------------------------

Dipole Moment Calculation                       ... on
Quadrupole Moment Calculation                   ... off
Polarizability Calculation                      ... off
GBWName                                         ... TZVPD_LC_PBE_A_wt_dlpno_pos.gbw
Electron density file                           ... TZVPD_LC_PBE_A_wt_dlpno_pos.scfp
The origin for moment calculation is the CENTER OF MASS  = ( 0.650217,  2.519676 -6.142360)

-------------
DIPOLE MOMENT
-------------
                                X             Y             Z
Electronic contribution:      0.16942      -1.30721       1.32973
Nuclear contribution   :     -0.22655       0.48066      -0.09136
                        -----------------------------------------
Total Dipole Moment    :     -0.05713      -0.82655       1.23838
                        -----------------------------------------
Magnitude (a.u.)       :      1.48998
Magnitude (Debye)      :      3.78722



--------------------
Rotational spectrum 
--------------------
 
Rotational constants in cm-1:     0.998155     0.284845     0.251232 
Rotational constants in MHz : 29923.943568  8539.431565  7531.732866 

 Dipole components along the rotational axes: 
x,y,z [a.u.] :     1.462717     0.283618    -0.006735 
x,y,z [Debye]:     3.717932     0.720899    -0.017118 

 

Timings for individual modules:

Sum of individual times         ...       17.495 sec (=   0.292 min)
GTO integral calculation        ...        2.089 sec (=   0.035 min)  11.9 %
SCF iterations                  ...       15.406 sec (=   0.257 min)  88.1 %
                             ****ORCA TERMINATED NORMALLY****
TOTAL RUN TIME: 0 days 0 hours 0 minutes 17 seconds 987 msec
