
                                        *****************
                                        * O   R   C   A *
                                        *****************

                                            #,                                       
                                            ###                                      
                                            ####                                     
                                            #####                                    
                                            ######                                   
                                           ########,                                 
                                     ,,################,,,,,                         
                               ,,#################################,,                 
                          ,,##########################################,,             
                       ,#########################################, ''#####,          
                    ,#############################################,,   '####,        
                  ,##################################################,,,,####,       
                ,###########''''           ''''###############################       
              ,#####''   ,,,,##########,,,,          '''####'''          '####       
            ,##' ,,,,###########################,,,                        '##       
           ' ,,###''''                  '''############,,,                           
         ,,##''                                '''############,,,,        ,,,,,,###''
      ,#''                                            '''#######################'''  
     '                                                          ''''####''''         
             ,#######,   #######,   ,#######,      ##                                
            ,#'     '#,  ##    ##  ,#'     '#,    #''#        ######   ,####,        
            ##       ##  ##   ,#'  ##            #'  '#       #        #'  '#        
            ##       ##  #######   ##           ,######,      #####,   #    #        
            '#,     ,#'  ##    ##  '#,     ,#' ,#      #,         ##   #,  ,#        
             '#######'   ##     ##  '#######'  #'      '#     #####' # '####'        



                  #######################################################
                  #                        -***-                        #
                  #          Department of theory and spectroscopy      #
                  #    Directorship and core code : Frank Neese         #
                  #        Max Planck Institute fuer Kohlenforschung    #
                  #                Kaiser Wilhelm Platz 1               #
                  #                 D-45470 Muelheim/Ruhr               #
                  #                      Germany                        #
                  #                                                     #
                  #                  All rights reserved                #
                  #                        -***-                        #
                  #######################################################


                         Program Version 5.0.0 -  RELEASE  -
                                (SVN: $Rev: 19529$)
                ($Date: 2021-06-28 11:36:33 +0200 (Mo, 28 Jun 2021) $)


 With contributions from (in alphabetic order):
   Daniel Aravena         : Magnetic Suceptibility
   Michael Atanasov       : Ab Initio Ligand Field Theory (pilot matlab implementation)
   Alexander A. Auer      : GIAO ZORA, VPT2 properties, NMR spectrum
   Ute Becker             : Parallelization
   Giovanni Bistoni       : ED, misc. LED, open-shell LED, HFLD
   Martin Brehm           : Molecular dynamics
   Dmytro Bykov           : SCF Hessian
   Vijay G. Chilkuri      : MRCI spin determinant printing, contributions to CSF-ICE
   Dipayan Datta          : RHF DLPNO-CCSD density
   Achintya Kumar Dutta   : EOM-CC, STEOM-CC
   Dmitry Ganyushin       : Spin-Orbit,Spin-Spin,Magnetic field MRCI
   Miquel Garcia          : C-PCM Hessian, Gaussian charge scheme
   Yang Guo               : DLPNO-NEVPT2, F12-NEVPT2, CIM, IAO-localization
   Andreas Hansen         : Spin unrestricted coupled pair/coupled cluster methods
   Benjamin Helmich-Paris : MC-RPA, TRAH-SCF, COSX integrals
   Lee Huntington         : MR-EOM, pCC
   Robert Izsak           : Overlap fitted RIJCOSX, COSX-SCS-MP3, EOM
   Marcus Kettner         : VPT2
   Christian Kollmar      : KDIIS, OOCD, Brueckner-CCSD(T), CCSD density, CASPT2, CASPT2-K
   Simone Kossmann        : Meta GGA functionals, TD-DFT gradient, OOMP2, MP2 Hessian
   Martin Krupicka        : Initial AUTO-CI
   Lucas Lang             : DCDCAS
   Marvin Lechner         : AUTO-CI (C++ implementation), FIC-MRCC
   Dagmar Lenk            : GEPOL surface, SMD
   Dimitrios Liakos       : Extrapolation schemes; Compound Job, initial MDCI parallelization
   Dimitrios Manganas     : Further ROCIS development; embedding schemes
   Dimitrios Pantazis     : SARC Basis sets
   Anastasios Papadopoulos: AUTO-CI, single reference methods and gradients
   Taras Petrenko         : DFT Hessian,TD-DFT gradient, ASA, ECA, R-Raman, ABS, FL, XAS/XES, NRVS
   Peter Pinski           : DLPNO-MP2, DLPNO-MP2 Gradient
   Christoph Reimann      : Effective Core Potentials
   Marius Retegan         : Local ZFS, SOC
   Christoph Riplinger    : Optimizer, TS searches, QM/MM, DLPNO-CCSD(T), (RO)-DLPNO pert. Triples
   Tobias Risthaus        : Range-separated hybrids, TD-DFT gradient, RPA, STAB
   Michael Roemelt        : Original ROCIS implementation
   Masaaki Saitow         : Open-shell DLPNO-CCSD energy and density
   Barbara Sandhoefer     : DKH picture change effects
   Avijit Sen             : IP-ROCIS
   Kantharuban Sivalingam : CASSCF convergence, NEVPT2, FIC-MRCI
   Bernardo de Souza      : ESD, SOC TD-DFT
   Georgi Stoychev        : AutoAux, RI-MP2 NMR
   Willem Van den Heuvel  : Paramagnetic NMR
   Boris Wezisla          : Elementary symmetry handling
   Frank Wennmohs         : Technical directorship


 We gratefully acknowledge several colleagues who have allowed us to
 interface, adapt or use parts of their codes:
   Stefan Grimme, W. Hujo, H. Kruse, P. Pracht,  : VdW corrections, initial TS optimization,
                  C. Bannwarth, S. Ehlert          DFT functionals, gCP, sTDA/sTD-DF
   Ed Valeev, F. Pavosevic, A. Kumar             : LibInt (2-el integral package), F12 methods
   Garnet Chan, S. Sharma, J. Yang, R. Olivares  : DMRG
   Ulf Ekstrom                                   : XCFun DFT Library
   Mihaly Kallay                                 : mrcc  (arbitrary order and MRCC methods)
   Jiri Pittner, Ondrej Demel                    : Mk-CCSD
   Frank Weinhold                                : gennbo (NPA and NBO analysis)
   Christopher J. Cramer and Donald G. Truhlar   : smd solvation model
   Lars Goerigk                                  : TD-DFT with DH, B97 family of functionals
   V. Asgeirsson, H. Jonsson                     : NEB implementation
   FAccTs GmbH                                   : IRC, NEB, NEB-TS, DLPNO-Multilevel, CI-OPT
                                                   MM, QMMM, 2- and 3-layer-ONIOM, Crystal-QMMM,
                                                   LR-CPCM, SF, NACMEs, symmetry and pop. for TD-DFT,
                                                   nearIR, NL-DFT gradient (VV10), updates on ESD,
                                                   ML-optimized integration grids
   S Lehtola, MJT Oliveira, MAL Marques          : LibXC Library
   Liviu Ungur et al                             : ANISO software


 Your calculation uses the libint2 library for the computation of 2-el integrals
 For citations please refer to: http://libint.valeyev.net

 Your ORCA version has been built with support for libXC version: 5.1.0
 For citations please refer to: https://tddft.org/programs/libxc/

 This ORCA versions uses:
   CBLAS   interface :  Fast vector & matrix operations
   LAPACKE interface :  Fast linear algebra routines
   SCALAPACK package :  Parallel linear algebra routines
   Shared memory     :  Shared parallel matrices
   BLAS/LAPACK       :  OpenBLAS 0.3.15  USE64BITINT DYNAMIC_ARCH NO_AFFINITY Haswell SINGLE_THREADED
        Core in use  :  Haswell
   Copyright (c) 2011-2014, The OpenBLAS Project




***************************************
The coordinates will be read from file: B.xyz
***************************************


Your calculation utilizes the atom-pairwise dispersion correction
with the zero-damping scheme (D30)
Cite in your paper:
S.Grimme, J.Antony, S.Ehrlich and H.Krieg, J.Chem.Phys., 132, (2010), 154104 
   

XCFun DFT library Copyright 2009-2010 Ulf Ekstrom and contributors.
See http://admol.org/xcfun for more information.
This is free software; see the source code for copying conditions.
There is ABSOLUTELY NO WARRANTY; not even for MERCHANTABILITY or FITNESS FOR A PARTICULAR PURPOSE.
For details see the documentation.
Scientific users of this library should cite U. Ekstrom, L. Visscher, R. Bast, A. J. Thorvaldsen and K. Ruud;
J.Chem.Theor.Comp. 2010, DOI: 10.1021/ct100117s
XCFun Version 0.99 

================================================================================

----- Orbital basis set information -----
Your calculation utilizes the basis: def2-SVPD
   F. Weigend and R. Ahlrichs, Phys. Chem. Chem. Phys. 7, 3297 (2005).
   D. Rappoport and F. Furche, J. Chem. Phys. 133 134105 (2010).

----- AuxJ basis set information -----
Your calculation utilizes the auxiliary basis: def2/J
   F. Weigend, Phys. Chem. Chem. Phys. 8, 1057 (2006).

================================================================================
                                        WARNINGS
                       Please study these warnings very carefully!
================================================================================


WARNING: Minnesota functionals are quite sensitive to the integration grid.
         see SE Wheeler, KN Houk, JCTC 2010, 6, 395,
             N Mardirossian, M Head-Gordon, JCTC 2016, 12, 4303.
         DEFGRID3 seems to be a minimum grid for reliable results with these functionals!
  ===> : Please increase the integration grid!


INFO   : the flag for use of the SHARK integral package has been found!

================================================================================
                                       INPUT FILE
================================================================================
NAME = 28Oct_SVPD_M062X_B_wt_wb97.com
|  1> !M062X D3Zero RIJCOSX def2-SVPD def2/J TightSCF xyzfile                                                                                         
|  2> 
|  3> *xyzfile 0 1 B.xyz
|  4> 
|  5> %MaxCore 64000
|  6> 
|  7> %pal nprocs 4                                                                                                                                                  
|  8> end  
|  9> 
| 10> %scf
| 11>   MaxIter 150
| 12> end
| 13> 
| 14> 
| 15>                          ****END OF INPUT****
================================================================================

                       ****************************
                       * Single Point Calculation *
                       ****************************

---------------------------------
CARTESIAN COORDINATES (ANGSTROEM)
---------------------------------
  C      1.635557   -1.670396   -5.292109
  C      0.338484   -1.500907   -4.505398
  N      2.484511   -0.507410   -5.140392
  C     -0.684873   -0.528026   -5.099889
  C     -0.290406    0.951335   -5.153423
  H      0.607991    1.070692   -5.764412
  C     -0.055168    1.619420   -3.788577
  H     -1.080912    1.483775   -5.689436
  H      0.045006    0.862302   -3.003015
  H     -0.922936    2.230329   -3.517028
  C      1.223022    2.469865   -3.756911
  H      1.114701    3.258074   -4.532999
  H      1.237732    3.011242   -2.792157
  O      2.353815    1.712032   -3.934477
  H      1.398337   -1.829239   -6.352591
  H      2.155864   -2.565398   -4.932091
  C      3.451149   -0.149530   -5.952589
  N      3.922667    1.089559   -5.850711
  N      3.966162   -1.006183   -6.867880
  H      3.521391   -1.906467   -6.995270
  H      4.444824   -0.623472   -7.670348
  H      2.251995    0.240804   -4.498792
  H      3.464277    1.640782   -5.136392
  H      4.834470    1.313745   -6.224653
  H     -0.937999   -0.869056   -6.110838
  H     -1.604638   -0.622496   -4.513132
  H      0.594887   -1.211578   -3.482312
  H     -0.126530   -2.487656   -4.434176

----------------------------
CARTESIAN COORDINATES (A.U.)
----------------------------
  NO LB      ZA    FRAG     MASS         X           Y           Z
   0 C     6.0000    0    12.011    3.090755   -3.156591  -10.000637
   1 C     6.0000    0    12.011    0.639642   -2.836304   -8.513969
   2 N     7.0000    0    14.007    4.695045   -0.958866   -9.713933
   3 C     6.0000    0    12.011   -1.294222   -0.997824   -9.637394
   4 C     6.0000    0    12.011   -0.548788    1.797763   -9.738559
   5 H     1.0000    0     1.008    1.148937    2.023315  -10.893161
   6 C     6.0000    0    12.011   -0.104252    3.060259   -7.159373
   7 H     1.0000    0     1.008   -2.042628    2.803928  -10.751477
   8 H     1.0000    0     1.008    0.085049    1.629515   -5.674875
   9 H     1.0000    0     1.008   -1.744097    4.214711   -6.646220
  10 C     6.0000    0    12.011    2.311176    4.667369   -7.099534
  11 H     1.0000    0     1.008    2.106480    6.156868   -8.566127
  12 H     1.0000    0     1.008    2.338974    5.690423   -5.276413
  13 O     8.0000    0    15.999    4.448065    3.235272   -7.435084
  14 H     1.0000    0     1.008    2.642475   -3.456761  -12.004657
  15 H     1.0000    0     1.008    4.073993   -4.847900   -9.320301
  16 C     6.0000    0    12.011    6.521727   -0.282570  -11.248764
  17 N     7.0000    0    14.007    7.412767    2.058969  -11.056241
  18 N     7.0000    0    14.007    7.494960   -1.901411  -12.978412
  19 H     1.0000    0     1.008    6.654464   -3.602700  -13.219144
  20 H     1.0000    0     1.008    8.399500   -1.178191  -14.494857
  21 H     1.0000    0     1.008    4.255654    0.455053   -8.501485
  22 H     1.0000    0     1.008    6.546536    3.100628   -9.706375
  23 H     1.0000    0     1.008    9.135824    2.482619  -11.762890
  24 H     1.0000    0     1.008   -1.772561   -1.642279  -11.547810
  25 H     1.0000    0     1.008   -3.032327   -1.176347   -8.528583
  26 H     1.0000    0     1.008    1.124173   -2.289551   -6.580616
  27 H     1.0000    0     1.008   -0.239107   -4.700989   -8.379377

--------------------------------
INTERNAL COORDINATES (ANGSTROEM)
--------------------------------
 C      0   0   0     0.000000000000     0.00000000     0.00000000
 C      1   0   0     1.526446564606     0.00000000     0.00000000
 N      1   2   0     1.447852215851   110.79649503     0.00000000
 C      2   1   3     1.532050126827   115.98355805    73.88134336
 C      4   2   1     1.531985209839   117.05035103   294.25093978
 H      5   4   2     1.093010368020   109.67131612    60.27178293
 C      5   4   2     1.537686181312   115.33587299   296.99032406
 H      5   4   2     1.093481368076   107.52852158   174.49482797
 H      7   5   4     1.095613895338   110.49711467    14.75911837
 H      7   5   4     1.095432023380   109.94643100   257.77435548
 C      7   5   4     1.535587476479   112.72226713   134.38342113
 H     11   7   5     1.111449288059   107.29161220    59.92231464
 H     11   7   5     1.106370663614   107.46061474   172.68128646
 O     11   7   5     1.372782654881   112.16331516   295.99152082
 H      1   2   3     1.098237559984   109.28005509   238.48583558
 H      1   2   3     1.096066912761   108.95054944   121.23115729
 C      3   1   2     1.312300492796   125.88136429   201.13080389
 N     17   3   1     1.329680483842   117.89920394   164.56315122
 N     17   3   1     1.355304613286   121.70234033   344.31591677
 H     19  17   3     1.012205623696   118.69874526     7.01882245
 H     19  17   3     1.009722845945   118.50832590   158.08572771
 H      3   1   2     1.012688751903   121.68392847     6.65839441
 H     18  17   3     1.012036768540   113.64200219   359.66432921
 H     18  17   3     1.010680773111   119.88584993   160.18207126
 H      4   2   1     1.096536331544   108.32744596    58.07038410
 H      4   2   1     1.095069540724   107.35765807   171.97123094
 H      2   1   3     1.093690758198   108.19667119   308.99661974
 H      2   1   3     1.093153226019   107.14667354   194.96774393

---------------------------
INTERNAL COORDINATES (A.U.)
---------------------------
 C      0   0   0     0.000000000000     0.00000000     0.00000000
 C      1   0   0     2.884565965171     0.00000000     0.00000000
 N      1   2   0     2.736044170349   110.79649503     0.00000000
 C      2   1   3     2.895155163142   115.98355805    73.88134336
 C      4   2   1     2.895032487814   117.05035103   294.25093978
 H      5   4   2     2.065490257094   109.67131612    60.27178293
 C      5   4   2     2.905805762595   115.33587299   296.99032406
 H      5   4   2     2.066380318209   107.52852158   174.49482797
 H      7   5   4     2.070410210708   110.49711467    14.75911837
 H      7   5   4     2.070066522516   109.94643100   257.77435548
 C      7   5   4     2.901839785224   112.72226713   134.38342113
 H     11   7   5     2.100334766174   107.29161220    59.92231464
 H     11   7   5     2.090737556835   107.46061474   172.68128646
 O     11   7   5     2.594183259122   112.16331516   295.99152082
 H      1   2   3     2.075368218356   109.28005509   238.48583558
 H      1   2   3     2.071266289571   108.95054944   121.23115729
 C      3   1   2     2.479888536794   125.88136429   201.13080389
 N     17   3   1     2.512731960081   117.89920394   164.56315122
 N     17   3   1     2.561154547150   121.70234033   344.31591677
 H     19  17   3     1.912791420000   118.69874526     7.01882245
 H     19  17   3     1.908099650000   118.50832590   158.08572771
 H      3   1   2     1.913704400000   121.68392847     6.65839441
 H     18  17   3     1.912472330000   113.64200219   359.66432921
 H     18  17   3     1.909909870000   119.88584993   160.18207126
 H      4   2   1     2.072153362513   108.32744596    58.07038410
 H      4   2   1     2.069381529567   107.35765807   171.97123094
 H      2   1   3     2.066776008195   108.19667119   308.99661974
 H      2   1   3     2.065760219588   107.14667354   194.96774393

---------------------
BASIS SET INFORMATION
---------------------
There are 4 groups of distinct atoms

 Group   1 Type C   : 8s4p2d contracted to 4s2p2d pattern {5111/31/11}
 Group   2 Type N   : 8s4p2d contracted to 4s2p2d pattern {5111/31/11}
 Group   3 Type H   : 4s2p contracted to 2s2p pattern {31/11}
 Group   4 Type O   : 8s5p2d contracted to 4s3p2d pattern {5111/311/11}

Atom   0C    basis set group =>   1
Atom   1C    basis set group =>   1
Atom   2N    basis set group =>   2
Atom   3C    basis set group =>   1
Atom   4C    basis set group =>   1
Atom   5H    basis set group =>   3
Atom   6C    basis set group =>   1
Atom   7H    basis set group =>   3
Atom   8H    basis set group =>   3
Atom   9H    basis set group =>   3
Atom  10C    basis set group =>   1
Atom  11H    basis set group =>   3
Atom  12H    basis set group =>   3
Atom  13O    basis set group =>   4
Atom  14H    basis set group =>   3
Atom  15H    basis set group =>   3
Atom  16C    basis set group =>   1
Atom  17N    basis set group =>   2
Atom  18N    basis set group =>   2
Atom  19H    basis set group =>   3
Atom  20H    basis set group =>   3
Atom  21H    basis set group =>   3
Atom  22H    basis set group =>   3
Atom  23H    basis set group =>   3
Atom  24H    basis set group =>   3
Atom  25H    basis set group =>   3
Atom  26H    basis set group =>   3
Atom  27H    basis set group =>   3
---------------------------------
AUXILIARY/J BASIS SET INFORMATION
---------------------------------
There are 4 groups of distinct atoms

 Group   1 Type C   : 12s5p4d2f1g contracted to 6s4p3d1f1g pattern {711111/2111/211/2/1}
 Group   2 Type N   : 12s5p4d2f1g contracted to 6s4p3d1f1g pattern {711111/2111/211/2/1}
 Group   3 Type H   : 5s2p1d contracted to 3s1p1d pattern {311/2/1}
 Group   4 Type O   : 12s5p4d2f1g contracted to 6s4p3d1f1g pattern {711111/2111/211/2/1}

Atom   0C    basis set group =>   1
Atom   1C    basis set group =>   1
Atom   2N    basis set group =>   2
Atom   3C    basis set group =>   1
Atom   4C    basis set group =>   1
Atom   5H    basis set group =>   3
Atom   6C    basis set group =>   1
Atom   7H    basis set group =>   3
Atom   8H    basis set group =>   3
Atom   9H    basis set group =>   3
Atom  10C    basis set group =>   1
Atom  11H    basis set group =>   3
Atom  12H    basis set group =>   3
Atom  13O    basis set group =>   4
Atom  14H    basis set group =>   3
Atom  15H    basis set group =>   3
Atom  16C    basis set group =>   1
Atom  17N    basis set group =>   2
Atom  18N    basis set group =>   2
Atom  19H    basis set group =>   3
Atom  20H    basis set group =>   3
Atom  21H    basis set group =>   3
Atom  22H    basis set group =>   3
Atom  23H    basis set group =>   3
Atom  24H    basis set group =>   3
Atom  25H    basis set group =>   3
Atom  26H    basis set group =>   3
Atom  27H    basis set group =>   3


           ************************************************************
           *        Program running with 4 parallel MPI-processes     *
           *              working on a common directory               *
           ************************************************************
------------------------------------------------------------------------------
                           ORCA GTO INTEGRAL CALCULATION
                           -- RI-GTO INTEGRALS CHOSEN --
------------------------------------------------------------------------------
------------------------------------------------------------------------------
                   ___                                                        
                  /   \      - P O W E R E D   B Y -                         
                 /     \                                                     
                 |  |  |   _    _      __       _____    __    __             
                 |  |  |  | |  | |    /  \     |  _  \  |  |  /  |          
                  \  \/   | |  | |   /    \    | | | |  |  | /  /          
                 / \  \   | |__| |  /  /\  \   | |_| |  |  |/  /          
                |  |  |   |  __  | /  /__\  \  |    /   |      \           
                |  |  |   | |  | | |   __   |  |    \   |  |\   \          
                \     /   | |  | | |  |  |  |  | |\  \  |  | \   \       
                 \___/    |_|  |_| |__|  |__|  |_| \__\ |__|  \__/        
                                                                              
                      - O R C A' S   B I G   F R I E N D -                    
                                      &                                       
                       - I N T E G R A L  F E E D E R -                       
                                                                              
 v1 FN, 2020, v2 2021                                                         
------------------------------------------------------------------------------


Reading SHARK input file 28Oct_SVPD_M062X_B_wt_wb97.SHARKINP.tmp ... ok
----------------------
SHARK INTEGRAL PACKAGE
----------------------

Number of atoms                             ...     28
Number of basis functions                   ...    359
Number of shells                            ...    157
Maximum angular momentum                    ...      2
Integral batch strategy                     ... SHARK/LIBINT Hybrid
RI-J (if used) integral strategy            ... SPLIT-RIJ (Revised 2003 algorithm where possible)
Printlevel                                  ...      1
Contraction scheme used                     ... SEGMENTED contraction
Coulomb Range Separation                    ... NOT USED
Exchange Range Separation                   ... NOT USED
Finite Nucleus Model                        ... NOT USED
Auxiliary Coulomb fitting basis             ... AVAILABLE
   # of basis functions in Aux-J            ...    726
   # of shells in Aux-J                     ...    250
   Maximum angular momentum in Aux-J        ...      4
Auxiliary J/K fitting basis                 ... NOT available
Auxiliary Correlation fitting basis         ... NOT available
Auxiliary 'external' fitting basis          ... NOT available
Integral threshold                          ...     2.500000e-11
Primitive cut-off                           ...     2.500000e-12
Primitive pair pre-selection threshold      ...     2.500000e-12

Calculating pre-screening integrals         ... done (  0.1 sec) Dimension = 157
Organizing shell pair data                  ... done (  0.1 sec)
Shell pair information
Total number of shell pairs                 ...     12403
Shell pairs after pre-screening             ...     11741
Total number of primitive shell pairs       ...     33347
Primitive shell pairs kept                  ...     24764
          la=0 lb=0:   2908 shell pairs
          la=1 lb=0:   4193 shell pairs
          la=1 lb=1:   1564 shell pairs
          la=2 lb=0:   1638 shell pairs
          la=2 lb=1:   1192 shell pairs
          la=2 lb=2:    246 shell pairs

Calculating one electron integrals          ... done (  0.0 sec)
Calculating RI/J V-Matrix + Cholesky decomp.... done (  0.0 sec)
Calculating Nuclear repulsion               ... done (  0.0 sec) ENN=    694.662259395656 Eh

SHARK setup successfully completed in   0.3 seconds

Maximum memory used throughout the entire GTOINT-calculation: 19.0 MB


           ************************************************************
           *        Program running with 4 parallel MPI-processes     *
           *              working on a common directory               *
           ************************************************************
-------------------------------------------------------------------------------
                                 ORCA SCF
-------------------------------------------------------------------------------

------------
SCF SETTINGS
------------
Hamiltonian:
 Density Functional     Method          .... DFT(GTOs)
 Exchange Functional    Exchange        .... M062X
 Correlation Functional Correlation     .... M062X
 Gradients option       PostSCFGGA      .... off
 Hybrid DFT is turned on
   Fraction HF Exchange ScalHFX         ....  0.540000
   Scaling of DF-GGA-X  ScalDFX         ....  0.460000
   Scaling of DF-GGA-C  ScalDFC         ....  1.000000
   Scaling of DF-LDA-C  ScalLDAC        ....  1.000000
   Perturbative correction              ....  0.000000
   Density functional embedding theory  .... OFF
 RI-approximation to the Coulomb term is turned on
   Number of AuxJ basis functions       .... 726
   RIJ-COSX (HFX calculated with COS-X)).... on


General Settings:
 Integral files         IntName         .... 28Oct_SVPD_M062X_B_wt_wb97
 Hartree-Fock type      HFTyp           .... RHF
 Total Charge           Charge          ....    0
 Multiplicity           Mult            ....    1
 Number of Electrons    NEL             ....   88
 Basis Dimension        Dim             ....  359
 Nuclear Repulsion      ENuc            ....    694.6622593957 Eh

Convergence Acceleration:
 DIIS                   CNVDIIS         .... on
   Start iteration      DIISMaxIt       ....    12
   Startup error        DIISStart       ....  0.200000
   # of expansion vecs  DIISMaxEq       ....     5
   Bias factor          DIISBfac        ....   1.050
   Max. coefficient     DIISMaxC        ....  10.000
 Trust-Rad. Augm. Hess. CNVTRAH         .... auto
   Auto Start mean grad. ratio tolernc. ....  1.125000
   Auto Start start iteration           ....    20
   Auto Start num. interpolation iter.  ....    10
   Max. Number of Micro iterations      ....    16
   Max. Number of Macro iterations      .... Maxiter - #DIIS iter
   Number of Davidson start vectors     ....     2
   Converg. threshold I  (grad. norm)   ....   1.000e-05
   Converg. threshold II (energy diff.) ....   1.000e-08
   Grad. Scal. Fac. for Micro threshold ....   0.100
   Minimum threshold for Micro iter.    ....   0.010
   NR start threshold (gradient norm)   ....   0.001
   Initial trust radius                 ....   0.400
   Minimum AH scaling param. (alpha)    ....   1.000
   Maximum AH scaling param. (alpha)    .... 1000.000
   Orbital update algorithm             .... Taylor
   White noise on init. David. guess    .... on
   Maximum white noise                  ....   0.010
   Quad. conv. algorithm                .... NR
 SOSCF                  CNVSOSCF        .... on
   Start iteration      SOSCFMaxIt      ....   150
   Startup grad/error   SOSCFStart      ....  0.003300
 Level Shifting         CNVShift        .... on
   Level shift para.    LevelShift      ....    0.2500
   Turn off err/grad.   ShiftErr        ....    0.0010
 Zerner damping         CNVZerner       .... off
 Static damping         CNVDamp         .... on
   Fraction old density DampFac         ....    0.7000
   Max. Damping (<1)    DampMax         ....    0.9800
   Min. Damping (>=0)   DampMin         ....    0.0000
   Turn off err/grad.   DampErr         ....    0.1000
 Fernandez-Rico         CNVRico         .... off

SCF Procedure:
 Maximum # iterations   MaxIter         ....   150
 SCF integral mode      SCFMode         .... Direct
   Integral package                     .... SHARK and LIBINT hybrid scheme
 Reset frequency        DirectResetFreq ....    20
 Integral Threshold     Thresh          ....  2.500e-11 Eh
 Primitive CutOff       TCut            ....  2.500e-12 Eh

Convergence Tolerance:
 Convergence Check Mode ConvCheckMode   .... Total+1el-Energy
 Convergence forced     ConvForced      .... 0
 Energy Change          TolE            ....  1.000e-08 Eh
 1-El. energy change                    ....  1.000e-05 Eh
 Orbital Gradient       TolG            ....  1.000e-05
 Orbital Rotation angle TolX            ....  1.000e-05
 DIIS Error             TolErr          ....  5.000e-07


Diagonalization of the overlap matrix:
Smallest eigenvalue                        ... 2.621e-05
Time for diagonalization                   ...    0.026 sec
Threshold for overlap eigenvalues          ... 1.000e-08
Number of eigenvalues below threshold      ... 0
Time for construction of square roots      ...    0.020 sec
Total time needed                          ...    0.047 sec

Time for model grid setup =    0.259 sec

------------------------------
INITIAL GUESS: MODEL POTENTIAL
------------------------------
Loading Hartree-Fock densities                     ... done
Calculating cut-offs                               ... done
Initializing the effective Hamiltonian             ... done
Setting up the integral package (SHARK)            ... done
Starting the Coulomb interaction                   ... done (   0.2 sec)
Reading the grid                                   ... done
Mapping shells                                     ... done
Starting the XC term evaluation                    ... done (   0.3 sec)
  promolecular density results
     # of electrons  =     87.987416534
     EX              =    -68.693428349
     EC              =     -2.938720256
     EX+EC           =    -71.632148605
Transforming the Hamiltonian                       ... done (   0.0 sec)
Diagonalizing the Hamiltonian                      ... done (   0.0 sec)
Back transforming the eigenvectors                 ... done (   0.0 sec)
Now organizing SCF variables                       ... done
                      ------------------
                      INITIAL GUESS DONE (   0.9 sec)
                      ------------------
-------------------
DFT GRID GENERATION
-------------------

General Integration Accuracy     IntAcc      ... 4.388
Radial Grid Type                 RadialGrid  ... OptM3 with GC (2021)
Angular Grid (max. ang.)         AngularGrid ... 4 (Lebedev-302)
Angular grid pruning method      GridPruning ... 4 (adaptive)
Weight generation scheme         WeightScheme... Becke
Basis function cutoff            BFCut       ... 1.0000e-11
Integration weight cutoff        WCut        ... 1.0000e-14
Angular grids for H and He will be reduced by one unit
Partially contracted basis set               ... off
Rotationally invariant grid construction     ... off

Total number of grid points                  ...   122918
Total number of batches                      ...     1936
Average number of points per batch           ...       63
Average number of grid points per atom       ...     4390
Time for grid setup =    0.994 sec

--------------------
COSX GRID GENERATION
--------------------

GRIDX 1
-------
General Integration Accuracy     IntAcc      ... 3.816
Radial Grid Type                 RadialGrid  ... OptM3 with GC (2021)
Angular Grid (max. ang.)         AngularGrid ... 1 (Lebedev-50)
Angular grid pruning method      GridPruning ... 4 (adaptive)
Weight generation scheme         WeightScheme... Becke
Basis function cutoff            BFCut       ... 1.0000e-11
Integration weight cutoff        WCut        ... 1.0000e-14
Angular grids for H and He will be reduced by one unit
Partially contracted basis set               ... on
Rotationally invariant grid construction     ... off

Total number of grid points                  ...    15351
Total number of batches                      ...      257
Average number of points per batch           ...       59
Average number of grid points per atom       ...      548
UseSFitting                                  ... on

GRIDX 2
-------
General Integration Accuracy     IntAcc      ... 4.020
Radial Grid Type                 RadialGrid  ... OptM3 with GC (2021)
Angular Grid (max. ang.)         AngularGrid ... 2 (Lebedev-110)
Angular grid pruning method      GridPruning ... 4 (adaptive)
Weight generation scheme         WeightScheme... Becke
Basis function cutoff            BFCut       ... 1.0000e-11
Integration weight cutoff        WCut        ... 1.0000e-14
Angular grids for H and He will be reduced by one unit
Partially contracted basis set               ... on
Rotationally invariant grid construction     ... off

Total number of grid points                  ...    33463
Total number of batches                      ...      538
Average number of points per batch           ...       62
Average number of grid points per atom       ...     1195
UseSFitting                                  ... on

GRIDX 3
-------
General Integration Accuracy     IntAcc      ... 4.338
Radial Grid Type                 RadialGrid  ... OptM3 with GC (2021)
Angular Grid (max. ang.)         AngularGrid ... 3 (Lebedev-194)
Angular grid pruning method      GridPruning ... 4 (adaptive)
Weight generation scheme         WeightScheme... Becke
Basis function cutoff            BFCut       ... 1.0000e-11
Integration weight cutoff        WCut        ... 1.0000e-14
Angular grids for H and He will be reduced by one unit
Partially contracted basis set               ... on
Rotationally invariant grid construction     ... off

Total number of grid points                  ...    75509
Total number of batches                      ...     1195
Average number of points per batch           ...       63
Average number of grid points per atom       ...     2697
UseSFitting                                  ... on

Time for X-Grid setup             =    1.264 sec

--------------
SCF ITERATIONS
--------------
ITER       Energy         Delta-E        Max-DP      RMS-DP      [F,P]     Damp
               ***  Starting incremental Fock matrix formation  ***
  0   -515.4364602159   0.000000000000 0.13669987  0.00242178  0.2901744 0.7000
  1   -515.6204745702  -0.184014354305 0.11989181  0.00170604  0.1310773 0.7000
                               ***Turning on DIIS***
  2   -515.7026532144  -0.082178644185 0.21946277  0.00335339  0.0484694 0.0000
  3   -515.8297712791  -0.127118064693 0.08974691  0.00127651  0.0711416 0.0000
  4   -515.8560410222  -0.026269743127 0.02758287  0.00036802  0.0094298 0.0000
  5   -515.8567396579  -0.000698635703 0.00653315  0.00015705  0.0071845 0.0000
                      *** Initiating the SOSCF procedure ***
                           *** Shutting down DIIS ***
                      *** Re-Reading the Fockian *** 
                      *** Removing any level shift *** 
ITER      Energy       Delta-E        Grad      Rot      Max-DP    RMS-DP
  6   -515.85683803  -0.0000983698  0.000333  0.000333  0.009299  0.000085
               *** Restarting incremental Fock matrix formation ***
  7   -515.85675222   0.0000858067  0.000184  0.000559  0.008830  0.000153
  8   -515.85675639  -0.0000041737  0.000075  0.000223  0.003381  0.000049
  9   -515.85675663  -0.0000002346  0.000087  0.000080  0.001485  0.000027
 10   -515.85675692  -0.0000002899  0.000008  0.000017  0.000274  0.000005
 11   -515.85675693  -0.0000000071  0.000010  0.000011  0.000142  0.000002
                  ***Gradient check signals convergence***
              ***Rediagonalizing the Fockian in SOSCF/NRSCF***

               *****************************************************
               *                     SUCCESS                       *
               *           SCF CONVERGED AFTER  12 CYCLES          *
               *****************************************************

Old exchange energy                            =    -37.990678579 Eh
New exchange energy                            =    -37.990715600 Eh
Exchange energy change after final integration =     -0.000037021 Eh
Total energy after final integration           =   -515.856793953 Eh
Final COS-X integration done in                =    14.265 sec

----------------
TOTAL SCF ENERGY
----------------

Total Energy       :         -515.85679395 Eh          -14037.17700 eV

Components:
Nuclear Repulsion  :          694.66225940 Eh           18902.72107 eV
Electronic Energy  :        -1210.51905335 Eh          -32939.89807 eV
One Electron Energy:        -2077.76606846 Eh          -56538.88910 eV
Two Electron Energy:          867.24701511 Eh           23598.99103 eV
Max COSX asymmetry :            0.00003310 Eh               0.00090 eV

Virial components:
Potential Energy   :        -1026.31830535 Eh          -27927.54090 eV
Kinetic Energy     :          510.46151140 Eh           13890.36390 eV
Virial Ratio       :            2.01056942


DFT components:
N(Alpha)           :       44.000171833510 electrons
N(Beta)            :       44.000171833510 electrons
N(Total)           :       88.000343667020 electrons
E(XC)              :      -35.465920190461 Eh       
DFET-embed. en.    :        0.000000000000 Eh       

---------------
SCF CONVERGENCE
---------------

  Last Energy change         ...   -5.0578e-09  Tolerance :   1.0000e-08
  Last MAX-Density change    ...    4.4409e-15  Tolerance :   1.0000e-07
  Last RMS-Density change    ...    4.4742e-17  Tolerance :   5.0000e-09
  Last Orbital Gradient      ...    1.3285e-06  Tolerance :   1.0000e-05
  Last Orbital Rotation      ...    3.2741e-06  Tolerance :   1.0000e-05

             **** THE GBW FILE WAS UPDATED (28Oct_SVPD_M062X_B_wt_wb97.gbw) ****
             **** DENSITY 28Oct_SVPD_M062X_B_wt_wb97.scfp WAS UPDATED ****
             **** ENERGY FILE WAS UPDATED (28Oct_SVPD_M062X_B_wt_wb97.en.tmp) ****
             **** THE GBW FILE WAS UPDATED (28Oct_SVPD_M062X_B_wt_wb97.gbw) ****
             **** DENSITY 28Oct_SVPD_M062X_B_wt_wb97.scfp WAS UPDATED ****
----------------
ORBITAL ENERGIES
----------------

  NO   OCC          E(Eh)            E(eV) 
   0   2.0000     -19.504383      -530.7412 
   1   2.0000     -14.821425      -403.3115 
   2   2.0000     -14.778201      -402.1353 
   3   2.0000     -14.776404      -402.0864 
   4   2.0000     -10.701974      -291.2155 
   5   2.0000     -10.604111      -288.5525 
   6   2.0000     -10.554510      -287.2028 
   7   2.0000     -10.541302      -286.8434 
   8   2.0000     -10.528937      -286.5069 
   9   2.0000     -10.522544      -286.3330 
  10   2.0000     -10.503716      -285.8206 
  11   2.0000      -1.135134       -30.8886 
  12   2.0000      -1.023104       -27.8401 
  13   2.0000      -1.002084       -27.2681 
  14   2.0000      -0.982985       -26.7484 
  15   2.0000      -0.891244       -24.2520 
  16   2.0000      -0.834593       -22.7104 
  17   2.0000      -0.775488       -21.1021 
  18   2.0000      -0.734312       -19.9816 
  19   2.0000      -0.706960       -19.2373 
  20   2.0000      -0.677145       -18.4260 
  21   2.0000      -0.655754       -17.8440 
  22   2.0000      -0.637933       -17.3590 
  23   2.0000      -0.602715       -16.4007 
  24   2.0000      -0.580520       -15.7968 
  25   2.0000      -0.570463       -15.5231 
  26   2.0000      -0.561866       -15.2892 
  27   2.0000      -0.548418       -14.9232 
  28   2.0000      -0.511770       -13.9260 
  29   2.0000      -0.495468       -13.4824 
  30   2.0000      -0.484111       -13.1733 
  31   2.0000      -0.478864       -13.0305 
  32   2.0000      -0.451018       -12.2728 
  33   2.0000      -0.431329       -11.7371 
  34   2.0000      -0.422696       -11.5021 
  35   2.0000      -0.401060       -10.9134 
  36   2.0000      -0.383520       -10.4361 
  37   2.0000      -0.375344       -10.2136 
  38   2.0000      -0.366047        -9.9607 
  39   2.0000      -0.357167        -9.7190 
  40   2.0000      -0.352417        -9.5898 
  41   2.0000      -0.322315        -8.7706 
  42   2.0000      -0.243581        -6.6282 
  43   2.0000      -0.237893        -6.4734 
  44   0.0000       0.010804         0.2940 
  45   0.0000       0.039017         1.0617 
  46   0.0000       0.043476         1.1830 
  47   0.0000       0.055317         1.5052 
  48   0.0000       0.065243         1.7754 
  49   0.0000       0.071939         1.9575 
  50   0.0000       0.080903         2.2015 
  51   0.0000       0.085075         2.3150 
  52   0.0000       0.097187         2.6446 
  53   0.0000       0.104690         2.8488 
  54   0.0000       0.111295         3.0285 
  55   0.0000       0.114536         3.1167 
  56   0.0000       0.133591         3.6352 
  57   0.0000       0.139401         3.7933 
  58   0.0000       0.142990         3.8910 
  59   0.0000       0.144275         3.9259 
  60   0.0000       0.151123         4.1123 
  61   0.0000       0.156036         4.2460 
  62   0.0000       0.167587         4.5603 
  63   0.0000       0.172498         4.6939 
  64   0.0000       0.179666         4.8890 
  65   0.0000       0.187196         5.0939 
  66   0.0000       0.191626         5.2144 
  67   0.0000       0.198103         5.3907 
  68   0.0000       0.207635         5.6500 
  69   0.0000       0.214844         5.8462 
  70   0.0000       0.220292         5.9944 
  71   0.0000       0.224291         6.1033 
  72   0.0000       0.229418         6.2428 
  73   0.0000       0.232900         6.3375 
  74   0.0000       0.239731         6.5234 
  75   0.0000       0.244476         6.6525 
  76   0.0000       0.250762         6.8236 
  77   0.0000       0.267173         7.2701 
  78   0.0000       0.270433         7.3589 
  79   0.0000       0.273804         7.4506 
  80   0.0000       0.278307         7.5731 
  81   0.0000       0.281370         7.6565 
  82   0.0000       0.286374         7.7926 
  83   0.0000       0.290986         7.9181 
  84   0.0000       0.301802         8.2124 
  85   0.0000       0.303399         8.2559 
  86   0.0000       0.309367         8.4183 
  87   0.0000       0.316472         8.6116 
  88   0.0000       0.319042         8.6816 
  89   0.0000       0.321273         8.7423 
  90   0.0000       0.330485         8.9930 
  91   0.0000       0.334541         9.1033 
  92   0.0000       0.339338         9.2338 
  93   0.0000       0.347814         9.4645 
  94   0.0000       0.349438         9.5087 
  95   0.0000       0.352264         9.5856 
  96   0.0000       0.355267         9.6673 
  97   0.0000       0.361816         9.8455 
  98   0.0000       0.365160         9.9365 
  99   0.0000       0.367924        10.0117 
 100   0.0000       0.376339        10.2407 
 101   0.0000       0.379301        10.3213 
 102   0.0000       0.382569        10.4102 
 103   0.0000       0.385357        10.4861 
 104   0.0000       0.392353        10.6765 
 105   0.0000       0.403111        10.9692 
 106   0.0000       0.404826        11.0159 
 107   0.0000       0.407789        11.0965 
 108   0.0000       0.409521        11.1436 
 109   0.0000       0.415749        11.3131 
 110   0.0000       0.421208        11.4617 
 111   0.0000       0.422569        11.4987 
 112   0.0000       0.428809        11.6685 
 113   0.0000       0.434601        11.8261 
 114   0.0000       0.440312        11.9815 
 115   0.0000       0.444012        12.0822 
 116   0.0000       0.450113        12.2482 
 117   0.0000       0.456359        12.4182 
 118   0.0000       0.461671        12.5627 
 119   0.0000       0.462716        12.5911 
 120   0.0000       0.468718        12.7545 
 121   0.0000       0.470791        12.8109 
 122   0.0000       0.482014        13.1163 
 123   0.0000       0.486452        13.2370 
 124   0.0000       0.493859        13.4386 
 125   0.0000       0.495547        13.4845 
 126   0.0000       0.500321        13.6144 
 127   0.0000       0.502071        13.6620 
 128   0.0000       0.506290        13.7769 
 129   0.0000       0.511953        13.9309 
 130   0.0000       0.516328        14.0500 
 131   0.0000       0.523430        14.2433 
 132   0.0000       0.526653        14.3309 
 133   0.0000       0.531360        14.4590 
 134   0.0000       0.536154        14.5895 
 135   0.0000       0.540706        14.7134 
 136   0.0000       0.547050        14.8860 
 137   0.0000       0.560959        15.2645 
 138   0.0000       0.562770        15.3138 
 139   0.0000       0.566190        15.4068 
 140   0.0000       0.571585        15.5536 
 141   0.0000       0.574675        15.6377 
 142   0.0000       0.579033        15.7563 
 143   0.0000       0.581949        15.8356 
 144   0.0000       0.584985        15.9183 
 145   0.0000       0.595260        16.1979 
 146   0.0000       0.598956        16.2984 
 147   0.0000       0.603192        16.4137 
 148   0.0000       0.611815        16.6483 
 149   0.0000       0.612595        16.6696 
 150   0.0000       0.616952        16.7881 
 151   0.0000       0.623171        16.9573 
 152   0.0000       0.630403        17.1541 
 153   0.0000       0.640254        17.4222 
 154   0.0000       0.643799        17.5187 
 155   0.0000       0.650175        17.6922 
 156   0.0000       0.657668        17.8961 
 157   0.0000       0.662797        18.0356 
 158   0.0000       0.672165        18.2906 
 159   0.0000       0.677416        18.4334 
 160   0.0000       0.687280        18.7018 
 161   0.0000       0.689835        18.7714 
 162   0.0000       0.691622        18.8200 
 163   0.0000       0.698029        18.9943 
 164   0.0000       0.705181        19.1890 
 165   0.0000       0.710527        19.3344 
 166   0.0000       0.722399        19.6575 
 167   0.0000       0.726337        19.7646 
 168   0.0000       0.738060        20.0836 
 169   0.0000       0.746517        20.3138 
 170   0.0000       0.751082        20.4380 
 171   0.0000       0.758335        20.6354 
 172   0.0000       0.765863        20.8402 
 173   0.0000       0.774301        21.0698 
 174   0.0000       0.776275        21.1235 
 175   0.0000       0.781685        21.2707 
 176   0.0000       0.794377        21.6161 
 177   0.0000       0.801238        21.8028 
 178   0.0000       0.807254        21.9665 
 179   0.0000       0.819625        22.3031 
 180   0.0000       0.830808        22.6074 
 181   0.0000       0.844459        22.9789 
 182   0.0000       0.849092        23.1050 
 183   0.0000       0.861078        23.4311 
 184   0.0000       0.864920        23.5357 
 185   0.0000       0.884453        24.0672 
 186   0.0000       0.896915        24.4063 
 187   0.0000       0.902396        24.5554 
 188   0.0000       0.914895        24.8956 
 189   0.0000       0.941703        25.6250 
 190   0.0000       0.954724        25.9794 
 191   0.0000       0.970794        26.4166 
 192   0.0000       1.007835        27.4246 
 193   0.0000       1.008521        27.4432 
 194   0.0000       1.024274        27.8719 
 195   0.0000       1.028257        27.9803 
 196   0.0000       1.037204        28.2238 
 197   0.0000       1.046727        28.4829 
 198   0.0000       1.058764        28.8104 
 199   0.0000       1.067498        29.0481 
 200   0.0000       1.078327        29.3428 
 201   0.0000       1.084015        29.4975 
 202   0.0000       1.091602        29.7040 
 203   0.0000       1.103034        30.0151 
 204   0.0000       1.117746        30.4154 
 205   0.0000       1.124446        30.5977 
 206   0.0000       1.129301        30.7299 
 207   0.0000       1.139804        31.0156 
 208   0.0000       1.149655        31.2837 
 209   0.0000       1.165083        31.7035 
 210   0.0000       1.172576        31.9074 
 211   0.0000       1.178618        32.0718 
 212   0.0000       1.186100        32.2754 
 213   0.0000       1.189984        32.3811 
 214   0.0000       1.200156        32.6579 
 215   0.0000       1.209868        32.9222 
 216   0.0000       1.224468        33.3195 
 217   0.0000       1.228999        33.4428 
 218   0.0000       1.253493        34.1093 
 219   0.0000       1.261606        34.3300 
 220   0.0000       1.294995        35.2386 
 221   0.0000       1.308151        35.5966 
 222   0.0000       1.324551        36.0429 
 223   0.0000       1.331915        36.2432 
 224   0.0000       1.343985        36.5717 
 225   0.0000       1.348784        36.7023 
 226   0.0000       1.384295        37.6686 
 227   0.0000       1.385483        37.7009 
 228   0.0000       1.406216        38.2651 
 229   0.0000       1.412578        38.4382 
 230   0.0000       1.423407        38.7329 
 231   0.0000       1.456606        39.6363 
 232   0.0000       1.465401        39.8756 
 233   0.0000       1.488685        40.5092 
 234   0.0000       1.537373        41.8340 
 235   0.0000       1.540740        41.9257 
 236   0.0000       1.556118        42.3441 
 237   0.0000       1.572886        42.8004 
 238   0.0000       1.599177        43.5158 
 239   0.0000       1.612872        43.8885 
 240   0.0000       1.624494        44.2047 
 241   0.0000       1.638115        44.5754 
 242   0.0000       1.663120        45.2558 
 243   0.0000       1.666665        45.3523 
 244   0.0000       1.691617        46.0312 
 245   0.0000       1.706039        46.4237 
 246   0.0000       1.722385        46.8685 
 247   0.0000       1.730153        47.0799 
 248   0.0000       1.739275        47.3281 
 249   0.0000       1.767355        48.0922 
 250   0.0000       1.777022        48.3552 
 251   0.0000       1.796650        48.8893 
 252   0.0000       1.800796        49.0021 
 253   0.0000       1.820185        49.5298 
 254   0.0000       1.832526        49.8656 
 255   0.0000       1.854039        50.4510 
 256   0.0000       1.864150        50.7261 
 257   0.0000       1.869891        50.8823 
 258   0.0000       1.872593        50.9559 
 259   0.0000       1.874895        51.0185 
 260   0.0000       1.910880        51.9977 
 261   0.0000       1.920109        52.2488 
 262   0.0000       1.936833        52.7039 
 263   0.0000       1.951712        53.1088 
 264   0.0000       1.965736        53.4904 
 265   0.0000       1.978448        53.8363 
 266   0.0000       1.989023        54.1241 
 267   0.0000       2.000950        54.4486 
 268   0.0000       2.012135        54.7530 
 269   0.0000       2.014740        54.8239 
 270   0.0000       2.030012        55.2394 
 271   0.0000       2.038172        55.4615 
 272   0.0000       2.045059        55.6489 
 273   0.0000       2.048586        55.7449 
 274   0.0000       2.059793        56.0498 
 275   0.0000       2.070822        56.3499 
 276   0.0000       2.073556        56.4243 
 277   0.0000       2.094456        56.9930 
 278   0.0000       2.107041        57.3355 
 279   0.0000       2.108405        57.3726 
 280   0.0000       2.118246        57.6404 
 281   0.0000       2.132179        58.0196 
 282   0.0000       2.137231        58.1570 
 283   0.0000       2.148323        58.4588 
 284   0.0000       2.161576        58.8195 
 285   0.0000       2.169310        59.0299 
 286   0.0000       2.177800        59.2609 
 287   0.0000       2.191428        59.6318 
 288   0.0000       2.200915        59.8900 
 289   0.0000       2.212170        60.1962 
 290   0.0000       2.227983        60.6265 
 291   0.0000       2.240846        60.9765 
 292   0.0000       2.252854        61.3033 
 293   0.0000       2.278745        62.0078 
 294   0.0000       2.282494        62.1098 
 295   0.0000       2.301076        62.6155 
 296   0.0000       2.309313        62.8396 
 297   0.0000       2.332771        63.4779 
 298   0.0000       2.340667        63.6928 
 299   0.0000       2.352143        64.0051 
 300   0.0000       2.365411        64.3661 
 301   0.0000       2.378637        64.7260 
 302   0.0000       2.383033        64.8456 
 303   0.0000       2.412215        65.6397 
 304   0.0000       2.430770        66.1446 
 305   0.0000       2.445303        66.5401 
 306   0.0000       2.473367        67.3037 
 307   0.0000       2.495829        67.9149 
 308   0.0000       2.502043        68.0841 
 309   0.0000       2.508618        68.2630 
 310   0.0000       2.527034        68.7641 
 311   0.0000       2.551120        69.4195 
 312   0.0000       2.552359        69.4532 
 313   0.0000       2.583896        70.3114 
 314   0.0000       2.589737        70.4703 
 315   0.0000       2.616242        71.1916 
 316   0.0000       2.638169        71.7882 
 317   0.0000       2.655948        72.2720 
 318   0.0000       2.663253        72.4708 
 319   0.0000       2.674008        72.7635 
 320   0.0000       2.681237        72.9602 
 321   0.0000       2.702427        73.5368 
 322   0.0000       2.728517        74.2467 
 323   0.0000       2.753596        74.9292 
 324   0.0000       2.773475        75.4701 
 325   0.0000       2.791587        75.9629 
 326   0.0000       2.804771        76.3217 
 327   0.0000       2.819824        76.7313 
 328   0.0000       2.842401        77.3457 
 329   0.0000       2.860749        77.8449 
 330   0.0000       2.895635        78.7942 
 331   0.0000       2.924207        79.5717 
 332   0.0000       2.936518        79.9067 
 333   0.0000       2.945985        80.1643 
 334   0.0000       3.011287        81.9413 
 335   0.0000       3.065527        83.4172 
 336   0.0000       3.068752        83.5050 
 337   0.0000       3.121376        84.9370 
 338   0.0000       3.122838        84.9767 
 339   0.0000       3.137183        85.3671 
 340   0.0000       3.159941        85.9864 
 341   0.0000       3.184172        86.6457 
 342   0.0000       3.185999        86.6954 
 343   0.0000       3.211508        87.3896 
 344   0.0000       3.228017        87.8388 
 345   0.0000       3.260685        88.7277 
 346   0.0000       3.269798        88.9757 
 347   0.0000       3.290432        89.5372 
 348   0.0000       3.311105        90.0997 
 349   0.0000       3.317661        90.2781 
 350   0.0000       3.334428        90.7344 
 351   0.0000       3.364771        91.5601 
 352   0.0000       3.375171        91.8431 
 353   0.0000       3.405784        92.6761 
 354   0.0000       3.542539        96.3974 
 355   0.0000       3.625019        98.6418 
 356   0.0000       3.772423       102.6529 
 357   0.0000       3.800819       103.4256 
 358   0.0000       3.850762       104.7846 

                    ********************************
                    * MULLIKEN POPULATION ANALYSIS *
                    ********************************

-----------------------
MULLIKEN ATOMIC CHARGES
-----------------------
   0 C :    0.719421
   1 C :    0.144922
   2 N :    0.007752
   3 C :    0.234537
   4 C :    0.183758
   5 H :    0.014854
   6 C :    0.077120
   7 H :   -0.291300
   8 H :   -0.049024
   9 H :   -0.256133
  10 C :    0.867304
  11 H :   -0.128004
  12 H :   -0.153029
  13 O :   -1.138294
  14 H :    0.017489
  15 H :   -0.227236
  16 C :    1.231039
  17 N :    0.248467
  18 N :   -0.075855
  19 H :   -0.038619
  20 H :   -0.106646
  21 H :   -0.680169
  22 H :   -0.122905
  23 H :   -0.240915
  24 H :    0.073760
  25 H :   -0.147724
  26 H :    0.037340
  27 H :   -0.201908
Sum of atomic charges:    0.0000000

--------------------------------
MULLIKEN REDUCED ORBITAL CHARGES
--------------------------------
  0 C s       :     2.744628  s :     2.744628
      pz      :     0.863679  p :     2.417894
      px      :     0.790673
      py      :     0.763541
      dz2     :     0.037366  d :     0.118058
      dxz     :     0.066433
      dyz     :    -0.038893
      dx2y2   :    -0.039682
      dxy     :     0.092834
  1 C s       :     2.631974  s :     2.631974
      pz      :     1.004348  p :     2.702179
      px      :     0.881149
      py      :     0.816682
      dz2     :     0.194176  d :     0.520924
      dxz     :     0.052031
      dyz     :    -0.001833
      dx2y2   :     0.135335
      dxy     :     0.141216
  2 N s       :     3.116117  s :     3.116117
      pz      :     1.254772  p :     3.623987
      px      :     1.193843
      py      :     1.175372
      dz2     :     0.048220  d :     0.252144
      dxz     :     0.037420
      dyz     :     0.013133
      dx2y2   :     0.094933
      dxy     :     0.058437
  3 C s       :     2.655830  s :     2.655830
      pz      :     0.785897  p :     2.630320
      px      :     0.917440
      py      :     0.926983
      dz2     :     0.069817  d :     0.479313
      dxz     :     0.088861
      dyz     :     0.119270
      dx2y2   :     0.162470
      dxy     :     0.038896
  4 C s       :     2.652126  s :     2.652126
      pz      :     0.995441  p :     2.664917
      px      :     0.813048
      py      :     0.856429
      dz2     :     0.071337  d :     0.499199
      dxz     :     0.059709
      dyz     :     0.183953
      dx2y2   :     0.000268
      dxy     :     0.183932
  5 H s       :     0.959559  s :     0.959559
      pz      :     0.050895  p :     0.025587
      px      :    -0.000876
      py      :    -0.024432
  6 C s       :     2.851195  s :     2.851195
      pz      :     0.969929  p :     2.718684
      px      :     0.854161
      py      :     0.894595
      dz2     :     0.043491  d :     0.353001
      dxz     :     0.154892
      dyz     :     0.078309
      dx2y2   :     0.065378
      dxy     :     0.010930
  7 H s       :     1.320855  s :     1.320855
      pz      :    -0.012520  p :    -0.029555
      px      :    -0.020578
      py      :     0.003543
  8 H s       :     1.073207  s :     1.073207
      pz      :     0.040776  p :    -0.024183
      px      :    -0.060374
      py      :    -0.004585
  9 H s       :     1.254373  s :     1.254373
      pz      :    -0.014607  p :     0.001760
      px      :     0.034586
      py      :    -0.018219
 10 C s       :     2.608107  s :     2.608107
      pz      :     0.696678  p :     2.286498
      px      :     0.766805
      py      :     0.823015
      dz2     :    -0.009677  d :     0.238091
      dxz     :     0.061874
      dyz     :     0.052091
      dx2y2   :     0.108413
      dxy     :     0.025390
 11 H s       :     1.121750  s :     1.121750
      pz      :    -0.022034  p :     0.006254
      px      :    -0.007276
      py      :     0.035564
 12 H s       :     1.173098  s :     1.173098
      pz      :     0.008662  p :    -0.020069
      px      :    -0.022498
      py      :    -0.006233
 13 O s       :     4.206092  s :     4.206092
      pz      :     1.824736  p :     4.908961
      px      :     1.467479
      py      :     1.616746
      dz2     :     0.002629  d :     0.023241
      dxz     :    -0.014983
      dyz     :     0.014140
      dx2y2   :     0.001165
      dxy     :     0.020291
 14 H s       :     0.998432  s :     0.998432
      pz      :     0.055495  p :    -0.015920
      px      :    -0.056587
      py      :    -0.014828
 15 H s       :     1.229878  s :     1.229878
      pz      :    -0.052326  p :    -0.002642
      px      :     0.013135
      py      :     0.036549
 16 C s       :     3.134153  s :     3.134153
      pz      :     0.655855  p :     2.035823
      px      :     0.753610
      py      :     0.626358
      dz2     :    -0.004513  d :    -0.401014
      dxz     :    -0.071504
      dyz     :    -0.146337
      dx2y2   :    -0.136026
      dxy     :    -0.042634
 17 N s       :     3.109377  s :     3.109377
      pz      :     1.401423  p :     3.647015
      px      :     1.139353
      py      :     1.106239
      dz2     :     0.005062  d :    -0.004860
      dxz     :    -0.000984
      dyz     :    -0.000334
      dx2y2   :    -0.011663
      dxy     :     0.003060
 18 N s       :     3.384576  s :     3.384576
      pz      :     1.196686  p :     3.718599
      px      :     1.435534
      py      :     1.086378
      dz2     :    -0.002278  d :    -0.027320
      dxz     :    -0.006854
      dyz     :    -0.009642
      dx2y2   :    -0.005712
      dxy     :    -0.002834
 19 H s       :     1.025057  s :     1.025057
      pz      :     0.018494  p :     0.013563
      px      :    -0.007716
      py      :     0.002786
 20 H s       :     1.058289  s :     1.058289
      pz      :     0.030031  p :     0.048356
      px      :     0.038519
      py      :    -0.020194
 21 H s       :     1.566701  s :     1.566701
      pz      :     0.119209  p :     0.113468
      px      :    -0.054136
      py      :     0.048396
 22 H s       :     1.031206  s :     1.031206
      pz      :     0.018520  p :     0.091699
      px      :     0.016490
      py      :     0.056690
 23 H s       :     1.197018  s :     1.197018
      pz      :     0.024630  p :     0.043897
      px      :     0.018231
      py      :     0.001036
 24 H s       :     0.963473  s :     0.963473
      pz      :     0.012137  p :    -0.037232
      px      :    -0.031514
      py      :    -0.017855
 25 H s       :     1.171678  s :     1.171678
      pz      :    -0.037755  p :    -0.023954
      px      :     0.046946
      py      :    -0.033145
 26 H s       :     0.966497  s :     0.966497
      pz      :     0.041866  p :    -0.003837
      px      :    -0.021046
      py      :    -0.024656
 27 H s       :     1.216261  s :     1.216261
      pz      :    -0.031372  p :    -0.014353
      px      :    -0.030675
      py      :     0.047694


                     *******************************
                     * LOEWDIN POPULATION ANALYSIS *
                     *******************************

----------------------
LOEWDIN ATOMIC CHARGES
----------------------
   0 C :    0.059264
   1 C :   -0.016796
   2 N :    0.058671
   3 C :   -0.031138
   4 C :   -0.027077
   5 H :    0.004005
   6 C :   -0.022797
   7 H :    0.015820
   8 H :    0.007592
   9 H :    0.013781
  10 C :   -0.061088
  11 H :    0.014058
  12 H :    0.008445
  13 O :   -0.452449
  14 H :    0.023716
  15 H :    0.025025
  16 C :   -0.032908
  17 N :    0.263968
  18 N :    0.236874
  19 H :   -0.006832
  20 H :    0.012244
  21 H :   -0.101396
  22 H :   -0.095912
  23 H :    0.018429
  24 H :    0.018045
  25 H :    0.023313
  26 H :    0.022601
  27 H :    0.022541

-------------------------------
LOEWDIN REDUCED ORBITAL CHARGES
-------------------------------
  0 C s       :     2.663745  s :     2.663745
      pz      :     0.902300  p :     2.589517
      px      :     0.860297
      py      :     0.826920
      dz2     :     0.146399  d :     0.687474
      dxz     :     0.124620
      dyz     :     0.089082
      dx2y2   :     0.146088
      dxy     :     0.181285
  1 C s       :     2.681625  s :     2.681625
      pz      :     0.910240  p :     2.684340
      px      :     0.874313
      py      :     0.899787
      dz2     :     0.158311  d :     0.650831
      dxz     :     0.134126
      dyz     :     0.064939
      dx2y2   :     0.140718
      dxy     :     0.152737
  2 N s       :     2.897004  s :     2.897004
      pz      :     1.176561  p :     3.426801
      px      :     1.130658
      py      :     1.119583
      dz2     :     0.087955  d :     0.617524
      dxz     :     0.107486
      dyz     :     0.128024
      dx2y2   :     0.158872
      dxy     :     0.135187
  3 C s       :     2.684362  s :     2.684362
      pz      :     0.898709  p :     2.684280
      px      :     0.890866
      py      :     0.894704
      dz2     :     0.101183  d :     0.662496
      dxz     :     0.104054
      dyz     :     0.139817
      dx2y2   :     0.171087
      dxy     :     0.146355
  4 C s       :     2.677872  s :     2.677872
      pz      :     0.906379  p :     2.680418
      px      :     0.901194
      py      :     0.872845
      dz2     :     0.119123  d :     0.668787
      dxz     :     0.136427
      dyz     :     0.172893
      dx2y2   :     0.106388
      dxy     :     0.133956
  5 H s       :     0.708307  s :     0.708307
      pz      :     0.085101  p :     0.287689
      px      :     0.130258
      py      :     0.072330
  6 C s       :     2.690612  s :     2.690612
      pz      :     0.883667  p :     2.682060
      px      :     0.906290
      py      :     0.892103
      dz2     :     0.131299  d :     0.650125
      dxz     :     0.135950
      dyz     :     0.160121
      dx2y2   :     0.092674
      dxy     :     0.130082
  7 H s       :     0.733418  s :     0.733418
      pz      :     0.078330  p :     0.250761
      px      :     0.096937
      py      :     0.075495
  8 H s       :     0.718991  s :     0.718991
      pz      :     0.087957  p :     0.273417
      px      :     0.072188
      py      :     0.113272
  9 H s       :     0.737937  s :     0.737937
      pz      :     0.068110  p :     0.248283
      px      :     0.098525
      py      :     0.081647
 10 C s       :     2.673407  s :     2.673407
      pz      :     0.881462  p :     2.549323
      px      :     0.817804
      py      :     0.850056
      dz2     :     0.095790  d :     0.838358
      dxz     :     0.137768
      dyz     :     0.187698
      dx2y2   :     0.224010
      dxy     :     0.193092
 11 H s       :     0.745298  s :     0.745298
      pz      :     0.101380  p :     0.240644
      px      :     0.052256
      py      :     0.087008
 12 H s       :     0.747737  s :     0.747737
      pz      :     0.117761  p :     0.243817
      px      :     0.054109
      py      :     0.071948
 13 O s       :     3.389621  s :     3.389621
      pz      :     1.677391  p :     4.695694
      px      :     1.476100
      py      :     1.542203
      dz2     :     0.037657  d :     0.367134
      dxz     :     0.087378
      dyz     :     0.058490
      dx2y2   :     0.109996
      dxy     :     0.073613
 14 H s       :     0.725888  s :     0.725888
      pz      :     0.120947  p :     0.250396
      px      :     0.073321
      py      :     0.056127
 15 H s       :     0.737578  s :     0.737578
      pz      :     0.071448  p :     0.237396
      px      :     0.073454
      py      :     0.092495
 16 C s       :     2.605981  s :     2.605981
      pz      :     0.765485  p :     2.381082
      px      :     0.776681
      py      :     0.838916
      dz2     :     0.207070  d :     1.045845
      dxz     :     0.154393
      dyz     :     0.236921
      dx2y2   :     0.219135
      dxy     :     0.228326
 17 N s       :     2.926706  s :     2.926706
      pz      :     1.247394  p :     3.483406
      px      :     1.132420
      py      :     1.103592
      dz2     :     0.034772  d :     0.325921
      dxz     :     0.047885
      dyz     :     0.074510
      dx2y2   :     0.087599
      dxy     :     0.081155
 18 N s       :     2.943808  s :     2.943808
      pz      :     1.152749  p :     3.525761
      px      :     1.273617
      py      :     1.099395
      dz2     :     0.067901  d :     0.293556
      dxz     :     0.056391
      dyz     :     0.065581
      dx2y2   :     0.053771
      dxy     :     0.049912
 19 H s       :     0.643549  s :     0.643549
      pz      :     0.089028  p :     0.363283
      px      :     0.137054
      py      :     0.137201
 20 H s       :     0.654373  s :     0.654373
      pz      :     0.130799  p :     0.333383
      px      :     0.116666
      py      :     0.085918
 21 H s       :     0.549324  s :     0.549324
      pz      :     0.175905  p :     0.552072
      px      :     0.108783
      py      :     0.267383
 22 H s       :     0.569342  s :     0.569342
      pz      :     0.235000  p :     0.526570
      px      :     0.168244
      py      :     0.123326
 23 H s       :     0.658249  s :     0.658249
      pz      :     0.106319  p :     0.323322
      px      :     0.141424
      py      :     0.075579
 24 H s       :     0.730285  s :     0.730285
      pz      :     0.116212  p :     0.251670
      px      :     0.068841
      py      :     0.066616
 25 H s       :     0.727069  s :     0.727069
      pz      :     0.085943  p :     0.249618
      px      :     0.102205
      py      :     0.061470
 26 H s       :     0.711323  s :     0.711323
      pz      :     0.112469  p :     0.266075
      px      :     0.064215
      py      :     0.089391
 27 H s       :     0.727843  s :     0.727843
      pz      :     0.064573  p :     0.249616
      px      :     0.073407
      py      :     0.111636


                      *****************************
                      * MAYER POPULATION ANALYSIS *
                      *****************************

  NA   - Mulliken gross atomic population
  ZA   - Total nuclear charge
  QA   - Mulliken gross atomic charge
  VA   - Mayer's total valence
  BVA  - Mayer's bonded valence
  FA   - Mayer's free valence

  ATOM       NA         ZA         QA         VA         BVA        FA
  0 C      5.2806     6.0000     0.7194     3.9047     3.9047    -0.0000
  1 C      5.8551     6.0000     0.1449     4.5972     4.5972     0.0000
  2 N      6.9922     7.0000     0.0078     4.0499     4.0499    -0.0000
  3 C      5.7655     6.0000     0.2345     4.5563     4.5563     0.0000
  4 C      5.8162     6.0000     0.1838     4.9132     4.9132     0.0000
  5 H      0.9851     1.0000     0.0149     1.0439     1.0439     0.0000
  6 C      5.9229     6.0000     0.0771     4.7687     4.7687     0.0000
  7 H      1.2913     1.0000    -0.2913     0.8706     0.8706     0.0000
  8 H      1.0490     1.0000    -0.0490     0.9211     0.9211     0.0000
  9 H      1.2561     1.0000    -0.2561     0.9137     0.9137    -0.0000
 10 C      5.1327     6.0000     0.8673     3.8759     3.8759     0.0000
 11 H      1.1280     1.0000    -0.1280     1.0034     1.0034     0.0000
 12 H      1.1530     1.0000    -0.1530     0.8959     0.8959     0.0000
 13 O      9.1383     8.0000    -1.1383     1.9044     1.9044     0.0000
 14 H      0.9825     1.0000     0.0175     0.9378     0.9378    -0.0000
 15 H      1.2272     1.0000    -0.2272     0.9520     0.9520    -0.0000
 16 C      4.7690     6.0000     1.2310     2.0274     2.0274    -0.0000
 17 N      6.7515     7.0000     0.2485     3.5465     3.5465    -0.0000
 18 N      7.0759     7.0000    -0.0759     3.4291     3.4291    -0.0000
 19 H      1.0386     1.0000    -0.0386     0.8446     0.8446     0.0000
 20 H      1.1066     1.0000    -0.1066     0.9704     0.9704    -0.0000
 21 H      1.6802     1.0000    -0.6802     0.7012     0.7012    -0.0000
 22 H      1.1229     1.0000    -0.1229     0.9996     0.9996    -0.0000
 23 H      1.2409     1.0000    -0.2409     0.9414     0.9414    -0.0000
 24 H      0.9262     1.0000     0.0738     0.9415     0.9415     0.0000
 25 H      1.1477     1.0000    -0.1477     1.0083     1.0083     0.0000
 26 H      0.9627     1.0000     0.0373     1.0309     1.0309     0.0000
 27 H      1.2019     1.0000    -0.2019     1.0556     1.0556    -0.0000

  Mayer bond orders larger than 0.100000
B(  0-C ,  1-C ) :   1.2122 B(  0-C ,  2-N ) :   0.8911 B(  0-C , 14-H ) :   0.7307 
B(  0-C , 15-H ) :   0.8831 B(  0-C , 21-H ) :  -0.1992 B(  0-C , 26-H ) :   0.1244 
B(  0-C , 27-H ) :   0.1828 B(  1-C ,  3-C ) :   1.2174 B(  1-C , 24-H ) :   0.1431 
B(  1-C , 25-H ) :   0.1862 B(  1-C , 26-H ) :   0.7673 B(  1-C , 27-H ) :   0.8273 
B(  2-N , 13-O ) :  -0.1095 B(  2-N , 14-H ) :   0.3296 B(  2-N , 15-H ) :   0.1501 
B(  2-N , 16-C ) :   1.2946 B(  2-N , 17-N ) :   0.1504 B(  2-N , 18-N ) :   0.1187 
B(  2-N , 21-H ) :   1.0512 B(  3-C ,  4-C ) :   1.2845 B(  3-C ,  5-H ) :   0.1314 
B(  3-C , 24-H ) :   0.6755 B(  3-C , 25-H ) :   0.8517 B(  3-C , 26-H ) :   0.1609 
B(  3-C , 27-H ) :   0.1201 B(  4-C ,  5-H ) :   0.8089 B(  4-C ,  6-C ) :   1.1815 
B(  4-C ,  7-H ) :   0.8130 B(  4-C ,  8-H ) :   0.1233 B(  4-C ,  9-H ) :   0.1765 
B(  4-C , 24-H ) :   0.2278 B(  4-C , 25-H ) :   0.1016 B(  5-H ,  6-C ) :   0.1063 
B(  5-H ,  7-H ) :  -0.1216 B(  5-H , 13-O ) :   0.1246 B(  5-H , 21-H ) :   0.1132 
B(  6-C ,  8-H ) :   0.8379 B(  6-C ,  9-H ) :   0.9687 B(  6-C , 10-C ) :   1.0623 
B(  6-C , 12-H ) :   0.1957 B(  6-C , 13-O ) :   0.1095 B(  8-H ,  9-H ) :  -0.1346 
B(  8-H , 26-H ) :   0.1120 B( 10-C , 11-H ) :   0.8322 B( 10-C , 12-H ) :   0.8297 
B( 10-C , 13-O ) :   0.9624 B( 11-H , 13-O ) :   0.2452 B( 13-O , 21-H ) :   0.3174 
B( 13-O , 22-H ) :   0.2667 B( 14-H , 25-H ) :  -0.1142 B( 16-C , 17-N ) :   0.8815 
B( 16-C , 18-N ) :   0.8280 B( 16-C , 19-H ) :  -0.1065 B( 16-C , 20-H ) :  -0.1135 
B( 16-C , 21-H ) :  -0.4655 B( 16-C , 22-H ) :  -0.1267 B( 16-C , 23-H ) :  -0.1533 
B( 17-N , 18-N ) :   0.1105 B( 17-N , 22-H ) :   1.0424 B( 17-N , 23-H ) :   1.3114 
B( 18-N , 19-H ) :   1.0504 B( 18-N , 20-H ) :   1.2423 B( 19-H , 20-H ) :  -0.1626 
B( 22-H , 23-H ) :  -0.1996 B( 24-H , 25-H ) :  -0.1399 

-------
TIMINGS
-------

Total SCF time: 0 days 0 hours 1 min 53 sec 

Total time                  ....     113.488 sec
Sum of individual times     ....     113.074 sec  ( 99.6%)

Fock matrix formation       ....     109.330 sec  ( 96.3%)
  Split-RI-J                ....       6.441 sec  (  5.9% of F)
  Chain of spheres X        ....      71.857 sec  ( 65.7% of F)
  XC integration            ....      30.907 sec  ( 28.3% of F)
    Basis function eval.    ....       3.996 sec  ( 12.9% of XC)
    Density eval.           ....      11.776 sec  ( 38.1% of XC)
    XC-Functional eval.     ....       0.918 sec  (  3.0% of XC)
    XC-Potential eval.      ....      13.715 sec  ( 44.4% of XC)
Diagonalization             ....       0.260 sec  (  0.2%)
Density matrix formation    ....       0.020 sec  (  0.0%)
Population analysis         ....       0.031 sec  (  0.0%)
Initial guess               ....       0.622 sec  (  0.5%)
Orbital Transformation      ....       0.000 sec  (  0.0%)
Orbital Orthonormalization  ....       0.000 sec  (  0.0%)
DIIS solution               ....       0.130 sec  (  0.1%)
SOSCF solution              ....       0.164 sec  (  0.1%)
Grid generation             ....       2.518 sec  (  2.2%)

Maximum memory used throughout the entire SCF-calculation: 77.2 MB


-------------------------------------------------------------------------------
                          DFT DISPERSION CORRECTION                            
                                                                               
                              DFTD3 V3.1  Rev 1                                
                              USING zero damping                               
-------------------------------------------------------------------------------
The M062X functional is recognized
Active option DFTDOPT                   ...         3   

molecular C6(AA) [au] = 5740.635842 


            DFT-D V3
 parameters
 s6 scaling factor         :     1.0000 
 rs6 scaling factor        :     1.6190 
 s8 scaling factor         :     0.0000 
 rs8 scaling factor        :     1.0000 
 Damping factor alpha6     :    14.0000 
 Damping factor alpha8     :    16.0000 
 ad hoc parameters k1-k3   :    16.0000     1.3333    -4.0000 

 Edisp/kcal,au: -0.837470898234  -0.001334594685 
 E6   /kcal   :  -0.837470898 
 E8   /kcal   :  -0.000000000 
 % E8         :   0.000000000 

-------------------------   ----------------
Dispersion correction           -0.001334595
-------------------------   ----------------


-------------------------   --------------------
FINAL SINGLE POINT ENERGY      -515.858128547221
-------------------------   --------------------


                            ***************************************
                            *     ORCA property calculations      *
                            ***************************************

                                    ---------------------
                                    Active property flags
                                    ---------------------
   (+) Dipole Moment


------------------------------------------------------------------------------
                       ORCA ELECTRIC PROPERTIES CALCULATION
------------------------------------------------------------------------------

Dipole Moment Calculation                       ... on
Quadrupole Moment Calculation                   ... off
Polarizability Calculation                      ... off
GBWName                                         ... 28Oct_SVPD_M062X_B_wt_wb97.gbw
Electron density file                           ... 28Oct_SVPD_M062X_B_wt_wb97.scfp
The origin for moment calculation is the CENTER OF MASS  = ( 3.223255,  0.460299 -9.522497)

-------------
DIPOLE MOMENT
-------------
                                X             Y             Z
Electronic contribution:      8.34818      -0.92380      -2.25305
Nuclear contribution   :     -7.46499      -1.05836       0.01518
                        -----------------------------------------
Total Dipole Moment    :      0.88318      -1.98216      -2.23787
                        -----------------------------------------
Magnitude (a.u.)       :      3.11722
Magnitude (Debye)      :      7.92334



--------------------
Rotational spectrum 
--------------------
 
Rotational constants in cm-1:     0.044680     0.028958     0.019773 
Rotational constants in MHz :  1339.486245   868.136755   592.791310 

 Dipole components along the rotational axes: 
x,y,z [a.u.] :    -2.385978    -1.780711    -0.923702 
x,y,z [Debye]:    -6.064674    -4.526209    -2.347864 

 

Timings for individual modules:

Sum of individual times         ...      114.442 sec (=   1.907 min)
GTO integral calculation        ...        0.630 sec (=   0.010 min)   0.6 %
SCF iterations                  ...      113.812 sec (=   1.897 min)  99.4 %
                             ****ORCA TERMINATED NORMALLY****
TOTAL RUN TIME: 0 days 0 hours 1 minutes 55 seconds 8 msec
