
                                        *****************
                                        * O   R   C   A *
                                        *****************

                                            #,                                       
                                            ###                                      
                                            ####                                     
                                            #####                                    
                                            ######                                   
                                           ########,                                 
                                     ,,################,,,,,                         
                               ,,#################################,,                 
                          ,,##########################################,,             
                       ,#########################################, ''#####,          
                    ,#############################################,,   '####,        
                  ,##################################################,,,,####,       
                ,###########''''           ''''###############################       
              ,#####''   ,,,,##########,,,,          '''####'''          '####       
            ,##' ,,,,###########################,,,                        '##       
           ' ,,###''''                  '''############,,,                           
         ,,##''                                '''############,,,,        ,,,,,,###''
      ,#''                                            '''#######################'''  
     '                                                          ''''####''''         
             ,#######,   #######,   ,#######,      ##                                
            ,#'     '#,  ##    ##  ,#'     '#,    #''#        ######   ,####,        
            ##       ##  ##   ,#'  ##            #'  '#       #        #'  '#        
            ##       ##  #######   ##           ,######,      #####,   #    #        
            '#,     ,#'  ##    ##  '#,     ,#' ,#      #,         ##   #,  ,#        
             '#######'   ##     ##  '#######'  #'      '#     #####' # '####'        



                  #######################################################
                  #                        -***-                        #
                  #          Department of theory and spectroscopy      #
                  #    Directorship and core code : Frank Neese         #
                  #        Max Planck Institute fuer Kohlenforschung    #
                  #                Kaiser Wilhelm Platz 1               #
                  #                 D-45470 Muelheim/Ruhr               #
                  #                      Germany                        #
                  #                                                     #
                  #                  All rights reserved                #
                  #                        -***-                        #
                  #######################################################


                         Program Version 5.0.0 -  RELEASE  -
                                (SVN: $Rev: 19529$)
                ($Date: 2021-06-28 11:36:33 +0200 (Mo, 28 Jun 2021) $)


 With contributions from (in alphabetic order):
   Daniel Aravena         : Magnetic Suceptibility
   Michael Atanasov       : Ab Initio Ligand Field Theory (pilot matlab implementation)
   Alexander A. Auer      : GIAO ZORA, VPT2 properties, NMR spectrum
   Ute Becker             : Parallelization
   Giovanni Bistoni       : ED, misc. LED, open-shell LED, HFLD
   Martin Brehm           : Molecular dynamics
   Dmytro Bykov           : SCF Hessian
   Vijay G. Chilkuri      : MRCI spin determinant printing, contributions to CSF-ICE
   Dipayan Datta          : RHF DLPNO-CCSD density
   Achintya Kumar Dutta   : EOM-CC, STEOM-CC
   Dmitry Ganyushin       : Spin-Orbit,Spin-Spin,Magnetic field MRCI
   Miquel Garcia          : C-PCM Hessian, Gaussian charge scheme
   Yang Guo               : DLPNO-NEVPT2, F12-NEVPT2, CIM, IAO-localization
   Andreas Hansen         : Spin unrestricted coupled pair/coupled cluster methods
   Benjamin Helmich-Paris : MC-RPA, TRAH-SCF, COSX integrals
   Lee Huntington         : MR-EOM, pCC
   Robert Izsak           : Overlap fitted RIJCOSX, COSX-SCS-MP3, EOM
   Marcus Kettner         : VPT2
   Christian Kollmar      : KDIIS, OOCD, Brueckner-CCSD(T), CCSD density, CASPT2, CASPT2-K
   Simone Kossmann        : Meta GGA functionals, TD-DFT gradient, OOMP2, MP2 Hessian
   Martin Krupicka        : Initial AUTO-CI
   Lucas Lang             : DCDCAS
   Marvin Lechner         : AUTO-CI (C++ implementation), FIC-MRCC
   Dagmar Lenk            : GEPOL surface, SMD
   Dimitrios Liakos       : Extrapolation schemes; Compound Job, initial MDCI parallelization
   Dimitrios Manganas     : Further ROCIS development; embedding schemes
   Dimitrios Pantazis     : SARC Basis sets
   Anastasios Papadopoulos: AUTO-CI, single reference methods and gradients
   Taras Petrenko         : DFT Hessian,TD-DFT gradient, ASA, ECA, R-Raman, ABS, FL, XAS/XES, NRVS
   Peter Pinski           : DLPNO-MP2, DLPNO-MP2 Gradient
   Christoph Reimann      : Effective Core Potentials
   Marius Retegan         : Local ZFS, SOC
   Christoph Riplinger    : Optimizer, TS searches, QM/MM, DLPNO-CCSD(T), (RO)-DLPNO pert. Triples
   Tobias Risthaus        : Range-separated hybrids, TD-DFT gradient, RPA, STAB
   Michael Roemelt        : Original ROCIS implementation
   Masaaki Saitow         : Open-shell DLPNO-CCSD energy and density
   Barbara Sandhoefer     : DKH picture change effects
   Avijit Sen             : IP-ROCIS
   Kantharuban Sivalingam : CASSCF convergence, NEVPT2, FIC-MRCI
   Bernardo de Souza      : ESD, SOC TD-DFT
   Georgi Stoychev        : AutoAux, RI-MP2 NMR
   Willem Van den Heuvel  : Paramagnetic NMR
   Boris Wezisla          : Elementary symmetry handling
   Frank Wennmohs         : Technical directorship


 We gratefully acknowledge several colleagues who have allowed us to
 interface, adapt or use parts of their codes:
   Stefan Grimme, W. Hujo, H. Kruse, P. Pracht,  : VdW corrections, initial TS optimization,
                  C. Bannwarth, S. Ehlert          DFT functionals, gCP, sTDA/sTD-DF
   Ed Valeev, F. Pavosevic, A. Kumar             : LibInt (2-el integral package), F12 methods
   Garnet Chan, S. Sharma, J. Yang, R. Olivares  : DMRG
   Ulf Ekstrom                                   : XCFun DFT Library
   Mihaly Kallay                                 : mrcc  (arbitrary order and MRCC methods)
   Jiri Pittner, Ondrej Demel                    : Mk-CCSD
   Frank Weinhold                                : gennbo (NPA and NBO analysis)
   Christopher J. Cramer and Donald G. Truhlar   : smd solvation model
   Lars Goerigk                                  : TD-DFT with DH, B97 family of functionals
   V. Asgeirsson, H. Jonsson                     : NEB implementation
   FAccTs GmbH                                   : IRC, NEB, NEB-TS, DLPNO-Multilevel, CI-OPT
                                                   MM, QMMM, 2- and 3-layer-ONIOM, Crystal-QMMM,
                                                   LR-CPCM, SF, NACMEs, symmetry and pop. for TD-DFT,
                                                   nearIR, NL-DFT gradient (VV10), updates on ESD,
                                                   ML-optimized integration grids
   S Lehtola, MJT Oliveira, MAL Marques          : LibXC Library
   Liviu Ungur et al                             : ANISO software


 Your calculation uses the libint2 library for the computation of 2-el integrals
 For citations please refer to: http://libint.valeyev.net

 Your ORCA version has been built with support for libXC version: 5.1.0
 For citations please refer to: https://tddft.org/programs/libxc/

 This ORCA versions uses:
   CBLAS   interface :  Fast vector & matrix operations
   LAPACKE interface :  Fast linear algebra routines
   SCALAPACK package :  Parallel linear algebra routines
   Shared memory     :  Shared parallel matrices
   BLAS/LAPACK       :  OpenBLAS 0.3.15  USE64BITINT DYNAMIC_ARCH NO_AFFINITY Haswell SINGLE_THREADED
        Core in use  :  Haswell
   Copyright (c) 2011-2014, The OpenBLAS Project


Your calculation utilizes the atom-pairwise dispersion correction
with the zero-damping scheme (D30)
Cite in your paper:
S.Grimme, J.Antony, S.Ehrlich and H.Krieg, J.Chem.Phys., 132, (2010), 154104 
   

XCFun DFT library Copyright 2009-2010 Ulf Ekstrom and contributors.
See http://admol.org/xcfun for more information.
This is free software; see the source code for copying conditions.
There is ABSOLUTELY NO WARRANTY; not even for MERCHANTABILITY or FITNESS FOR A PARTICULAR PURPOSE.
For details see the documentation.
Scientific users of this library should cite U. Ekstrom, L. Visscher, R. Bast, A. J. Thorvaldsen and K. Ruud;
J.Chem.Theor.Comp. 2010, DOI: 10.1021/ct100117s
XCFun Version 0.99 

================================================================================

----- Orbital basis set information -----
Your calculation utilizes the basis: def2-SVPD
   F. Weigend and R. Ahlrichs, Phys. Chem. Chem. Phys. 7, 3297 (2005).
   D. Rappoport and F. Furche, J. Chem. Phys. 133 134105 (2010).

----- AuxJ basis set information -----
Your calculation utilizes the auxiliary basis: def2/J
   F. Weigend, Phys. Chem. Chem. Phys. 8, 1057 (2006).

================================================================================
                                        WARNINGS
                       Please study these warnings very carefully!
================================================================================


INFO   : the flag for use of the SHARK integral package has been found!

================================================================================
                                       INPUT FILE
================================================================================
NAME = C2_wt_wb97_typm1_pos.com
|  1> !wB97X-D3 RIJCOSX def2-SVPD def2/J TightSCF CPCM(Water) 
|  2> *xyz 0 1
|  3> C          4.36645       -0.13321       -1.41606
|  4> C          3.05650       -0.32080       -0.70738
|  5> N          2.38983        0.71129       -0.24391
|  6> C          2.51600       -1.50772       -0.55023
|  7> H          2.96768       -2.32291       -0.95631
|  8> H          1.54987       -1.49063       -0.24988
|  9> H          2.74307        1.64947       -0.41280
| 10> H          1.44036        0.50278        0.03703
| 11> H          4.74975       -1.08632       -1.71533
| 12> H          5.06373        0.34075       -0.75722
| 13> H          4.21960        0.47966       -2.28077
| 14> *
| 15> 
| 16> %MaxCore 64000
| 17> 
| 18> %pal nprocs 18
| 19> end  
| 20> 
| 21> %scf
| 22>   MaxIter 150
| 23> end
| 24> 
| 25> 
| 26>                          ****END OF INPUT****
================================================================================

                       ****************************
                       * Single Point Calculation *
                       ****************************

---------------------------------
CARTESIAN COORDINATES (ANGSTROEM)
---------------------------------
  C      4.366450   -0.133210   -1.416060
  C      3.056500   -0.320800   -0.707380
  N      2.389830    0.711290   -0.243910
  C      2.516000   -1.507720   -0.550230
  H      2.967680   -2.322910   -0.956310
  H      1.549870   -1.490630   -0.249880
  H      2.743070    1.649470   -0.412800
  H      1.440360    0.502780    0.037030
  H      4.749750   -1.086320   -1.715330
  H      5.063730    0.340750   -0.757220
  H      4.219600    0.479660   -2.280770

----------------------------
CARTESIAN COORDINATES (A.U.)
----------------------------
  NO LB      ZA    FRAG     MASS         X           Y           Z
   0 C     6.0000    0    12.011    8.251395   -0.251730   -2.675966
   1 C     6.0000    0    12.011    5.775948   -0.606224   -1.336754
   2 N     7.0000    0    14.007    4.516124    1.344143   -0.460923
   3 C     6.0000    0    12.011    4.754551   -2.849178   -1.039784
   4 H     1.0000    0     1.008    5.608102   -4.389664   -1.807164
   5 H     1.0000    0     1.008    2.928830   -2.816882   -0.472205
   6 H     1.0000    0     1.008    5.183651    3.117047   -0.780079
   7 H     1.0000    0     1.008    2.721886    0.950117    0.069977
   8 H     1.0000    0     1.008    8.975727   -2.052847   -3.241504
   9 H     1.0000    0     1.008    9.569063    0.643924   -1.430938
  10 H     1.0000    0     1.008    7.973888    0.906426   -4.310031

--------------------------------
INTERNAL COORDINATES (ANGSTROEM)
--------------------------------
 C      0   0   0     0.000000000000     0.00000000     0.00000000
 C      1   0   0     1.501128359935     0.00000000     0.00000000
 N      2   1   0     1.313188142613   120.75855316     0.00000000
 C      2   1   3     1.313626833960   121.90040797   178.47219009
 H      4   2   1     1.016587686774   119.59992619   356.93386062
 H      4   2   1     1.011884068211   114.39974781   193.13877807
 H      3   2   1     1.016604171790   119.35879441     3.31232697
 H      3   2   1     1.011877949458   114.35559111   167.65058872
 H      1   2   3     1.070000044393   109.47099828   180.00015604
 H      1   2   3     1.070003563359   109.47126338    59.99993980
 H      1   2   3     1.069999039018   109.47132813   300.00043433

---------------------------
INTERNAL COORDINATES (A.U.)
---------------------------
 C      0   0   0     0.000000000000     0.00000000     0.00000000
 C      1   0   0     2.836721492139     0.00000000     0.00000000
 N      2   1   0     2.481565951852   120.75855316     0.00000000
 C      2   1   3     2.482394958355   121.90040797   178.47219009
 H      4   2   1     1.921072319119   119.59992619   356.93386062
 H      4   2   1     1.912183768198   114.39974781   193.13877807
 H      3   2   1     1.921103471284   119.35879441     3.31232697
 H      3   2   1     1.912172205430   114.35559111   167.65058872
 H      1   2   3     2.022007047185   109.47099828   180.00015604
 H      1   2   3     2.022013697068   109.47126338    59.99993980
 H      1   2   3     2.022005147303   109.47132813   300.00043433

---------------------
BASIS SET INFORMATION
---------------------
There are 3 groups of distinct atoms

 Group   1 Type C   : 8s4p2d contracted to 4s2p2d pattern {5111/31/11}
 Group   2 Type N   : 8s4p2d contracted to 4s2p2d pattern {5111/31/11}
 Group   3 Type H   : 4s2p contracted to 2s2p pattern {31/11}

Atom   0C    basis set group =>   1
Atom   1C    basis set group =>   1
Atom   2N    basis set group =>   2
Atom   3C    basis set group =>   1
Atom   4H    basis set group =>   3
Atom   5H    basis set group =>   3
Atom   6H    basis set group =>   3
Atom   7H    basis set group =>   3
Atom   8H    basis set group =>   3
Atom   9H    basis set group =>   3
Atom  10H    basis set group =>   3
---------------------------------
AUXILIARY/J BASIS SET INFORMATION
---------------------------------
There are 3 groups of distinct atoms

 Group   1 Type C   : 12s5p4d2f1g contracted to 6s4p3d1f1g pattern {711111/2111/211/2/1}
 Group   2 Type N   : 12s5p4d2f1g contracted to 6s4p3d1f1g pattern {711111/2111/211/2/1}
 Group   3 Type H   : 5s2p1d contracted to 3s1p1d pattern {311/2/1}

Atom   0C    basis set group =>   1
Atom   1C    basis set group =>   1
Atom   2N    basis set group =>   2
Atom   3C    basis set group =>   1
Atom   4H    basis set group =>   3
Atom   5H    basis set group =>   3
Atom   6H    basis set group =>   3
Atom   7H    basis set group =>   3
Atom   8H    basis set group =>   3
Atom   9H    basis set group =>   3
Atom  10H    basis set group =>   3


           ************************************************************
           *        Program running with 18 parallel MPI-processes    *
           *              working on a common directory               *
           ************************************************************
------------------------------------------------------------------------------
                           ORCA GTO INTEGRAL CALCULATION
                           -- RI-GTO INTEGRALS CHOSEN --
------------------------------------------------------------------------------
------------------------------------------------------------------------------
                   ___                                                        
                  /   \      - P O W E R E D   B Y -                         
                 /     \                                                     
                 |  |  |   _    _      __       _____    __    __             
                 |  |  |  | |  | |    /  \     |  _  \  |  |  /  |          
                  \  \/   | |  | |   /    \    | | | |  |  | /  /          
                 / \  \   | |__| |  /  /\  \   | |_| |  |  |/  /          
                |  |  |   |  __  | /  /__\  \  |    /   |      \           
                |  |  |   | |  | | |   __   |  |    \   |  |\   \          
                \     /   | |  | | |  |  |  |  | |\  \  |  | \   \       
                 \___/    |_|  |_| |__|  |__|  |_| \__\ |__|  \__/        
                                                                              
                      - O R C A' S   B I G   F R I E N D -                    
                                      &                                       
                       - I N T E G R A L  F E E D E R -                       
                                                                              
 v1 FN, 2020, v2 2021                                                         
------------------------------------------------------------------------------


Reading SHARK input file C2_wt_wb97_typm1_pos.SHARKINP.tmp ... ok
----------------------
SHARK INTEGRAL PACKAGE
----------------------

Number of atoms                             ...     11
Number of basis functions                   ...    136
Number of shells                            ...     60
Maximum angular momentum                    ...      2
Integral batch strategy                     ... SHARK/LIBINT Hybrid
RI-J (if used) integral strategy            ... SPLIT-RIJ (Revised 2003 algorithm where possible)
Printlevel                                  ...      1
Contraction scheme used                     ... SEGMENTED contraction
Coulomb Range Separation                    ... NOT USED
Exchange Range Separation                   ... Long Range
   Mu parameter                             ...  0.250000
   Scaling (regular/separated)              ...  0.195728  0.804272
Finite Nucleus Model                        ... NOT USED
Auxiliary Coulomb fitting basis             ... AVAILABLE
   # of basis functions in Aux-J            ...    273
   # of shells in Aux-J                     ...     95
   Maximum angular momentum in Aux-J        ...      4
Auxiliary J/K fitting basis                 ... NOT available
Auxiliary Correlation fitting basis         ... NOT available
Auxiliary 'external' fitting basis          ... NOT available
Integral threshold                          ...     2.500000e-11
Primitive cut-off                           ...     2.500000e-12
Primitive pair pre-selection threshold      ...     2.500000e-12

Calculating pre-screening integrals         ... done (  0.0 sec) Dimension = 60
Organizing shell pair data                  ... done (  0.0 sec)
Shell pair information
Total number of shell pairs                 ...      1830
Shell pairs after pre-screening             ...      1827
Total number of primitive shell pairs       ...      4924
Primitive shell pairs kept                  ...      4331
          la=0 lb=0:    462 shell pairs
          la=1 lb=0:    660 shell pairs
          la=1 lb=1:    253 shell pairs
          la=2 lb=0:    240 shell pairs
          la=2 lb=1:    176 shell pairs
          la=2 lb=2:     36 shell pairs

Calculating one electron integrals          ... done (  0.0 sec)
Calculating RI/J V-Matrix + Cholesky decomp.... done (  0.0 sec)
Calculating Nuclear repulsion               ... done (  0.0 sec) ENN=    124.819399063601 Eh

SHARK setup successfully completed in   0.2 seconds

Maximum memory used throughout the entire GTOINT-calculation: 8.8 MB


           ************************************************************
           *        Program running with 18 parallel MPI-processes    *
           *              working on a common directory               *
           ************************************************************
-------------------------------------------------------------------------------
                                 ORCA SCF
-------------------------------------------------------------------------------

------------
SCF SETTINGS
------------
Hamiltonian:
 Density Functional     Method          .... DFT(GTOs)
 Exchange Functional    Exchange        .... WB97X-D3
 Correlation Functional Correlation     .... WB97X-D3
 Gradients option       PostSCFGGA      .... off
 Hybrid DFT is turned on
   Fraction HF Exchange ScalHFX         ....  0.195728
   Scaling of DF-GGA-X  ScalDFX         ....  0.000000
   Scaling of DF-GGA-C  ScalDFC         ....  1.000000
   Scaling of DF-LDA-C  ScalLDAC        ....  1.000000
   Perturbative correction              ....  0.000000
   Density functional embedding theory  .... OFF
 Long-range corrected/Screened/Range-Separated Hybrid DFT is turned on
   Amount of maximum screened exact exchange              ....  0.804272
   Range separation parameter mu (erf(mu*r12)/r12)        ....  0.250000
 RI-approximation to the Coulomb term is turned on
   Number of AuxJ basis functions       .... 273
   RIJ-COSX (HFX calculated with COS-X)).... on


General Settings:
 Integral files         IntName         .... C2_wt_wb97_typm1_pos
 Hartree-Fock type      HFTyp           .... RHF
 Total Charge           Charge          ....    0
 Multiplicity           Mult            ....    1
 Number of Electrons    NEL             ....   32
 Basis Dimension        Dim             ....  136
 Nuclear Repulsion      ENuc            ....    124.8193990636 Eh

Convergence Acceleration:
 DIIS                   CNVDIIS         .... on
   Start iteration      DIISMaxIt       ....    12
   Startup error        DIISStart       ....  0.200000
   # of expansion vecs  DIISMaxEq       ....     5
   Bias factor          DIISBfac        ....   1.050
   Max. coefficient     DIISMaxC        ....  10.000
 Trust-Rad. Augm. Hess. CNVTRAH         .... auto
   Auto Start mean grad. ratio tolernc. ....  1.125000
   Auto Start start iteration           ....    20
   Auto Start num. interpolation iter.  ....    10
   Max. Number of Micro iterations      ....    16
   Max. Number of Macro iterations      .... Maxiter - #DIIS iter
   Number of Davidson start vectors     ....     2
   Converg. threshold I  (grad. norm)   ....   1.000e-05
   Converg. threshold II (energy diff.) ....   1.000e-08
   Grad. Scal. Fac. for Micro threshold ....   0.100
   Minimum threshold for Micro iter.    ....   0.010
   NR start threshold (gradient norm)   ....   0.001
   Initial trust radius                 ....   0.400
   Minimum AH scaling param. (alpha)    ....   1.000
   Maximum AH scaling param. (alpha)    .... 1000.000
   Orbital update algorithm             .... Taylor
   White noise on init. David. guess    .... on
   Maximum white noise                  ....   0.010
   Quad. conv. algorithm                .... NR
 SOSCF                  CNVSOSCF        .... on
   Start iteration      SOSCFMaxIt      ....   150
   Startup grad/error   SOSCFStart      ....  0.003300
 Level Shifting         CNVShift        .... on
   Level shift para.    LevelShift      ....    0.2500
   Turn off err/grad.   ShiftErr        ....    0.0010
 Zerner damping         CNVZerner       .... off
 Static damping         CNVDamp         .... on
   Fraction old density DampFac         ....    0.7000
   Max. Damping (<1)    DampMax         ....    0.9800
   Min. Damping (>=0)   DampMin         ....    0.0000
   Turn off err/grad.   DampErr         ....    0.1000
 Fernandez-Rico         CNVRico         .... off

SCF Procedure:
 Maximum # iterations   MaxIter         ....   150
 SCF integral mode      SCFMode         .... Direct
   Integral package                     .... SHARK and LIBINT hybrid scheme
 Reset frequency        DirectResetFreq ....    20
 Integral Threshold     Thresh          ....  2.500e-11 Eh
 Primitive CutOff       TCut            ....  2.500e-12 Eh

Convergence Tolerance:
 Convergence Check Mode ConvCheckMode   .... Total+1el-Energy
 Convergence forced     ConvForced      .... 0
 Energy Change          TolE            ....  1.000e-08 Eh
 1-El. energy change                    ....  1.000e-05 Eh
 Orbital Gradient       TolG            ....  1.000e-05
 Orbital Rotation angle TolX            ....  1.000e-05
 DIIS Error             TolErr          ....  5.000e-07


Diagonalization of the overlap matrix:
Smallest eigenvalue                        ... 7.894e-05
Time for diagonalization                   ...    0.005 sec
Threshold for overlap eigenvalues          ... 1.000e-08
Number of eigenvalues below threshold      ... 0
Time for construction of square roots      ...    0.009 sec
Total time needed                          ...    0.015 sec

Time for model grid setup =    0.037 sec

------------------------------
INITIAL GUESS: MODEL POTENTIAL
------------------------------
Loading Hartree-Fock densities                     ... done
Calculating cut-offs                               ... done
Initializing the effective Hamiltonian             ... done
Setting up the integral package (SHARK)            ... done
Starting the Coulomb interaction                   ... done (   0.0 sec)
Reading the grid                                   ... done
Mapping shells                                     ... done
Starting the XC term evaluation                    ... done (   0.0 sec)
  promolecular density results
     # of electrons  =     31.996753861
     EX              =    -24.004492867
     EC              =     -1.036799168
     EX+EC           =    -25.041292034
Transforming the Hamiltonian                       ... done (   0.0 sec)
Diagonalizing the Hamiltonian                      ... done (   0.0 sec)
Back transforming the eigenvectors                 ... done (   0.0 sec)
Now organizing SCF variables                       ... done
                      ------------------
                      INITIAL GUESS DONE (   0.1 sec)
                      ------------------
-------------------
DFT GRID GENERATION
-------------------

General Integration Accuracy     IntAcc      ... 4.388
Radial Grid Type                 RadialGrid  ... OptM3 with GC (2021)
Angular Grid (max. ang.)         AngularGrid ... 4 (Lebedev-302)
Angular grid pruning method      GridPruning ... 4 (adaptive)
Weight generation scheme         WeightScheme... Becke
Basis function cutoff            BFCut       ... 1.0000e-11
Integration weight cutoff        WCut        ... 1.0000e-14
Angular grids for H and He will be reduced by one unit
Partially contracted basis set               ... off
Rotationally invariant grid construction     ... off

Total number of grid points                  ...    48314
Total number of batches                      ...      762
Average number of points per batch           ...       63
Average number of grid points per atom       ...     4392
Time for grid setup =    0.235 sec

--------------------
COSX GRID GENERATION
--------------------

GRIDX 1
-------
General Integration Accuracy     IntAcc      ... 3.816
Radial Grid Type                 RadialGrid  ... OptM3 with GC (2021)
Angular Grid (max. ang.)         AngularGrid ... 1 (Lebedev-50)
Angular grid pruning method      GridPruning ... 4 (adaptive)
Weight generation scheme         WeightScheme... Becke
Basis function cutoff            BFCut       ... 1.0000e-11
Integration weight cutoff        WCut        ... 1.0000e-14
Angular grids for H and He will be reduced by one unit
Partially contracted basis set               ... on
Rotationally invariant grid construction     ... off

Total number of grid points                  ...     6050
Total number of batches                      ...      101
Average number of points per batch           ...       59
Average number of grid points per atom       ...      550
UseSFitting                                  ... on

GRIDX 2
-------
General Integration Accuracy     IntAcc      ... 4.020
Radial Grid Type                 RadialGrid  ... OptM3 with GC (2021)
Angular Grid (max. ang.)         AngularGrid ... 2 (Lebedev-110)
Angular grid pruning method      GridPruning ... 4 (adaptive)
Weight generation scheme         WeightScheme... Becke
Basis function cutoff            BFCut       ... 1.0000e-11
Integration weight cutoff        WCut        ... 1.0000e-14
Angular grids for H and He will be reduced by one unit
Partially contracted basis set               ... on
Rotationally invariant grid construction     ... off

Total number of grid points                  ...    13363
Total number of batches                      ...      214
Average number of points per batch           ...       62
Average number of grid points per atom       ...     1215
UseSFitting                                  ... on

GRIDX 3
-------
General Integration Accuracy     IntAcc      ... 4.338
Radial Grid Type                 RadialGrid  ... OptM3 with GC (2021)
Angular Grid (max. ang.)         AngularGrid ... 3 (Lebedev-194)
Angular grid pruning method      GridPruning ... 4 (adaptive)
Weight generation scheme         WeightScheme... Becke
Basis function cutoff            BFCut       ... 1.0000e-11
Integration weight cutoff        WCut        ... 1.0000e-14
Angular grids for H and He will be reduced by one unit
Partially contracted basis set               ... on
Rotationally invariant grid construction     ... off

Total number of grid points                  ...    30824
Total number of batches                      ...      486
Average number of points per batch           ...       63
Average number of grid points per atom       ...     2802
UseSFitting                                  ... on

Time for X-Grid setup             =    0.168 sec


--------------------
CPCM SOLVATION MODEL
--------------------
CPCM parameters:
  Epsilon                                         ...      80.4000
  Refrac                                          ...       1.3300
  Rsolv                                           ...       1.3000
  Surface type                                    ... GAUSSIAN VDW
  Epsilon function type                           ...         CPCM
Radii:
 Radius for C  used is    3.8550 Bohr (=   2.0400 Ang.)
 Radius for N  used is    3.5149 Bohr (=   1.8600 Ang.)
 Radius for H  used is    2.4944 Bohr (=   1.3200 Ang.)
Calculating surface                               ...        done! (  0.0s)
GEPOL surface points                              ...          665
GEPOL Volume                                      ...     596.0674
GEPOL Surface-area                                ...     381.8526
Calculating surface distance matrix               ...        done! (  0.0s)
Performing Cholesky decomposition & store         ...        done! (  0.0s)
Overall time for CPCM initialization              ...                 0.0s
--------------
SCF ITERATIONS
--------------
ITER       Energy         Delta-E        Max-DP      RMS-DP      [F,P]     Damp
               ***  Starting incremental Fock matrix formation  ***
  0   -172.9017726844   0.000000000000 0.16569965  0.00420616  0.2026886 0.7000
  1   -172.9760964805  -0.074323796067 0.10924368  0.00291765  0.1270014 0.7000
                               ***Turning on DIIS***
  2   -173.0153134004  -0.039216919898 0.21120442  0.00603208  0.0695045 0.0000
  3   -173.0773847431  -0.062071342677 0.05969022  0.00179538  0.0469383 0.0000
  4   -173.0866591116  -0.009274368481 0.01518370  0.00036288  0.0083501 0.0000
                      *** Initiating the SOSCF procedure ***
                           *** Shutting down DIIS ***
                      *** Re-Reading the Fockian *** 
                      *** Removing any level shift *** 
ITER      Energy       Delta-E        Grad      Rot      Max-DP    RMS-DP
  5   -173.08689112  -0.0002320091  0.000876  0.000876  0.003039  0.000115
               *** Restarting incremental Fock matrix formation ***
  6   -173.08687815   0.0000129753  0.000376  0.000881  0.004329  0.000121
  7   -173.08688410  -0.0000059506  0.000298  0.001213  0.003876  0.000096
  8   -173.08688559  -0.0000014926  0.000097  0.000126  0.000670  0.000021
  9   -173.08688576  -0.0000001763  0.000032  0.000048  0.000273  0.000009
 10   -173.08688578  -0.0000000188  0.000012  0.000042  0.000093  0.000003
 11   -173.08688579  -0.0000000039  0.000004  0.000016  0.000033  0.000001
                 **** Energy Check signals convergence ****
              ***Rediagonalizing the Fockian in SOSCF/NRSCF***

               *****************************************************
               *                     SUCCESS                       *
               *           SCF CONVERGED AFTER  12 CYCLES          *
               *****************************************************

Old exchange energy                            =     -8.258863362 Eh
New exchange energy                            =     -8.258917990 Eh
Exchange energy change after final integration =     -0.000054628 Eh
Total energy after final integration           =   -173.086940414 Eh
Final COS-X integration done in                =     0.546 sec

----------------
TOTAL SCF ENERGY
----------------

Total Energy       :         -173.08694041 Eh           -4709.93510 eV

Components:
Nuclear Repulsion  :          124.81939906 Eh            3396.50852 eV
Electronic Energy  :         -297.90633948 Eh           -8106.44362 eV
One Electron Energy:         -479.05999122 Eh          -13035.88509 eV
Two Electron Energy:          181.15365174 Eh            4929.44147 eV
Max COSX asymmetry :            0.00000407 Eh               0.00011 eV
CPCM Dielectric    :           -0.00977564 Eh              -0.26601 eV

Virial components:
Potential Energy   :         -344.65907884 Eh           -9378.65034 eV
Kinetic Energy     :          171.57213843 Eh            4668.71524 eV
Virial Ratio       :            2.00882895


DFT components:
N(Alpha)           :       16.000019673273 electrons
N(Beta)            :       16.000019673273 electrons
N(Total)           :       32.000039346545 electrons
E(XC)              :      -17.589634882191 Eh       
DFET-embed. en.    :        0.000000000000 Eh       
CPCM Solvation Model Properties:
Surface-charge          :           -0.02150250
Charge-correction       :            0.00005497 Eh               0.00150 eV
Free-energy (cav+disp)  :  This term is not implemented in the current solvation scheme

---------------
SCF CONVERGENCE
---------------

  Last Energy change         ...    1.7314e-09  Tolerance :   1.0000e-08
  Last MAX-Density change    ...    4.8850e-15  Tolerance :   1.0000e-07
  Last RMS-Density change    ...    6.2478e-17  Tolerance :   5.0000e-09
  Last Orbital Gradient      ...    6.5151e-07  Tolerance :   1.0000e-05
  Last Orbital Rotation      ...    2.5822e-06  Tolerance :   1.0000e-05

             **** THE GBW FILE WAS UPDATED (C2_wt_wb97_typm1_pos.gbw) ****
             **** DENSITY C2_wt_wb97_typm1_pos.scfp WAS UPDATED ****
             **** ENERGY FILE WAS UPDATED (C2_wt_wb97_typm1_pos.en.tmp) ****
             **** THE GBW FILE WAS UPDATED (C2_wt_wb97_typm1_pos.gbw) ****
             **** DENSITY C2_wt_wb97_typm1_pos.scfp WAS UPDATED ****
----------------
ORBITAL ENERGIES
----------------

  NO   OCC          E(Eh)            E(eV) 
   0   2.0000     -14.430323      -392.6691 
   1   2.0000     -10.314921      -280.6833 
   2   2.0000     -10.276723      -279.6439 
   3   2.0000     -10.222846      -278.1778 
   4   2.0000      -1.040003       -28.2999 
   5   2.0000      -0.862497       -23.4697 
   6   2.0000      -0.802123       -21.8269 
   7   2.0000      -0.664680       -18.0869 
   8   2.0000      -0.629852       -17.1391 
   9   2.0000      -0.570153       -15.5147 
  10   2.0000      -0.532056       -14.4780 
  11   2.0000      -0.495006       -13.4698 
  12   2.0000      -0.488313       -13.2877 
  13   2.0000      -0.453661       -12.3447 
  14   2.0000      -0.432058       -11.7569 
  15   2.0000      -0.283235        -7.7072 
  16   0.0000       0.097035         2.6405 
  17   0.0000       0.120621         3.2823 
  18   0.0000       0.132850         3.6150 
  19   0.0000       0.140624         3.8266 
  20   0.0000       0.168842         4.5944 
  21   0.0000       0.178915         4.8685 
  22   0.0000       0.191309         5.2058 
  23   0.0000       0.209585         5.7031 
  24   0.0000       0.219209         5.9650 
  25   0.0000       0.231730         6.3057 
  26   0.0000       0.260810         7.0970 
  27   0.0000       0.267668         7.2836 
  28   0.0000       0.277005         7.5377 
  29   0.0000       0.283695         7.7197 
  30   0.0000       0.300067         8.1652 
  31   0.0000       0.306446         8.3388 
  32   0.0000       0.315605         8.5881 
  33   0.0000       0.324413         8.8277 
  34   0.0000       0.376459        10.2440 
  35   0.0000       0.379581        10.3289 
  36   0.0000       0.386965        10.5299 
  37   0.0000       0.390447        10.6246 
  38   0.0000       0.409812        11.1516 
  39   0.0000       0.412688        11.2298 
  40   0.0000       0.420156        11.4330 
  41   0.0000       0.438645        11.9361 
  42   0.0000       0.445488        12.1223 
  43   0.0000       0.445883        12.1331 
  44   0.0000       0.453766        12.3476 
  45   0.0000       0.467272        12.7151 
  46   0.0000       0.476826        12.9751 
  47   0.0000       0.485005        13.1976 
  48   0.0000       0.492764        13.4088 
  49   0.0000       0.501536        13.6475 
  50   0.0000       0.515020        14.0144 
  51   0.0000       0.522312        14.2128 
  52   0.0000       0.534120        14.5341 
  53   0.0000       0.548526        14.9262 
  54   0.0000       0.564540        15.3619 
  55   0.0000       0.573927        15.6174 
  56   0.0000       0.586722        15.9655 
  57   0.0000       0.596318        16.2266 
  58   0.0000       0.604340        16.4449 
  59   0.0000       0.617144        16.7934 
  60   0.0000       0.631722        17.1900 
  61   0.0000       0.642794        17.4913 
  62   0.0000       0.658168        17.9096 
  63   0.0000       0.670987        18.2585 
  64   0.0000       0.689576        18.7643 
  65   0.0000       0.704716        19.1763 
  66   0.0000       0.727813        19.8048 
  67   0.0000       0.756777        20.5929 
  68   0.0000       0.764249        20.7963 
  69   0.0000       0.768810        20.9204 
  70   0.0000       0.835291        22.7294 
  71   0.0000       0.874440        23.7947 
  72   0.0000       0.948042        25.7975 
  73   0.0000       0.954212        25.9654 
  74   0.0000       1.027042        27.9472 
  75   0.0000       1.033712        28.1287 
  76   0.0000       1.070818        29.1384 
  77   0.0000       1.085907        29.5490 
  78   0.0000       1.092903        29.7394 
  79   0.0000       1.098054        29.8796 
  80   0.0000       1.128325        30.7033 
  81   0.0000       1.180406        32.1205 
  82   0.0000       1.198659        32.6172 
  83   0.0000       1.215915        33.0867 
  84   0.0000       1.235205        33.6116 
  85   0.0000       1.243319        33.8324 
  86   0.0000       1.286919        35.0188 
  87   0.0000       1.311037        35.6751 
  88   0.0000       1.334108        36.3029 
  89   0.0000       1.379639        37.5419 
  90   0.0000       1.401953        38.1491 
  91   0.0000       1.517993        41.3067 
  92   0.0000       1.629963        44.3535 
  93   0.0000       1.637843        44.5680 
  94   0.0000       1.670194        45.4483 
  95   0.0000       1.684657        45.8419 
  96   0.0000       1.700359        46.2691 
  97   0.0000       1.785754        48.5928 
  98   0.0000       1.800905        49.0051 
  99   0.0000       1.837653        50.0051 
 100   0.0000       1.870978        50.9119 
 101   0.0000       1.907709        51.9114 
 102   0.0000       1.929249        52.4975 
 103   0.0000       1.990712        54.1700 
 104   0.0000       2.015752        54.8514 
 105   0.0000       2.042775        55.5867 
 106   0.0000       2.063049        56.1384 
 107   0.0000       2.100810        57.1659 
 108   0.0000       2.120487        57.7014 
 109   0.0000       2.163043        58.8594 
 110   0.0000       2.219065        60.3838 
 111   0.0000       2.232521        60.7500 
 112   0.0000       2.262245        61.5588 
 113   0.0000       2.314641        62.9846 
 114   0.0000       2.335355        63.5482 
 115   0.0000       2.415023        65.7161 
 116   0.0000       2.474473        67.3338 
 117   0.0000       2.492764        67.8316 
 118   0.0000       2.528025        68.7911 
 119   0.0000       2.530877        68.8687 
 120   0.0000       2.602388        70.8146 
 121   0.0000       2.668198        72.6054 
 122   0.0000       2.714953        73.8776 
 123   0.0000       2.780277        75.6552 
 124   0.0000       2.846417        77.4549 
 125   0.0000       2.894207        78.7554 
 126   0.0000       2.934402        79.8491 
 127   0.0000       3.065692        83.4217 
 128   0.0000       3.130216        85.1775 
 129   0.0000       3.199367        87.0592 
 130   0.0000       3.246585        88.3441 
 131   0.0000       3.336916        90.8021 
 132   0.0000       3.401417        92.5573 
 133   0.0000       3.426517        93.2403 
 134   0.0000       3.664613        99.7192 
 135   0.0000       3.777203       102.7829 

                    ********************************
                    * MULLIKEN POPULATION ANALYSIS *
                    ********************************

-----------------------
MULLIKEN ATOMIC CHARGES
-----------------------
   0 C :    0.700221
   1 C :   -0.728019
   2 N :    0.188387
   3 C :    0.381507
   4 H :   -0.156960
   5 H :   -0.338945
   6 H :   -0.077190
   7 H :   -0.049645
   8 H :    0.074706
   9 H :    0.006973
  10 H :   -0.001036
Sum of atomic charges:    0.0000000

--------------------------------
MULLIKEN REDUCED ORBITAL CHARGES
--------------------------------
  0 C s       :     2.357573  s :     2.357573
      pz      :     0.986474  p :     2.872450
      px      :     0.998404
      py      :     0.887572
      dz2     :     0.022418  d :     0.069755
      dxz     :     0.025583
      dyz     :    -0.000790
      dx2y2   :     0.000178
      dxy     :     0.022367
  1 C s       :     2.943515  s :     2.943515
      pz      :     0.897050  p :     2.840300
      px      :     1.025205
      py      :     0.918045
      dz2     :     0.094784  d :     0.944204
      dxz     :     0.094366
      dyz     :     0.230096
      dx2y2   :     0.219296
      dxy     :     0.305662
  2 N s       :     3.138729  s :     3.138729
      pz      :     1.552926  p :     3.668899
      px      :     1.112172
      py      :     1.003801
      dz2     :     0.010717  d :     0.003985
      dxz     :    -0.002547
      dyz     :     0.007938
      dx2y2   :    -0.011187
      dxy     :    -0.000937
  3 C s       :     2.983065  s :     2.983065
      pz      :     0.993116  p :     2.630179
      px      :     0.725491
      py      :     0.911571
      dz2     :    -0.000300  d :     0.005250
      dxz     :    -0.009197
      dyz     :     0.010660
      dx2y2   :     0.001596
      dxy     :     0.002491
  4 H s       :     1.130623  s :     1.130623
      pz      :     0.041924  p :     0.026337
      px      :    -0.023633
      py      :     0.008046
  5 H s       :     1.266220  s :     1.266220
      pz      :     0.031718  p :     0.072724
      px      :     0.026864
      py      :     0.014142
  6 H s       :     1.017927  s :     1.017927
      pz      :     0.042995  p :     0.059263
      px      :    -0.010512
      py      :     0.026780
  7 H s       :     1.016041  s :     1.016041
      pz      :     0.049794  p :     0.033604
      px      :     0.016003
      py      :    -0.032193
  8 H s       :     0.810729  s :     0.810729
      pz      :     0.002168  p :     0.114565
      px      :     0.012238
      py      :     0.100159
  9 H s       :     0.936507  s :     0.936507
      pz      :     0.038121  p :     0.056520
      px      :     0.025159
      py      :    -0.006760
 10 H s       :     0.933535  s :     0.933535
      pz      :     0.043439  p :     0.067501
      px      :     0.014540
      py      :     0.009522


                     *******************************
                     * LOEWDIN POPULATION ANALYSIS *
                     *******************************

----------------------
LOEWDIN ATOMIC CHARGES
----------------------
   0 C :    0.168594
   1 C :   -0.307427
   2 N :    0.160504
   3 C :    0.137203
   4 H :   -0.086336
   5 H :   -0.088403
   6 H :    0.023598
   7 H :    0.014498
   8 H :   -0.011726
   9 H :   -0.006938
  10 H :   -0.003567

-------------------------------
LOEWDIN REDUCED ORBITAL CHARGES
-------------------------------
  0 C s       :     2.701178  s :     2.701178
      pz      :     0.930478  p :     2.769116
      px      :     0.905005
      py      :     0.933633
      dz2     :     0.055444  d :     0.361112
      dxz     :     0.086370
      dyz     :     0.068708
      dx2y2   :     0.064597
      dxy     :     0.085993
  1 C s       :     2.666636  s :     2.666636
      pz      :     0.752597  p :     2.578404
      px      :     0.871656
      py      :     0.954151
      dz2     :     0.127843  d :     1.062387
      dxz     :     0.133049
      dyz     :     0.271306
      dx2y2   :     0.256987
      dxy     :     0.273202
  2 N s       :     2.924237  s :     2.924237
      pz      :     1.355695  p :     3.550717
      px      :     1.114339
      py      :     1.080683
      dz2     :     0.040842  d :     0.364542
      dxz     :     0.037833
      dyz     :     0.070859
      dx2y2   :     0.134071
      dxy     :     0.080937
  3 C s       :     2.732662  s :     2.732662
      pz      :     0.921592  p :     2.795449
      px      :     0.927163
      py      :     0.946695
      dz2     :     0.026616  d :     0.334686
      dxz     :     0.029029
      dyz     :     0.068438
      dx2y2   :     0.115106
      dxy     :     0.095497
  4 H s       :     0.767242  s :     0.767242
      pz      :     0.119636  p :     0.319094
      px      :     0.096984
      py      :     0.102475
  5 H s       :     0.762722  s :     0.762722
      pz      :     0.110755  p :     0.325681
      px      :     0.129881
      py      :     0.085044
  6 H s       :     0.649683  s :     0.649683
      pz      :     0.112283  p :     0.326719
      px      :     0.083796
      py      :     0.130639
  7 H s       :     0.641623  s :     0.641623
      pz      :     0.109685  p :     0.343879
      px      :     0.143647
      py      :     0.090547
  8 H s       :     0.730192  s :     0.730192
      pz      :     0.076682  p :     0.281534
      px      :     0.076188
      py      :     0.128664
  9 H s       :     0.736874  s :     0.736874
      pz      :     0.095647  p :     0.270064
      px      :     0.089089
      py      :     0.085329
 10 H s       :     0.734721  s :     0.734721
      pz      :     0.107449  p :     0.268846
      px      :     0.068680
      py      :     0.092718


                      *****************************
                      * MAYER POPULATION ANALYSIS *
                      *****************************

  NA   - Mulliken gross atomic population
  ZA   - Total nuclear charge
  QA   - Mulliken gross atomic charge
  VA   - Mayer's total valence
  BVA  - Mayer's bonded valence
  FA   - Mayer's free valence

  ATOM       NA         ZA         QA         VA         BVA        FA
  0 C      5.2998     6.0000     0.7002     3.6363     3.6363    -0.0000
  1 C      6.7280     6.0000    -0.7280     5.5443     5.5443    -0.0000
  2 N      6.8116     7.0000     0.1884     3.8417     3.8417     0.0000
  3 C      5.6185     6.0000     0.3815     3.8303     3.8303     0.0000
  4 H      1.1570     1.0000    -0.1570     0.9954     0.9954     0.0000
  5 H      1.3389     1.0000    -0.3389     1.0940     1.0940     0.0000
  6 H      1.0772     1.0000    -0.0772     1.0287     1.0287     0.0000
  7 H      1.0496     1.0000    -0.0496     0.9217     0.9217     0.0000
  8 H      0.9253     1.0000     0.0747     1.1603     1.1603    -0.0000
  9 H      0.9930     1.0000     0.0070     1.1434     1.1434    -0.0000
 10 H      1.0010     1.0000    -0.0010     1.1874     1.1874    -0.0000

  Mayer bond orders larger than 0.100000
B(  0-C ,  1-C ) :   1.3811 B(  0-C ,  8-H ) :   0.7875 B(  0-C ,  9-H ) :   0.6903 
B(  0-C , 10-H ) :   0.7118 B(  1-C ,  2-N ) :   1.2679 B(  1-C ,  3-C ) :   1.8605 
B(  1-C ,  5-H ) :   0.2306 B(  1-C ,  8-H ) :   0.2266 B(  1-C ,  9-H ) :   0.2640 
B(  1-C , 10-H ) :   0.2651 B(  2-N ,  3-C ) :   0.2257 B(  2-N ,  6-H ) :   1.1275 
B(  2-N ,  7-H ) :   1.1026 B(  3-C ,  4-H ) :   0.9462 B(  3-C ,  5-H ) :   0.7845 
B(  6-H ,  7-H ) :  -0.1072 B(  8-H ,  9-H ) :   0.1000 B(  8-H , 10-H ) :   0.1121 


-------
TIMINGS
-------

Total SCF time: 0 days 0 hours 0 min 6 sec 

Total time                  ....       6.016 sec
Sum of individual times     ....       5.806 sec  ( 96.5%)

Fock matrix formation       ....       5.228 sec  ( 86.9%)
  Split-RI-J                ....       0.374 sec  (  7.2% of F)
  Chain of spheres X        ....       3.176 sec  ( 60.7% of F)
  XC integration            ....       0.605 sec  ( 11.6% of F)
    Basis function eval.    ....       0.163 sec  ( 26.9% of XC)
    Density eval.           ....       0.103 sec  ( 17.1% of XC)
    XC-Functional eval.     ....       0.058 sec  (  9.6% of XC)
    XC-Potential eval.      ....       0.134 sec  ( 22.2% of XC)
Diagonalization             ....       0.035 sec  (  0.6%)
Density matrix formation    ....       0.006 sec  (  0.1%)
Population analysis         ....       0.007 sec  (  0.1%)
Initial guess               ....       0.030 sec  (  0.5%)
Orbital Transformation      ....       0.000 sec  (  0.0%)
Orbital Orthonormalization  ....       0.000 sec  (  0.0%)
DIIS solution               ....       0.028 sec  (  0.5%)
SOSCF solution              ....       0.032 sec  (  0.5%)
Grid generation             ....       0.440 sec  (  7.3%)

Maximum memory used throughout the entire SCF-calculation: 48.7 MB


-------------------------------------------------------------------------------
                          DFT DISPERSION CORRECTION                            
                                                                               
                              DFTD3 V3.1  Rev 1                                
                              USING zero damping                               
-------------------------------------------------------------------------------
The omegaB97X-D3 functional is recognized. Fit by Chai et al.
Active option DFTDOPT                   ...         3   

molecular C6(AA) [au] = 933.041023 


            DFT-D V3
 parameters
 s6 scaling factor         :     1.0000 
 rs6 scaling factor        :     1.2810 
 s8 scaling factor         :     1.0000 
 rs8 scaling factor        :     1.0940 
 Damping factor alpha6     :    14.0000 
 Damping factor alpha8     :    16.0000 
 ad hoc parameters k1-k3   :    16.0000     1.3333    -4.0000 

 Edisp/kcal,au: -1.046057060635  -0.001666997858 
 E6   /kcal   :  -0.400206450 
 E8   /kcal   :  -0.645850610 
 % E8         :  61.741432152 

-------------------------   ----------------
Dispersion correction           -0.001666998
-------------------------   ----------------


-------------------------   --------------------
FINAL SINGLE POINT ENERGY      -173.088607412183
-------------------------   --------------------


                            ***************************************
                            *     ORCA property calculations      *
                            ***************************************

                                    ---------------------
                                    Active property flags
                                    ---------------------
   (+) Dipole Moment


------------------------------------------------------------------------------
                       ORCA ELECTRIC PROPERTIES CALCULATION
------------------------------------------------------------------------------

Dipole Moment Calculation                       ... on
Quadrupole Moment Calculation                   ... off
Polarizability Calculation                      ... off
GBWName                                         ... C2_wt_wb97_typm1_pos.gbw
Electron density file                           ... C2_wt_wb97_typm1_pos.scfp
The origin for moment calculation is the CENTER OF MASS  = ( 5.817422, -0.514396 -1.387304)

-------------
DIPOLE MOMENT
-------------
                                X             Y             Z
Electronic contribution:     -1.13922       1.06680       0.86787
Nuclear contribution   :      1.10788      -0.01499      -1.11971
                        -----------------------------------------
Total Dipole Moment    :     -0.03134       1.05181      -0.25184
                        -----------------------------------------
Magnitude (a.u.)       :      1.08199
Magnitude (Debye)      :      2.75021



--------------------
Rotational spectrum 
--------------------
 
Rotational constants in cm-1:     0.367851     0.295709     0.169239 
Rotational constants in MHz : 11027.892768  8865.123922  5073.656136 

 Dipole components along the rotational axes: 
x,y,z [a.u.] :    -0.092105     1.024113    -0.336774 
x,y,z [Debye]:    -0.234114     2.603089    -0.856012 

 

Timings for individual modules:

Sum of individual times         ...        6.974 sec (=   0.116 min)
GTO integral calculation        ...        0.574 sec (=   0.010 min)   8.2 %
SCF iterations                  ...        6.400 sec (=   0.107 min)  91.8 %
                             ****ORCA TERMINATED NORMALLY****
TOTAL RUN TIME: 0 days 0 hours 0 minutes 7 seconds 550 msec
