
                                        *****************
                                        * O   R   C   A *
                                        *****************

                                            #,                                       
                                            ###                                      
                                            ####                                     
                                            #####                                    
                                            ######                                   
                                           ########,                                 
                                     ,,################,,,,,                         
                               ,,#################################,,                 
                          ,,##########################################,,             
                       ,#########################################, ''#####,          
                    ,#############################################,,   '####,        
                  ,##################################################,,,,####,       
                ,###########''''           ''''###############################       
              ,#####''   ,,,,##########,,,,          '''####'''          '####       
            ,##' ,,,,###########################,,,                        '##       
           ' ,,###''''                  '''############,,,                           
         ,,##''                                '''############,,,,        ,,,,,,###''
      ,#''                                            '''#######################'''  
     '                                                          ''''####''''         
             ,#######,   #######,   ,#######,      ##                                
            ,#'     '#,  ##    ##  ,#'     '#,    #''#        ######   ,####,        
            ##       ##  ##   ,#'  ##            #'  '#       #        #'  '#        
            ##       ##  #######   ##           ,######,      #####,   #    #        
            '#,     ,#'  ##    ##  '#,     ,#' ,#      #,         ##   #,  ,#        
             '#######'   ##     ##  '#######'  #'      '#     #####' # '####'        



                  #######################################################
                  #                        -***-                        #
                  #          Department of theory and spectroscopy      #
                  #    Directorship and core code : Frank Neese         #
                  #        Max Planck Institute fuer Kohlenforschung    #
                  #                Kaiser Wilhelm Platz 1               #
                  #                 D-45470 Muelheim/Ruhr               #
                  #                      Germany                        #
                  #                                                     #
                  #                  All rights reserved                #
                  #                        -***-                        #
                  #######################################################


                         Program Version 5.0.0 -  RELEASE  -
                                (SVN: $Rev: 19529$)
                ($Date: 2021-06-28 11:36:33 +0200 (Mo, 28 Jun 2021) $)


 With contributions from (in alphabetic order):
   Daniel Aravena         : Magnetic Suceptibility
   Michael Atanasov       : Ab Initio Ligand Field Theory (pilot matlab implementation)
   Alexander A. Auer      : GIAO ZORA, VPT2 properties, NMR spectrum
   Ute Becker             : Parallelization
   Giovanni Bistoni       : ED, misc. LED, open-shell LED, HFLD
   Martin Brehm           : Molecular dynamics
   Dmytro Bykov           : SCF Hessian
   Vijay G. Chilkuri      : MRCI spin determinant printing, contributions to CSF-ICE
   Dipayan Datta          : RHF DLPNO-CCSD density
   Achintya Kumar Dutta   : EOM-CC, STEOM-CC
   Dmitry Ganyushin       : Spin-Orbit,Spin-Spin,Magnetic field MRCI
   Miquel Garcia          : C-PCM Hessian, Gaussian charge scheme
   Yang Guo               : DLPNO-NEVPT2, F12-NEVPT2, CIM, IAO-localization
   Andreas Hansen         : Spin unrestricted coupled pair/coupled cluster methods
   Benjamin Helmich-Paris : MC-RPA, TRAH-SCF, COSX integrals
   Lee Huntington         : MR-EOM, pCC
   Robert Izsak           : Overlap fitted RIJCOSX, COSX-SCS-MP3, EOM
   Marcus Kettner         : VPT2
   Christian Kollmar      : KDIIS, OOCD, Brueckner-CCSD(T), CCSD density, CASPT2, CASPT2-K
   Simone Kossmann        : Meta GGA functionals, TD-DFT gradient, OOMP2, MP2 Hessian
   Martin Krupicka        : Initial AUTO-CI
   Lucas Lang             : DCDCAS
   Marvin Lechner         : AUTO-CI (C++ implementation), FIC-MRCC
   Dagmar Lenk            : GEPOL surface, SMD
   Dimitrios Liakos       : Extrapolation schemes; Compound Job, initial MDCI parallelization
   Dimitrios Manganas     : Further ROCIS development; embedding schemes
   Dimitrios Pantazis     : SARC Basis sets
   Anastasios Papadopoulos: AUTO-CI, single reference methods and gradients
   Taras Petrenko         : DFT Hessian,TD-DFT gradient, ASA, ECA, R-Raman, ABS, FL, XAS/XES, NRVS
   Peter Pinski           : DLPNO-MP2, DLPNO-MP2 Gradient
   Christoph Reimann      : Effective Core Potentials
   Marius Retegan         : Local ZFS, SOC
   Christoph Riplinger    : Optimizer, TS searches, QM/MM, DLPNO-CCSD(T), (RO)-DLPNO pert. Triples
   Tobias Risthaus        : Range-separated hybrids, TD-DFT gradient, RPA, STAB
   Michael Roemelt        : Original ROCIS implementation
   Masaaki Saitow         : Open-shell DLPNO-CCSD energy and density
   Barbara Sandhoefer     : DKH picture change effects
   Avijit Sen             : IP-ROCIS
   Kantharuban Sivalingam : CASSCF convergence, NEVPT2, FIC-MRCI
   Bernardo de Souza      : ESD, SOC TD-DFT
   Georgi Stoychev        : AutoAux, RI-MP2 NMR
   Willem Van den Heuvel  : Paramagnetic NMR
   Boris Wezisla          : Elementary symmetry handling
   Frank Wennmohs         : Technical directorship


 We gratefully acknowledge several colleagues who have allowed us to
 interface, adapt or use parts of their codes:
   Stefan Grimme, W. Hujo, H. Kruse, P. Pracht,  : VdW corrections, initial TS optimization,
                  C. Bannwarth, S. Ehlert          DFT functionals, gCP, sTDA/sTD-DF
   Ed Valeev, F. Pavosevic, A. Kumar             : LibInt (2-el integral package), F12 methods
   Garnet Chan, S. Sharma, J. Yang, R. Olivares  : DMRG
   Ulf Ekstrom                                   : XCFun DFT Library
   Mihaly Kallay                                 : mrcc  (arbitrary order and MRCC methods)
   Jiri Pittner, Ondrej Demel                    : Mk-CCSD
   Frank Weinhold                                : gennbo (NPA and NBO analysis)
   Christopher J. Cramer and Donald G. Truhlar   : smd solvation model
   Lars Goerigk                                  : TD-DFT with DH, B97 family of functionals
   V. Asgeirsson, H. Jonsson                     : NEB implementation
   FAccTs GmbH                                   : IRC, NEB, NEB-TS, DLPNO-Multilevel, CI-OPT
                                                   MM, QMMM, 2- and 3-layer-ONIOM, Crystal-QMMM,
                                                   LR-CPCM, SF, NACMEs, symmetry and pop. for TD-DFT,
                                                   nearIR, NL-DFT gradient (VV10), updates on ESD,
                                                   ML-optimized integration grids
   S Lehtola, MJT Oliveira, MAL Marques          : LibXC Library
   Liviu Ungur et al                             : ANISO software


 Your calculation uses the libint2 library for the computation of 2-el integrals
 For citations please refer to: http://libint.valeyev.net

 Your ORCA version has been built with support for libXC version: 5.1.0
 For citations please refer to: https://tddft.org/programs/libxc/

 This ORCA versions uses:
   CBLAS   interface :  Fast vector & matrix operations
   LAPACKE interface :  Fast linear algebra routines
   SCALAPACK package :  Parallel linear algebra routines
   Shared memory     :  Shared parallel matrices
   BLAS/LAPACK       :  OpenBLAS 0.3.15  USE64BITINT DYNAMIC_ARCH NO_AFFINITY Haswell SINGLE_THREADED
        Core in use  :  Haswell
   Copyright (c) 2011-2014, The OpenBLAS Project


Your calculation utilizes the atom-pairwise dispersion correction
with the zero-damping scheme (D30)
Cite in your paper:
S.Grimme, J.Antony, S.Ehrlich and H.Krieg, J.Chem.Phys., 132, (2010), 154104 
   

XCFun DFT library Copyright 2009-2010 Ulf Ekstrom and contributors.
See http://admol.org/xcfun for more information.
This is free software; see the source code for copying conditions.
There is ABSOLUTELY NO WARRANTY; not even for MERCHANTABILITY or FITNESS FOR A PARTICULAR PURPOSE.
For details see the documentation.
Scientific users of this library should cite U. Ekstrom, L. Visscher, R. Bast, A. J. Thorvaldsen and K. Ruud;
J.Chem.Theor.Comp. 2010, DOI: 10.1021/ct100117s
XCFun Version 0.99 

================================================================================

----- Orbital basis set information -----
Your calculation utilizes the basis: def2-SVP
   F. Weigend and R. Ahlrichs, Phys. Chem. Chem. Phys. 7, 3297 (2005).

----- AuxJ basis set information -----
Your calculation utilizes the auxiliary basis: def2/J
   F. Weigend, Phys. Chem. Chem. Phys. 8, 1057 (2006).

================================================================================
                                        WARNINGS
                       Please study these warnings very carefully!
================================================================================


INFO   : the flag for use of the SHARK integral package has been found!

================================================================================
                                       INPUT FILE
================================================================================
NAME = C1_pos.com
|  1> !wB97X-D3 RIJCOSX def2-SVP def2/J TightSCF 
|  2> *xyz 0 1 
|  3> C          1.63556       -1.67040       -5.29211
|  4> C          0.33848       -1.50091       -4.50540
|  5> C          2.48451       -0.50741       -5.14039
|  6> C         -0.68487       -0.52803       -5.09989
|  7> H          1.39834       -1.82924       -6.35259
|  8> H          2.15586       -2.56540       -4.93209
|  9> C          3.45115       -0.14953       -5.95259
| 10> N          3.92267        1.08956       -5.85071
| 11> N          3.96616       -1.00618       -6.86788
| 12> H          3.52139       -1.90647       -6.99527
| 13> H          4.44482       -0.62347       -7.67035
| 14> H          2.25200        0.24080       -4.49879
| 15> H          3.46428        1.64078       -5.13639
| 16> H          4.83447        1.31375       -6.22465
| 17> H          0.59489       -1.21158       -3.48231
| 18> H         -0.12653       -2.48766       -4.43418
| 19> H         -0.92267       -0.82721       -6.09931
| 20> H         -0.27317        0.45953       -5.11162
| 21> H         -1.57350       -0.53693       -4.50394
| 22> *
| 23> 
| 24> %MaxCore 64000
| 25> 
| 26> %pal nprocs 18
| 27> end  
| 28> 
| 29> %scf
| 30>   MaxIter 150
| 31> end
| 32> 
| 33> 
| 34>                          ****END OF INPUT****
================================================================================

                       ****************************
                       * Single Point Calculation *
                       ****************************

---------------------------------
CARTESIAN COORDINATES (ANGSTROEM)
---------------------------------
  C      1.635560   -1.670400   -5.292110
  C      0.338480   -1.500910   -4.505400
  C      2.484510   -0.507410   -5.140390
  C     -0.684870   -0.528030   -5.099890
  H      1.398340   -1.829240   -6.352590
  H      2.155860   -2.565400   -4.932090
  C      3.451150   -0.149530   -5.952590
  N      3.922670    1.089560   -5.850710
  N      3.966160   -1.006180   -6.867880
  H      3.521390   -1.906470   -6.995270
  H      4.444820   -0.623470   -7.670350
  H      2.252000    0.240800   -4.498790
  H      3.464280    1.640780   -5.136390
  H      4.834470    1.313750   -6.224650
  H      0.594890   -1.211580   -3.482310
  H     -0.126530   -2.487660   -4.434180
  H     -0.922670   -0.827210   -6.099310
  H     -0.273170    0.459530   -5.111620
  H     -1.573500   -0.536930   -4.503940

----------------------------
CARTESIAN COORDINATES (A.U.)
----------------------------
  NO LB      ZA    FRAG     MASS         X           Y           Z
   0 C     6.0000    0    12.011    3.090760   -3.156599  -10.000639
   1 C     6.0000    0    12.011    0.639635   -2.836309   -8.513972
   2 C     6.0000    0    12.011    4.695043   -0.958866   -9.713929
   3 C     6.0000    0    12.011   -1.294217   -0.997832   -9.637395
   4 H     1.0000    0     1.008    2.642480   -3.456763  -12.004655
   5 H     1.0000    0     1.008    4.073985   -4.847903   -9.320299
   6 C     6.0000    0    12.011    6.521728   -0.282571  -11.248765
   7 N     7.0000    0    14.007    7.412772    2.058970  -11.056240
   8 N     7.0000    0    14.007    7.494956   -1.901405  -12.978412
   9 H     1.0000    0     1.008    6.654463   -3.602706  -13.219145
  10 H     1.0000    0     1.008    8.399493   -1.178188  -14.494861
  11 H     1.0000    0     1.008    4.255663    0.455046   -8.501481
  12 H     1.0000    0     1.008    6.546540    3.100625   -9.706370
  13 H     1.0000    0     1.008    9.135824    2.482628  -11.762884
  14 H     1.0000    0     1.008    1.124179   -2.289554   -6.580612
  15 H     1.0000    0     1.008   -0.239107   -4.700996   -8.379386
  16 H     1.0000    0     1.008   -1.743594   -1.563200  -11.526026
  17 H     1.0000    0     1.008   -0.516216    0.868386   -9.659562
  18 H     1.0000    0     1.008   -2.973484   -1.014651   -8.511213

--------------------------------
INTERNAL COORDINATES (ANGSTROEM)
--------------------------------
 C      0   0   0     0.000000000000     0.00000000     0.00000000
 C      1   0   0     1.526452099019     0.00000000     0.00000000
 C      1   2   0     1.447853860374   110.79630082     0.00000000
 C      2   1   3     1.532044084548   115.98358597    73.88110414
 H      1   2   3     1.098235541403   109.27983290   238.48612086
 H      1   2   3     1.096061809571   108.95036832   121.23137438
 C      3   1   2     1.312303251539   125.88108164   201.13093006
 N      7   3   1     1.329682169881   117.89912014   164.56341170
 N      7   3   1     1.355300817789   121.70242568   344.31618449
 H      9   7   3     1.012210773061   118.69888469     7.01850578
 H      9   7   3     1.009722952398   118.50845680   158.08561097
 H      3   1   2     1.012684385285   121.68431269     6.65893231
 H      8   7   3     1.012036532394   113.64189798   359.66429587
 H      8   7   3     1.010678742084   119.88613512   160.18204289
 H      2   1   3     1.093696066145   108.19617644   308.99645211
 H      2   1   3     1.093152391481   107.14640455   194.96768801
 H      4   2   1     1.069998994766   109.47133348    56.34951068
 H      4   2   1     1.070004316113   109.47145361   296.34912013
 H      4   2   1     1.069999481028   109.47143458   176.34923254

---------------------------
INTERNAL COORDINATES (A.U.)
---------------------------
 C      0   0   0     0.000000000000     0.00000000     0.00000000
 C      1   0   0     2.884576423695     0.00000000     0.00000000
 C      1   2   0     2.736047278048   110.79630082     0.00000000
 C      2   1   3     2.895143744891   115.98358597    73.88110414
 H      1   2   3     2.075364403790   109.27983290   238.48612086
 H      1   2   3     2.071256645939   108.95036832   121.23137438
 C      3   1   2     2.479893750063   125.88108164   201.13093006
 N      7   3   1     2.512735146234   117.89912014   164.56341170
 N      7   3   1     2.561147374701   121.70242568   344.31618449
 H      9   7   3     1.912801150889   118.69888469     7.01850578
 H      9   7   3     1.908099851167   118.50845680   158.08561097
 H      3   1   2     1.913696148287   121.68431269     6.65893231
 H      8   7   3     1.912471883748   113.64189798   359.66429587
 H      8   7   3     1.909906031914   119.88613512   160.18204289
 H      2   1   3     2.066786038760   108.19617644   308.99645211
 H      2   1   3     2.065758642540   107.14640455   194.96768801
 H      4   2   1     2.022005063679   109.47133348    56.34951068
 H      4   2   1     2.022015119567   109.47145361   296.34912013
 H      4   2   1     2.022005982581   109.47143458   176.34923254

---------------------
BASIS SET INFORMATION
---------------------
There are 3 groups of distinct atoms

 Group   1 Type C   : 7s4p1d contracted to 3s2p1d pattern {511/31/1}
 Group   2 Type H   : 4s1p contracted to 2s1p pattern {31/1}
 Group   3 Type N   : 7s4p1d contracted to 3s2p1d pattern {511/31/1}

Atom   0C    basis set group =>   1
Atom   1C    basis set group =>   1
Atom   2C    basis set group =>   1
Atom   3C    basis set group =>   1
Atom   4H    basis set group =>   2
Atom   5H    basis set group =>   2
Atom   6C    basis set group =>   1
Atom   7N    basis set group =>   3
Atom   8N    basis set group =>   3
Atom   9H    basis set group =>   2
Atom  10H    basis set group =>   2
Atom  11H    basis set group =>   2
Atom  12H    basis set group =>   2
Atom  13H    basis set group =>   2
Atom  14H    basis set group =>   2
Atom  15H    basis set group =>   2
Atom  16H    basis set group =>   2
Atom  17H    basis set group =>   2
Atom  18H    basis set group =>   2
---------------------------------
AUXILIARY/J BASIS SET INFORMATION
---------------------------------
There are 3 groups of distinct atoms

 Group   1 Type C   : 12s5p4d2f1g contracted to 6s4p3d1f1g pattern {711111/2111/211/2/1}
 Group   2 Type H   : 5s2p1d contracted to 3s1p1d pattern {311/2/1}
 Group   3 Type N   : 12s5p4d2f1g contracted to 6s4p3d1f1g pattern {711111/2111/211/2/1}

Atom   0C    basis set group =>   1
Atom   1C    basis set group =>   1
Atom   2C    basis set group =>   1
Atom   3C    basis set group =>   1
Atom   4H    basis set group =>   2
Atom   5H    basis set group =>   2
Atom   6C    basis set group =>   1
Atom   7N    basis set group =>   3
Atom   8N    basis set group =>   3
Atom   9H    basis set group =>   2
Atom  10H    basis set group =>   2
Atom  11H    basis set group =>   2
Atom  12H    basis set group =>   2
Atom  13H    basis set group =>   2
Atom  14H    basis set group =>   2
Atom  15H    basis set group =>   2
Atom  16H    basis set group =>   2
Atom  17H    basis set group =>   2
Atom  18H    basis set group =>   2


           ************************************************************
           *        Program running with 18 parallel MPI-processes    *
           *              working on a common directory               *
           ************************************************************
------------------------------------------------------------------------------
                           ORCA GTO INTEGRAL CALCULATION
                           -- RI-GTO INTEGRALS CHOSEN --
------------------------------------------------------------------------------
------------------------------------------------------------------------------
                   ___                                                        
                  /   \      - P O W E R E D   B Y -                         
                 /     \                                                     
                 |  |  |   _    _      __       _____    __    __             
                 |  |  |  | |  | |    /  \     |  _  \  |  |  /  |          
                  \  \/   | |  | |   /    \    | | | |  |  | /  /          
                 / \  \   | |__| |  /  /\  \   | |_| |  |  |/  /          
                |  |  |   |  __  | /  /__\  \  |    /   |      \           
                |  |  |   | |  | | |   __   |  |    \   |  |\   \          
                \     /   | |  | | |  |  |  |  | |\  \  |  | \   \       
                 \___/    |_|  |_| |__|  |__|  |_| \__\ |__|  \__/        
                                                                              
                      - O R C A' S   B I G   F R I E N D -                    
                                      &                                       
                       - I N T E G R A L  F E E D E R -                       
                                                                              
 v1 FN, 2020, v2 2021                                                         
------------------------------------------------------------------------------


Reading SHARK input file C1_pos.SHARKINP.tmp ... ok
----------------------
SHARK INTEGRAL PACKAGE
----------------------

Number of atoms                             ...     19
Number of basis functions                   ...    158
Number of shells                            ...     78
Maximum angular momentum                    ...      2
Integral batch strategy                     ... SHARK/LIBINT Hybrid
RI-J (if used) integral strategy            ... SPLIT-RIJ (Revised 2003 algorithm where possible)
Printlevel                                  ...      1
Contraction scheme used                     ... SEGMENTED contraction
Coulomb Range Separation                    ... NOT USED
Exchange Range Separation                   ... Long Range
   Mu parameter                             ...  0.250000
   Scaling (regular/separated)              ...  0.195728  0.804272
Finite Nucleus Model                        ... NOT USED
Auxiliary Coulomb fitting basis             ... AVAILABLE
   # of basis functions in Aux-J            ...    475
   # of shells in Aux-J                     ...    165
   Maximum angular momentum in Aux-J        ...      4
Auxiliary J/K fitting basis                 ... NOT available
Auxiliary Correlation fitting basis         ... NOT available
Auxiliary 'external' fitting basis          ... NOT available
Integral threshold                          ...     2.500000e-11
Primitive cut-off                           ...     2.500000e-12
Primitive pair pre-selection threshold      ...     2.500000e-12

Calculating pre-screening integrals         ... done (  0.0 sec) Dimension = 78
Organizing shell pair data                  ... done (  0.0 sec)
Shell pair information
Total number of shell pairs                 ...      3081
Shell pairs after pre-screening             ...      2868
Total number of primitive shell pairs       ...     10567
Primitive shell pairs kept                  ...      7412
          la=0 lb=0:    981 shell pairs
          la=1 lb=0:   1087 shell pairs
          la=1 lb=1:    318 shell pairs
          la=2 lb=0:    293 shell pairs
          la=2 lb=1:    164 shell pairs
          la=2 lb=2:     25 shell pairs

Calculating one electron integrals          ... done (  0.0 sec)
Calculating RI/J V-Matrix + Cholesky decomp.... done (  0.0 sec)
Calculating Nuclear repulsion               ... done (  0.0 sec) ENN=    313.521549006948 Eh

SHARK setup successfully completed in   0.2 seconds

Maximum memory used throughout the entire GTOINT-calculation: 8.9 MB


           ************************************************************
           *        Program running with 18 parallel MPI-processes    *
           *              working on a common directory               *
           ************************************************************
-------------------------------------------------------------------------------
                                 ORCA SCF
-------------------------------------------------------------------------------

------------
SCF SETTINGS
------------
Hamiltonian:
 Density Functional     Method          .... DFT(GTOs)
 Exchange Functional    Exchange        .... WB97X-D3
 Correlation Functional Correlation     .... WB97X-D3
 Gradients option       PostSCFGGA      .... off
 Hybrid DFT is turned on
   Fraction HF Exchange ScalHFX         ....  0.195728
   Scaling of DF-GGA-X  ScalDFX         ....  0.000000
   Scaling of DF-GGA-C  ScalDFC         ....  1.000000
   Scaling of DF-LDA-C  ScalLDAC        ....  1.000000
   Perturbative correction              ....  0.000000
   Density functional embedding theory  .... OFF
 Long-range corrected/Screened/Range-Separated Hybrid DFT is turned on
   Amount of maximum screened exact exchange              ....  0.804272
   Range separation parameter mu (erf(mu*r12)/r12)        ....  0.250000
 RI-approximation to the Coulomb term is turned on
   Number of AuxJ basis functions       .... 475
   RIJ-COSX (HFX calculated with COS-X)).... on


General Settings:
 Integral files         IntName         .... C1_pos
 Hartree-Fock type      HFTyp           .... RHF
 Total Charge           Charge          ....    0
 Multiplicity           Mult            ....    1
 Number of Electrons    NEL             ....   56
 Basis Dimension        Dim             ....  158
 Nuclear Repulsion      ENuc            ....    313.5215490069 Eh

Convergence Acceleration:
 DIIS                   CNVDIIS         .... on
   Start iteration      DIISMaxIt       ....    12
   Startup error        DIISStart       ....  0.200000
   # of expansion vecs  DIISMaxEq       ....     5
   Bias factor          DIISBfac        ....   1.050
   Max. coefficient     DIISMaxC        ....  10.000
 Trust-Rad. Augm. Hess. CNVTRAH         .... auto
   Auto Start mean grad. ratio tolernc. ....  1.125000
   Auto Start start iteration           ....    20
   Auto Start num. interpolation iter.  ....    10
   Max. Number of Micro iterations      ....    16
   Max. Number of Macro iterations      .... Maxiter - #DIIS iter
   Number of Davidson start vectors     ....     2
   Converg. threshold I  (grad. norm)   ....   1.000e-05
   Converg. threshold II (energy diff.) ....   1.000e-08
   Grad. Scal. Fac. for Micro threshold ....   0.100
   Minimum threshold for Micro iter.    ....   0.010
   NR start threshold (gradient norm)   ....   0.001
   Initial trust radius                 ....   0.400
   Minimum AH scaling param. (alpha)    ....   1.000
   Maximum AH scaling param. (alpha)    .... 1000.000
   Orbital update algorithm             .... Taylor
   White noise on init. David. guess    .... on
   Maximum white noise                  ....   0.010
   Quad. conv. algorithm                .... NR
 SOSCF                  CNVSOSCF        .... on
   Start iteration      SOSCFMaxIt      ....   150
   Startup grad/error   SOSCFStart      ....  0.003300
 Level Shifting         CNVShift        .... on
   Level shift para.    LevelShift      ....    0.2500
   Turn off err/grad.   ShiftErr        ....    0.0010
 Zerner damping         CNVZerner       .... off
 Static damping         CNVDamp         .... on
   Fraction old density DampFac         ....    0.7000
   Max. Damping (<1)    DampMax         ....    0.9800
   Min. Damping (>=0)   DampMin         ....    0.0000
   Turn off err/grad.   DampErr         ....    0.1000
 Fernandez-Rico         CNVRico         .... off

SCF Procedure:
 Maximum # iterations   MaxIter         ....   150
 SCF integral mode      SCFMode         .... Direct
   Integral package                     .... SHARK and LIBINT hybrid scheme
 Reset frequency        DirectResetFreq ....    20
 Integral Threshold     Thresh          ....  2.500e-11 Eh
 Primitive CutOff       TCut            ....  2.500e-12 Eh

Convergence Tolerance:
 Convergence Check Mode ConvCheckMode   .... Total+1el-Energy
 Convergence forced     ConvForced      .... 0
 Energy Change          TolE            ....  1.000e-08 Eh
 1-El. energy change                    ....  1.000e-05 Eh
 Orbital Gradient       TolG            ....  1.000e-05
 Orbital Rotation angle TolX            ....  1.000e-05
 DIIS Error             TolErr          ....  5.000e-07


Diagonalization of the overlap matrix:
Smallest eigenvalue                        ... 8.855e-04
Time for diagonalization                   ...    0.004 sec
Threshold for overlap eigenvalues          ... 1.000e-08
Number of eigenvalues below threshold      ... 0
Time for construction of square roots      ...    0.011 sec
Total time needed                          ...    0.016 sec

Time for model grid setup =    0.076 sec

------------------------------
INITIAL GUESS: MODEL POTENTIAL
------------------------------
Loading Hartree-Fock densities                     ... done
Calculating cut-offs                               ... done
Initializing the effective Hamiltonian             ... done
Setting up the integral package (SHARK)            ... done
Starting the Coulomb interaction                   ... done (   0.0 sec)
Reading the grid                                   ... done
Mapping shells                                     ... done
Starting the XC term evaluation                    ... done (   0.0 sec)
  promolecular density results
     # of electrons  =     55.997140686
     EX              =    -42.300506124
     EC              =     -1.841485256
     EX+EC           =    -44.141991379
Transforming the Hamiltonian                       ... done (   0.0 sec)
Diagonalizing the Hamiltonian                      ... done (   0.0 sec)
Back transforming the eigenvectors                 ... done (   0.0 sec)
Now organizing SCF variables                       ... done
                      ------------------
                      INITIAL GUESS DONE (   0.1 sec)
                      ------------------
-------------------
DFT GRID GENERATION
-------------------

General Integration Accuracy     IntAcc      ... 4.388
Radial Grid Type                 RadialGrid  ... OptM3 with GC (2021)
Angular Grid (max. ang.)         AngularGrid ... 4 (Lebedev-302)
Angular grid pruning method      GridPruning ... 4 (adaptive)
Weight generation scheme         WeightScheme... Becke
Basis function cutoff            BFCut       ... 1.0000e-11
Integration weight cutoff        WCut        ... 1.0000e-14
Angular grids for H and He will be reduced by one unit
Partially contracted basis set               ... off
Rotationally invariant grid construction     ... off

Total number of grid points                  ...    80690
Total number of batches                      ...     1269
Average number of points per batch           ...       63
Average number of grid points per atom       ...     4247
Time for grid setup =    0.390 sec

--------------------
COSX GRID GENERATION
--------------------

GRIDX 1
-------
General Integration Accuracy     IntAcc      ... 3.816
Radial Grid Type                 RadialGrid  ... OptM3 with GC (2021)
Angular Grid (max. ang.)         AngularGrid ... 1 (Lebedev-50)
Angular grid pruning method      GridPruning ... 4 (adaptive)
Weight generation scheme         WeightScheme... Becke
Basis function cutoff            BFCut       ... 1.0000e-11
Integration weight cutoff        WCut        ... 1.0000e-14
Angular grids for H and He will be reduced by one unit
Partially contracted basis set               ... on
Rotationally invariant grid construction     ... off

Total number of grid points                  ...    10358
Total number of batches                      ...      175
Average number of points per batch           ...       59
Average number of grid points per atom       ...      545
UseSFitting                                  ... on

GRIDX 2
-------
General Integration Accuracy     IntAcc      ... 4.020
Radial Grid Type                 RadialGrid  ... OptM3 with GC (2021)
Angular Grid (max. ang.)         AngularGrid ... 2 (Lebedev-110)
Angular grid pruning method      GridPruning ... 4 (adaptive)
Weight generation scheme         WeightScheme... Becke
Basis function cutoff            BFCut       ... 1.0000e-11
Integration weight cutoff        WCut        ... 1.0000e-14
Angular grids for H and He will be reduced by one unit
Partially contracted basis set               ... on
Rotationally invariant grid construction     ... off

Total number of grid points                  ...    21654
Total number of batches                      ...      351
Average number of points per batch           ...       61
Average number of grid points per atom       ...     1140
UseSFitting                                  ... on

GRIDX 3
-------
General Integration Accuracy     IntAcc      ... 4.338
Radial Grid Type                 RadialGrid  ... OptM3 with GC (2021)
Angular Grid (max. ang.)         AngularGrid ... 3 (Lebedev-194)
Angular grid pruning method      GridPruning ... 4 (adaptive)
Weight generation scheme         WeightScheme... Becke
Basis function cutoff            BFCut       ... 1.0000e-11
Integration weight cutoff        WCut        ... 1.0000e-14
Angular grids for H and He will be reduced by one unit
Partially contracted basis set               ... on
Rotationally invariant grid construction     ... off

Total number of grid points                  ...    47325
Total number of batches                      ...      748
Average number of points per batch           ...       63
Average number of grid points per atom       ...     2491
UseSFitting                                  ... on

Time for X-Grid setup             =    0.268 sec

--------------
SCF ITERATIONS
--------------
ITER       Energy         Delta-E        Max-DP      RMS-DP      [F,P]     Damp
               ***  Starting incremental Fock matrix formation  ***
  0   -306.6079688994   0.000000000000 0.07579692  0.00240637  0.2078055 0.7000
  1   -306.7337587629  -0.125789863439 0.05097201  0.00174842  0.1191465 0.7000
                               ***Turning on DIIS***
  2   -306.7979911213  -0.064232358435 0.08767779  0.00333825  0.0583744 0.0000
  3   -306.8984704275  -0.100479306225 0.03778542  0.00115921  0.0476326 0.0000
  4   -306.9149379553  -0.016467527787 0.00579151  0.00022503  0.0063116 0.0000
                      *** Initiating the SOSCF procedure ***
                           *** Shutting down DIIS ***
                      *** Re-Reading the Fockian *** 
                      *** Removing any level shift *** 
ITER      Energy       Delta-E        Grad      Rot      Max-DP    RMS-DP
  5   -306.91532909  -0.0003911357  0.000754  0.000754  0.002075  0.000081
               *** Restarting incremental Fock matrix formation ***
  6   -306.91527056   0.0000585335  0.000374  0.000900  0.001818  0.000056
  7   -306.91527561  -0.0000050494  0.000177  0.000604  0.000573  0.000029
  8   -306.91527670  -0.0000010958  0.000047  0.000064  0.000183  0.000007
  9   -306.91527677  -0.0000000636  0.000012  0.000022  0.000056  0.000002
 10   -306.91527677  -0.0000000062  0.000006  0.000010  0.000018  0.000001
                  ***Gradient check signals convergence***
              ***Rediagonalizing the Fockian in SOSCF/NRSCF***

               *****************************************************
               *                     SUCCESS                       *
               *           SCF CONVERGED AFTER  11 CYCLES          *
               *****************************************************

Old exchange energy                            =    -14.519283192 Eh
New exchange energy                            =    -14.519238179 Eh
Exchange energy change after final integration =      0.000045013 Eh
Total energy after final integration           =   -306.915231761 Eh
Final COS-X integration done in                =     1.480 sec

----------------
TOTAL SCF ENERGY
----------------

Total Energy       :         -306.91523176 Eh           -8351.58804 eV

Components:
Nuclear Repulsion  :          313.52154901 Eh            8531.35507 eV
Electronic Energy  :         -620.43678077 Eh          -16882.94312 eV
One Electron Energy:        -1034.93426838 Eh          -28161.99317 eV
Two Electron Energy:          414.49748762 Eh           11279.05005 eV
Max COSX asymmetry :            0.00000366 Eh               0.00010 eV

Virial components:
Potential Energy   :         -610.93946007 Eh          -16624.50788 eV
Kinetic Energy     :          304.02422830 Eh            8272.91984 eV
Virial Ratio       :            2.00950912


DFT components:
N(Alpha)           :       28.000038894168 electrons
N(Beta)            :       28.000038894168 electrons
N(Total)           :       56.000077788335 electrons
E(XC)              :      -31.020687412639 Eh       
DFET-embed. en.    :        0.000000000000 Eh       

---------------
SCF CONVERGENCE
---------------

  Last Energy change         ...   -1.7106e-09  Tolerance :   1.0000e-08
  Last MAX-Density change    ...    3.1086e-15  Tolerance :   1.0000e-07
  Last RMS-Density change    ...    3.9638e-17  Tolerance :   5.0000e-09
  Last Orbital Gradient      ...    1.4697e-06  Tolerance :   1.0000e-05
  Last Orbital Rotation      ...    4.8269e-06  Tolerance :   1.0000e-05

             **** THE GBW FILE WAS UPDATED (C1_pos.gbw) ****
             **** DENSITY C1_pos.scfp WAS UPDATED ****
             **** ENERGY FILE WAS UPDATED (C1_pos.en.tmp) ****
             **** THE GBW FILE WAS UPDATED (C1_pos.gbw) ****
             **** DENSITY C1_pos.scfp WAS UPDATED ****
----------------
ORBITAL ENERGIES
----------------

  NO   OCC          E(Eh)            E(eV) 
   0   2.0000     -14.429172      -392.6377 
   1   2.0000     -14.424355      -392.5067 
   2   2.0000     -10.322566      -280.8913 
   3   2.0000     -10.264625      -279.3146 
   4   2.0000     -10.259938      -279.1871 
   5   2.0000     -10.257088      -279.1096 
   6   2.0000     -10.201008      -277.5835 
   7   2.0000      -1.059768       -28.8378 
   8   2.0000      -0.969202       -26.3733 
   9   2.0000      -0.892838       -24.2954 
  10   2.0000      -0.826632       -22.4938 
  11   2.0000      -0.761271       -20.7152 
  12   2.0000      -0.690333       -18.7849 
  13   2.0000      -0.669333       -18.2135 
  14   2.0000      -0.629352       -17.1255 
  15   2.0000      -0.609613       -16.5884 
  16   2.0000      -0.559077       -15.2133 
  17   2.0000      -0.539103       -14.6697 
  18   2.0000      -0.532100       -14.4792 
  19   2.0000      -0.506774       -13.7900 
  20   2.0000      -0.480111       -13.0645 
  21   2.0000      -0.467374       -12.7179 
  22   2.0000      -0.453638       -12.3441 
  23   2.0000      -0.416893       -11.3442 
  24   2.0000      -0.406118       -11.0510 
  25   2.0000      -0.400640       -10.9020 
  26   2.0000      -0.351035        -9.5522 
  27   2.0000      -0.240387        -6.5413 
  28   0.0000       0.136987         3.7276 
  29   0.0000       0.161635         4.3983 
  30   0.0000       0.170698         4.6449 
  31   0.0000       0.175370         4.7720 
  32   0.0000       0.192506         5.2384 
  33   0.0000       0.202044         5.4979 
  34   0.0000       0.207174         5.6375 
  35   0.0000       0.232745         6.3333 
  36   0.0000       0.242164         6.5896 
  37   0.0000       0.259181         7.0527 
  38   0.0000       0.265037         7.2120 
  39   0.0000       0.273959         7.4548 
  40   0.0000       0.296484         8.0677 
  41   0.0000       0.339546         9.2395 
  42   0.0000       0.369124        10.0444 
  43   0.0000       0.373643        10.1673 
  44   0.0000       0.405116        11.0238 
  45   0.0000       0.459745        12.5103 
  46   0.0000       0.489863        13.3299 
  47   0.0000       0.519979        14.1494 
  48   0.0000       0.531673        14.4676 
  49   0.0000       0.548007        14.9120 
  50   0.0000       0.553936        15.0734 
  51   0.0000       0.584992        15.9184 
  52   0.0000       0.600674        16.3452 
  53   0.0000       0.625580        17.0229 
  54   0.0000       0.647636        17.6231 
  55   0.0000       0.659803        17.9542 
  56   0.0000       0.685773        18.6608 
  57   0.0000       0.715227        19.4623 
  58   0.0000       0.750261        20.4156 
  59   0.0000       0.760944        20.7063 
  60   0.0000       0.767741        20.8913 
  61   0.0000       0.776491        21.1294 
  62   0.0000       0.781822        21.2745 
  63   0.0000       0.796398        21.6711 
  64   0.0000       0.806247        21.9391 
  65   0.0000       0.813259        22.1299 
  66   0.0000       0.815320        22.1860 
  67   0.0000       0.824452        22.4345 
  68   0.0000       0.829554        22.5733 
  69   0.0000       0.843593        22.9553 
  70   0.0000       0.864656        23.5285 
  71   0.0000       0.874225        23.7889 
  72   0.0000       0.892826        24.2950 
  73   0.0000       0.907741        24.7009 
  74   0.0000       0.921363        25.0716 
  75   0.0000       0.931821        25.3561 
  76   0.0000       0.948761        25.8171 
  77   0.0000       0.979564        26.6553 
  78   0.0000       1.022747        27.8304 
  79   0.0000       1.041833        28.3497 
  80   0.0000       1.104859        30.0647 
  81   0.0000       1.131532        30.7905 
  82   0.0000       1.163757        31.6674 
  83   0.0000       1.214236        33.0410 
  84   0.0000       1.235738        33.6262 
  85   0.0000       1.252479        34.0817 
  86   0.0000       1.301406        35.4130 
  87   0.0000       1.356808        36.9206 
  88   0.0000       1.376434        37.4547 
  89   0.0000       1.427542        38.8454 
  90   0.0000       1.448683        39.4207 
  91   0.0000       1.485320        40.4176 
  92   0.0000       1.497137        40.7392 
  93   0.0000       1.577821        42.9347 
  94   0.0000       1.645224        44.7688 
  95   0.0000       1.658926        45.1417 
  96   0.0000       1.714336        46.6494 
  97   0.0000       1.721590        46.8469 
  98   0.0000       1.732099        47.1328 
  99   0.0000       1.744215        47.4625 
 100   0.0000       1.798060        48.9277 
 101   0.0000       1.851244        50.3749 
 102   0.0000       1.859541        50.6007 
 103   0.0000       1.881077        51.1867 
 104   0.0000       1.911226        52.0071 
 105   0.0000       1.913948        52.0812 
 106   0.0000       1.928675        52.4819 
 107   0.0000       1.947411        52.9918 
 108   0.0000       1.949292        53.0429 
 109   0.0000       1.959949        53.3329 
 110   0.0000       1.980039        53.8796 
 111   0.0000       2.000254        54.4297 
 112   0.0000       2.010130        54.6984 
 113   0.0000       2.021088        54.9966 
 114   0.0000       2.033448        55.3329 
 115   0.0000       2.057641        55.9913 
 116   0.0000       2.083112        56.6844 
 117   0.0000       2.117680        57.6250 
 118   0.0000       2.129508        57.9469 
 119   0.0000       2.136916        58.1484 
 120   0.0000       2.165349        58.9222 
 121   0.0000       2.202833        59.9421 
 122   0.0000       2.265530        61.6482 
 123   0.0000       2.282582        62.1122 
 124   0.0000       2.326718        63.3132 
 125   0.0000       2.355129        64.0863 
 126   0.0000       2.366954        64.4081 
 127   0.0000       2.406565        65.4860 
 128   0.0000       2.430934        66.1491 
 129   0.0000       2.455839        66.8268 
 130   0.0000       2.478059        67.4314 
 131   0.0000       2.542539        69.1860 
 132   0.0000       2.554807        69.5198 
 133   0.0000       2.565744        69.8174 
 134   0.0000       2.634250        71.6816 
 135   0.0000       2.688752        73.1647 
 136   0.0000       2.710433        73.7546 
 137   0.0000       2.742201        74.6191 
 138   0.0000       2.761144        75.1345 
 139   0.0000       2.796697        76.1020 
 140   0.0000       2.851202        77.5851 
 141   0.0000       2.882231        78.4295 
 142   0.0000       2.967700        80.7552 
 143   0.0000       2.973454        80.9118 
 144   0.0000       2.995866        81.5217 
 145   0.0000       3.040700        82.7417 
 146   0.0000       3.064619        83.3925 
 147   0.0000       3.089015        84.0564 
 148   0.0000       3.127268        85.0973 
 149   0.0000       3.140735        85.4638 
 150   0.0000       3.174655        86.3867 
 151   0.0000       3.195724        86.9601 
 152   0.0000       3.227912        87.8360 
 153   0.0000       3.295547        89.6764 
 154   0.0000       3.349541        91.1456 
 155   0.0000       3.389888        92.2436 
 156   0.0000       3.692969       100.4908 
 157   0.0000       3.766380       102.4884 

                    ********************************
                    * MULLIKEN POPULATION ANALYSIS *
                    ********************************

-----------------------
MULLIKEN ATOMIC CHARGES
-----------------------
   0 C :    0.043376
   1 C :   -0.086136
   2 C :   -0.155771
   3 C :    0.000570
   4 H :   -0.005542
   5 H :    0.012838
   6 C :   -0.058694
   7 N :   -0.093763
   8 N :   -0.134663
   9 H :    0.129676
  10 H :    0.114463
  11 H :   -0.093272
  12 H :    0.130077
  13 H :    0.116122
  14 H :    0.017588
  15 H :    0.006319
  16 H :    0.015956
  17 H :    0.017812
  18 H :    0.023044
Sum of atomic charges:   -0.0000000

--------------------------------
MULLIKEN REDUCED ORBITAL CHARGES
--------------------------------
  0 C s       :     2.959953  s :     2.959953
      pz      :     0.973448  p :     2.955648
      px      :     0.974332
      py      :     1.007868
      dz2     :     0.009435  d :     0.041024
      dxz     :     0.006475
      dyz     :     0.005544
      dx2y2   :     0.009001
      dxy     :     0.010568
  1 C s       :     3.041486  s :     3.041486
      pz      :     1.020378  p :     3.007182
      px      :     0.982888
      py      :     1.003915
      dz2     :     0.009633  d :     0.037468
      dxz     :     0.007334
      dyz     :     0.003545
      dx2y2   :     0.007586
      dxy     :     0.009370
  2 C s       :     3.091708  s :     3.091708
      pz      :     1.075941  p :     3.029822
      px      :     1.053477
      py      :     0.900404
      dz2     :     0.004449  d :     0.034241
      dxz     :     0.006180
      dyz     :     0.008497
      dx2y2   :     0.008776
      dxy     :     0.006339
  3 C s       :     2.964058  s :     2.964058
      pz      :     1.005642  p :     3.006309
      px      :     0.990809
      py      :     1.009858
      dz2     :     0.007080  d :     0.029063
      dxz     :     0.006789
      dyz     :     0.002775
      dx2y2   :     0.007174
      dxy     :     0.005245
  4 H s       :     0.982888  s :     0.982888
      pz      :     0.013268  p :     0.022654
      px      :     0.004654
      py      :     0.004731
  5 H s       :     0.964735  s :     0.964735
      pz      :     0.005628  p :     0.022427
      px      :     0.006220
      py      :     0.010578
  6 C s       :     2.984606  s :     2.984606
      pz      :     1.015559  p :     2.979654
      px      :     1.016452
      py      :     0.947642
      dz2     :     0.019664  d :     0.094434
      dxz     :     0.010522
      dyz     :     0.023567
      dx2y2   :     0.020466
      dxy     :     0.020215
  7 N s       :     3.253713  s :     3.253713
      pz      :     1.455461  p :     3.823590
      px      :     1.200692
      py      :     1.167436
      dz2     :     0.002020  d :     0.016459
      dxz     :     0.001742
      dyz     :     0.003466
      dx2y2   :     0.005593
      dxy     :     0.003638
  8 N s       :     3.277165  s :     3.277165
      pz      :     1.240521  p :     3.841613
      px      :     1.501706
      py      :     1.099385
      dz2     :     0.003696  d :     0.015885
      dxz     :     0.002644
      dyz     :     0.003965
      dx2y2   :     0.001550
      dxy     :     0.004031
  9 H s       :     0.824169  s :     0.824169
      pz      :     0.009299  p :     0.046155
      px      :     0.014589
      py      :     0.022266
 10 H s       :     0.839909  s :     0.839909
      pz      :     0.018962  p :     0.045628
      px      :     0.016576
      py      :     0.010089
 11 H s       :     1.063660  s :     1.063660
      pz      :     0.012219  p :     0.029612
      px      :     0.006763
      py      :     0.010630
 12 H s       :     0.823844  s :     0.823844
      pz      :     0.019216  p :     0.046079
      px      :     0.013167
      py      :     0.013696
 13 H s       :     0.838300  s :     0.838300
      pz      :     0.014362  p :     0.045579
      px      :     0.022307
      py      :     0.008910
 14 H s       :     0.960018  s :     0.960018
      pz      :     0.012691  p :     0.022394
      px      :     0.004498
      py      :     0.005205
 15 H s       :     0.971282  s :     0.971282
      pz      :     0.004603  p :     0.022399
      px      :     0.005747
      py      :     0.012050
 16 H s       :     0.959309  s :     0.959309
      pz      :     0.013566  p :     0.024735
      px      :     0.005389
      py      :     0.005780
 17 H s       :     0.957192  s :     0.957192
      pz      :     0.005206  p :     0.024996
      px      :     0.006668
      py      :     0.013123
 18 H s       :     0.952287  s :     0.952287
      pz      :     0.008157  p :     0.024669
      px      :     0.011437
      py      :     0.005075


                     *******************************
                     * LOEWDIN POPULATION ANALYSIS *
                     *******************************

----------------------
LOEWDIN ATOMIC CHARGES
----------------------
   0 C :   -0.043473
   1 C :   -0.036215
   2 C :   -0.228154
   3 C :   -0.054779
   4 H :    0.008142
   5 H :    0.014566
   6 C :    0.035264
   7 N :   -0.033845
   8 N :   -0.040972
   9 H :    0.079568
  10 H :    0.065672
  11 H :   -0.011327
  12 H :    0.084324
  13 H :    0.066933
  14 H :    0.019751
  15 H :    0.015869
  16 H :    0.019092
  17 H :    0.018627
  18 H :    0.020958

-------------------------------
LOEWDIN REDUCED ORBITAL CHARGES
-------------------------------
  0 C s       :     2.812830  s :     2.812830
      pz      :     1.039889  p :     3.127628
      px      :     1.031804
      py      :     1.055935
      dz2     :     0.024867  d :     0.103015
      dxz     :     0.016637
      dyz     :     0.012996
      dx2y2   :     0.022112
      dxy     :     0.026403
  1 C s       :     2.831051  s :     2.831051
      pz      :     1.049324  p :     3.114687
      px      :     1.018766
      py      :     1.046598
      dz2     :     0.022711  d :     0.090477
      dxz     :     0.018664
      dyz     :     0.008622
      dx2y2   :     0.017559
      dxy     :     0.022921
  2 C s       :     2.812781  s :     2.812781
      pz      :     1.137829  p :     3.319254
      px      :     1.114402
      py      :     1.067023
      dz2     :     0.012040  d :     0.096119
      dxz     :     0.018185
      dyz     :     0.022871
      dx2y2   :     0.021862
      dxy     :     0.021163
  3 C s       :     2.816118  s :     2.816118
      pz      :     1.061624  p :     3.164058
      px      :     1.043936
      py      :     1.058497
      dz2     :     0.018134  d :     0.074603
      dxz     :     0.017405
      dyz     :     0.007203
      dx2y2   :     0.016880
      dxy     :     0.014981
  4 H s       :     0.926003  s :     0.926003
      pz      :     0.037350  p :     0.065855
      px      :     0.014925
      py      :     0.013581
  5 H s       :     0.919111  s :     0.919111
      pz      :     0.016027  p :     0.066323
      px      :     0.019772
      py      :     0.030524
  6 C s       :     2.793986  s :     2.793986
      pz      :     0.981207  p :     2.951292
      px      :     1.013638
      py      :     0.956447
      dz2     :     0.043667  d :     0.219459
      dxz     :     0.025736
      dyz     :     0.054829
      dx2y2   :     0.047612
      dxy     :     0.047614
  7 N s       :     3.008605  s :     3.008605
      pz      :     1.469375  p :     3.980142
      px      :     1.282070
      py      :     1.228697
      dz2     :     0.005084  d :     0.045098
      dxz     :     0.004447
      dyz     :     0.009285
      dx2y2   :     0.015210
      dxy     :     0.011072
  8 N s       :     3.021854  s :     3.021854
      pz      :     1.281624  p :     3.976292
      px      :     1.495264
      py      :     1.199404
      dz2     :     0.009660  d :     0.042826
      dxz     :     0.006982
      dyz     :     0.011564
      dx2y2   :     0.004781
      dxy     :     0.009838
  9 H s       :     0.794973  s :     0.794973
      pz      :     0.023240  p :     0.125459
      px      :     0.043504
      py      :     0.058715
 10 H s       :     0.808874  s :     0.808874
      pz      :     0.053542  p :     0.125454
      px      :     0.046164
      py      :     0.025748
 11 H s       :     0.919595  s :     0.919595
      pz      :     0.035472  p :     0.091732
      px      :     0.022885
      py      :     0.033375
 12 H s       :     0.791459  s :     0.791459
      pz      :     0.056226  p :     0.124217
      px      :     0.034114
      py      :     0.033877
 13 H s       :     0.806695  s :     0.806695
      pz      :     0.040353  p :     0.126372
      px      :     0.063034
      py      :     0.022985
 14 H s       :     0.914161  s :     0.914161
      pz      :     0.036498  p :     0.066088
      px      :     0.014531
      py      :     0.015059
 15 H s       :     0.917903  s :     0.917903
      pz      :     0.013727  p :     0.066228
      px      :     0.018244
      py      :     0.034257
 16 H s       :     0.911654  s :     0.911654
      pz      :     0.037517  p :     0.069254
      px      :     0.015262
      py      :     0.016475
 17 H s       :     0.911172  s :     0.911172
      pz      :     0.013941  p :     0.070201
      px      :     0.019084
      py      :     0.037175
 18 H s       :     0.909719  s :     0.909719
      pz      :     0.022230  p :     0.069323
      px      :     0.032431
      py      :     0.014662


                      *****************************
                      * MAYER POPULATION ANALYSIS *
                      *****************************

  NA   - Mulliken gross atomic population
  ZA   - Total nuclear charge
  QA   - Mulliken gross atomic charge
  VA   - Mayer's total valence
  BVA  - Mayer's bonded valence
  FA   - Mayer's free valence

  ATOM       NA         ZA         QA         VA         BVA        FA
  0 C      5.9566     6.0000     0.0434     3.9604     3.9604    -0.0000
  1 C      6.0861     6.0000    -0.0861     4.1483     4.1483    -0.0000
  2 C      6.1558     6.0000    -0.1558     3.7096     3.7096     0.0000
  3 C      5.9994     6.0000     0.0006     3.9963     3.9963    -0.0000
  4 H      1.0055     1.0000    -0.0055     0.9799     0.9799     0.0000
  5 H      0.9872     1.0000     0.0128     0.9673     0.9673     0.0000
  6 C      6.0587     6.0000    -0.0587     4.4431     4.4431    -0.0000
  7 N      7.0938     7.0000    -0.0938     3.1416     3.1416     0.0000
  8 N      7.1347     7.0000    -0.1347     3.1787     3.1787    -0.0000
  9 H      0.8703     1.0000     0.1297     1.0082     1.0082    -0.0000
 10 H      0.8855     1.0000     0.1145     1.0063     1.0063    -0.0000
 11 H      1.0933     1.0000    -0.0933     1.0111     1.0111    -0.0000
 12 H      0.8699     1.0000     0.1301     1.0015     1.0015    -0.0000
 13 H      0.8839     1.0000     0.1161     1.0059     1.0059    -0.0000
 14 H      0.9824     1.0000     0.0176     0.9762     0.9762     0.0000
 15 H      0.9937     1.0000     0.0063     0.9740     0.9740    -0.0000
 16 H      0.9840     1.0000     0.0160     0.9924     0.9924     0.0000
 17 H      0.9822     1.0000     0.0178     1.0000     1.0000     0.0000
 18 H      0.9770     1.0000     0.0230     0.9874     0.9874    -0.0000

  Mayer bond orders larger than 0.100000
B(  0-C ,  1-C ) :   1.0909 B(  0-C ,  2-C ) :   1.0128 B(  0-C ,  4-H ) :   0.9456 
B(  0-C ,  5-H ) :   0.9280 B(  1-C ,  3-C ) :   1.0861 B(  1-C , 14-H ) :   0.9529 
B(  1-C , 15-H ) :   0.9548 B(  2-C ,  6-C ) :   1.6980 B(  2-C , 11-H ) :   0.9478 
B(  3-C , 16-H ) :   0.9726 B(  3-C , 17-H ) :   0.9732 B(  3-C , 18-H ) :   0.9744 
B(  6-C ,  7-N ) :   1.2448 B(  6-C ,  8-N ) :   1.2399 B(  7-N , 12-H ) :   0.9333 
B(  7-N , 13-H ) :   0.9471 B(  8-N ,  9-H ) :   0.9405 B(  8-N , 10-H ) :   0.9484 


-------
TIMINGS
-------

Total SCF time: 0 days 0 hours 0 min 11 sec 

Total time                  ....      11.108 sec
Sum of individual times     ....      10.919 sec  ( 98.3%)

Fock matrix formation       ....       9.999 sec  ( 90.0%)
  Split-RI-J                ....       0.698 sec  (  7.0% of F)
  Chain of spheres X        ....       8.202 sec  ( 82.0% of F)
  XC integration            ....       1.050 sec  ( 10.5% of F)
    Basis function eval.    ....       0.239 sec  ( 22.8% of XC)
    Density eval.           ....       0.123 sec  ( 11.7% of XC)
    XC-Functional eval.     ....       0.087 sec  (  8.3% of XC)
    XC-Potential eval.      ....       0.112 sec  ( 10.6% of XC)
Diagonalization             ....       0.046 sec  (  0.4%)
Density matrix formation    ....       0.006 sec  (  0.1%)
Population analysis         ....       0.008 sec  (  0.1%)
Initial guess               ....       0.057 sec  (  0.5%)
Orbital Transformation      ....       0.000 sec  (  0.0%)
Orbital Orthonormalization  ....       0.000 sec  (  0.0%)
DIIS solution               ....       0.033 sec  (  0.3%)
SOSCF solution              ....       0.036 sec  (  0.3%)
Grid generation             ....       0.735 sec  (  6.6%)

Maximum memory used throughout the entire SCF-calculation: 52.3 MB


-------------------------------------------------------------------------------
                          DFT DISPERSION CORRECTION                            
                                                                               
                              DFTD3 V3.1  Rev 1                                
                              USING zero damping                               
-------------------------------------------------------------------------------
The omegaB97X-D3 functional is recognized. Fit by Chai et al.
Active option DFTDOPT                   ...         3   

molecular C6(AA) [au] = 2675.885843 


            DFT-D V3
 parameters
 s6 scaling factor         :     1.0000 
 rs6 scaling factor        :     1.2810 
 s8 scaling factor         :     1.0000 
 rs8 scaling factor        :     1.0940 
 Damping factor alpha6     :    14.0000 
 Damping factor alpha8     :    16.0000 
 ad hoc parameters k1-k3   :    16.0000     1.3333    -4.0000 

 Edisp/kcal,au: -3.081013704021  -0.004909907344 
 E6   /kcal   :  -1.307396321 
 E8   /kcal   :  -1.773617383 
 % E8         :  57.566033577 

-------------------------   ----------------
Dispersion correction           -0.004909907
-------------------------   ----------------


-------------------------   --------------------
FINAL SINGLE POINT ENERGY      -306.920141668835
-------------------------   --------------------


                            ***************************************
                            *     ORCA property calculations      *
                            ***************************************

                                    ---------------------
                                    Active property flags
                                    ---------------------
   (+) Dipole Moment


------------------------------------------------------------------------------
                       ORCA ELECTRIC PROPERTIES CALCULATION
------------------------------------------------------------------------------

Dipole Moment Calculation                       ... on
Quadrupole Moment Calculation                   ... off
Polarizability Calculation                      ... off
GBWName                                         ... C1_pos.gbw
Electron density file                           ... C1_pos.scfp
The origin for moment calculation is the CENTER OF MASS  = ( 4.097811, -1.123575 -10.494942)

-------------
DIPOLE MOMENT
-------------
                                X             Y             Z
Electronic contribution:      6.51427       1.50213      -1.76020
Nuclear contribution   :     -5.84539      -1.11717       1.11949
                        -----------------------------------------
Total Dipole Moment    :      0.66887       0.38496      -0.64071
                        -----------------------------------------
Magnitude (a.u.)       :      1.00304
Magnitude (Debye)      :      2.54953



--------------------
Rotational spectrum 
--------------------
 
Rotational constants in cm-1:     0.177055     0.043715     0.038831 
Rotational constants in MHz :  5307.971484  1310.555422  1164.112547 

 Dipole components along the rotational axes: 
x,y,z [a.u.] :    -0.916374    -0.067536     0.402228 
x,y,z [Debye]:    -2.329238    -0.171664     1.022383 

 

Timings for individual modules:

Sum of individual times         ...       12.151 sec (=   0.203 min)
GTO integral calculation        ...        0.636 sec (=   0.011 min)   5.2 %
SCF iterations                  ...       11.516 sec (=   0.192 min)  94.8 %
                             ****ORCA TERMINATED NORMALLY****
TOTAL RUN TIME: 0 days 0 hours 0 minutes 12 seconds 688 msec
