
                                        *****************
                                        * O   R   C   A *
                                        *****************

                                            #,                                       
                                            ###                                      
                                            ####                                     
                                            #####                                    
                                            ######                                   
                                           ########,                                 
                                     ,,################,,,,,                         
                               ,,#################################,,                 
                          ,,##########################################,,             
                       ,#########################################, ''#####,          
                    ,#############################################,,   '####,        
                  ,##################################################,,,,####,       
                ,###########''''           ''''###############################       
              ,#####''   ,,,,##########,,,,          '''####'''          '####       
            ,##' ,,,,###########################,,,                        '##       
           ' ,,###''''                  '''############,,,                           
         ,,##''                                '''############,,,,        ,,,,,,###''
      ,#''                                            '''#######################'''  
     '                                                          ''''####''''         
             ,#######,   #######,   ,#######,      ##                                
            ,#'     '#,  ##    ##  ,#'     '#,    #''#        ######   ,####,        
            ##       ##  ##   ,#'  ##            #'  '#       #        #'  '#        
            ##       ##  #######   ##           ,######,      #####,   #    #        
            '#,     ,#'  ##    ##  '#,     ,#' ,#      #,         ##   #,  ,#        
             '#######'   ##     ##  '#######'  #'      '#     #####' # '####'        



                  #######################################################
                  #                        -***-                        #
                  #          Department of theory and spectroscopy      #
                  #    Directorship and core code : Frank Neese         #
                  #        Max Planck Institute fuer Kohlenforschung    #
                  #                Kaiser Wilhelm Platz 1               #
                  #                 D-45470 Muelheim/Ruhr               #
                  #                      Germany                        #
                  #                                                     #
                  #                  All rights reserved                #
                  #                        -***-                        #
                  #######################################################


                         Program Version 5.0.0 -  RELEASE  -
                                (SVN: $Rev: 19529$)
                ($Date: 2021-06-28 11:36:33 +0200 (Mo, 28 Jun 2021) $)


 With contributions from (in alphabetic order):
   Daniel Aravena         : Magnetic Suceptibility
   Michael Atanasov       : Ab Initio Ligand Field Theory (pilot matlab implementation)
   Alexander A. Auer      : GIAO ZORA, VPT2 properties, NMR spectrum
   Ute Becker             : Parallelization
   Giovanni Bistoni       : ED, misc. LED, open-shell LED, HFLD
   Martin Brehm           : Molecular dynamics
   Dmytro Bykov           : SCF Hessian
   Vijay G. Chilkuri      : MRCI spin determinant printing, contributions to CSF-ICE
   Dipayan Datta          : RHF DLPNO-CCSD density
   Achintya Kumar Dutta   : EOM-CC, STEOM-CC
   Dmitry Ganyushin       : Spin-Orbit,Spin-Spin,Magnetic field MRCI
   Miquel Garcia          : C-PCM Hessian, Gaussian charge scheme
   Yang Guo               : DLPNO-NEVPT2, F12-NEVPT2, CIM, IAO-localization
   Andreas Hansen         : Spin unrestricted coupled pair/coupled cluster methods
   Benjamin Helmich-Paris : MC-RPA, TRAH-SCF, COSX integrals
   Lee Huntington         : MR-EOM, pCC
   Robert Izsak           : Overlap fitted RIJCOSX, COSX-SCS-MP3, EOM
   Marcus Kettner         : VPT2
   Christian Kollmar      : KDIIS, OOCD, Brueckner-CCSD(T), CCSD density, CASPT2, CASPT2-K
   Simone Kossmann        : Meta GGA functionals, TD-DFT gradient, OOMP2, MP2 Hessian
   Martin Krupicka        : Initial AUTO-CI
   Lucas Lang             : DCDCAS
   Marvin Lechner         : AUTO-CI (C++ implementation), FIC-MRCC
   Dagmar Lenk            : GEPOL surface, SMD
   Dimitrios Liakos       : Extrapolation schemes; Compound Job, initial MDCI parallelization
   Dimitrios Manganas     : Further ROCIS development; embedding schemes
   Dimitrios Pantazis     : SARC Basis sets
   Anastasios Papadopoulos: AUTO-CI, single reference methods and gradients
   Taras Petrenko         : DFT Hessian,TD-DFT gradient, ASA, ECA, R-Raman, ABS, FL, XAS/XES, NRVS
   Peter Pinski           : DLPNO-MP2, DLPNO-MP2 Gradient
   Christoph Reimann      : Effective Core Potentials
   Marius Retegan         : Local ZFS, SOC
   Christoph Riplinger    : Optimizer, TS searches, QM/MM, DLPNO-CCSD(T), (RO)-DLPNO pert. Triples
   Tobias Risthaus        : Range-separated hybrids, TD-DFT gradient, RPA, STAB
   Michael Roemelt        : Original ROCIS implementation
   Masaaki Saitow         : Open-shell DLPNO-CCSD energy and density
   Barbara Sandhoefer     : DKH picture change effects
   Avijit Sen             : IP-ROCIS
   Kantharuban Sivalingam : CASSCF convergence, NEVPT2, FIC-MRCI
   Bernardo de Souza      : ESD, SOC TD-DFT
   Georgi Stoychev        : AutoAux, RI-MP2 NMR
   Willem Van den Heuvel  : Paramagnetic NMR
   Boris Wezisla          : Elementary symmetry handling
   Frank Wennmohs         : Technical directorship


 We gratefully acknowledge several colleagues who have allowed us to
 interface, adapt or use parts of their codes:
   Stefan Grimme, W. Hujo, H. Kruse, P. Pracht,  : VdW corrections, initial TS optimization,
                  C. Bannwarth, S. Ehlert          DFT functionals, gCP, sTDA/sTD-DF
   Ed Valeev, F. Pavosevic, A. Kumar             : LibInt (2-el integral package), F12 methods
   Garnet Chan, S. Sharma, J. Yang, R. Olivares  : DMRG
   Ulf Ekstrom                                   : XCFun DFT Library
   Mihaly Kallay                                 : mrcc  (arbitrary order and MRCC methods)
   Jiri Pittner, Ondrej Demel                    : Mk-CCSD
   Frank Weinhold                                : gennbo (NPA and NBO analysis)
   Christopher J. Cramer and Donald G. Truhlar   : smd solvation model
   Lars Goerigk                                  : TD-DFT with DH, B97 family of functionals
   V. Asgeirsson, H. Jonsson                     : NEB implementation
   FAccTs GmbH                                   : IRC, NEB, NEB-TS, DLPNO-Multilevel, CI-OPT
                                                   MM, QMMM, 2- and 3-layer-ONIOM, Crystal-QMMM,
                                                   LR-CPCM, SF, NACMEs, symmetry and pop. for TD-DFT,
                                                   nearIR, NL-DFT gradient (VV10), updates on ESD,
                                                   ML-optimized integration grids
   S Lehtola, MJT Oliveira, MAL Marques          : LibXC Library
   Liviu Ungur et al                             : ANISO software


 Your calculation uses the libint2 library for the computation of 2-el integrals
 For citations please refer to: http://libint.valeyev.net

 Your ORCA version has been built with support for libXC version: 5.1.0
 For citations please refer to: https://tddft.org/programs/libxc/

 This ORCA versions uses:
   CBLAS   interface :  Fast vector & matrix operations
   LAPACKE interface :  Fast linear algebra routines
   SCALAPACK package :  Parallel linear algebra routines
   Shared memory     :  Shared parallel matrices
   BLAS/LAPACK       :  OpenBLAS 0.3.15  USE64BITINT DYNAMIC_ARCH NO_AFFINITY Haswell SINGLE_THREADED
        Core in use  :  Haswell
   Copyright (c) 2011-2014, The OpenBLAS Project


================================================================================

----- Orbital basis set information -----
Your calculation utilizes the basis: aug-cc-pVTZ 
    H, B-Ne : Obtained from the ccRepo (grant-hill.group.shef.ac.uk/ccrepo) Feb. 2017
              R. A. Kendall, T. H. Dunning, Jr., R. J. Harrison, J. Chem. Phys. 96, 6796 (1992)
         He : Obtained from the ccRepo (grant-hill.group.shef.ac.uk/ccrepo) Feb. 2017
              D. E. Woon, T. H. Dunning, Jr., J. Chem. Phys. 100, 2975 (1994)
  Li-Be, Na : Obtained from the ccRepo (grant-hill.group.shef.ac.uk/ccrepo) Feb. 2017
              B. P. Prascher, D. E. Woon, K. A. Peterson, T. H. Dunning, Jr., A. K. Wilson, Theor. Chem. Acc. 128, 69 (2011)
         Mg : Obtained from the Peterson Research Group Website (tyr0.chem.wsu.edu/~kipeters) Feb. 2017
              B. P. Prascher, D. E. Woon, K. A. Peterson, T. H. Dunning, Jr., A. K. Wilson, Theor. Chem. Acc. 128, 69 (2011)
      Al-Ar : Obtained from the ccRepo (grant-hill.group.shef.ac.uk/ccrepo) Feb. 2017
              D. E. Woon, T. H. Dunning, Jr., J. Chem. Phys. 98, 1358 (1993)
      Sc-Zn : Obtained from the ccRepo (grant-hill.group.shef.ac.uk/ccrepo) Feb. 2017
              N. B. Balabanov, K. A. Peterson, J. Chem. Phys. 123, 064107 (2005)
              N. B. Balabanov, K. A. Peterson, J. Chem. Phys. 125, 074110 (2006)
      Ga-Kr : Obtained from the ccRepo (grant-hill.group.shef.ac.uk/ccrepo) Feb. 2017
              A. K. Wilson, D. E. Woon, K. A. Peterson, T. H. Dunning, Jr., J. Chem. Phys. 110, 7667 (1999)
     Ag, Au : Obtained from the Peterson Research Group Website (tyr0.chem.wsu.edu/~kipeters) Feb. 2017
              K. A. Peterson, C. Puzzarini, Theor. Chem. Acc. 114, 283 (2005)

----- AuxJ basis set information -----
Your calculation utilizes the auxiliary basis: def2/J
   F. Weigend, Phys. Chem. Chem. Phys. 8, 1057 (2006).

----- AuxC basis set information -----
Your calculation utilizes the auxiliary basis: aug-cc-pVTZ/C 
  H-He, B-F, Al-Ar, Ga-Kr : Obtained from the EMSL Basis Set Exchange (bse.pnl.gov) Feb. 2017
                            F. Weigend, A. Kohn, C. Hattig, J. Chem. Phys. 116, 3175 (2002)
                   Be, Mg : Obtained from the TURBOMOLE 7.0 basis set library
                            C. Haettig, Phys. Chem. Chem. Phys. 7, 59 (2005)
                       Ne : Obtained from the EMSL Basis Set Exchange (bse.pnl.gov) Feb. 2017
                            C. Haettig, Phys. Chem. Chem. Phys. 7, 59 (2005)
                            F. Weigend, A. Kohn, C. Hattig, J. Chem. Phys. 116, 3175 (2002)
                    Sc-Zn : Obtained from the EMSL Basis Set Exchange (bse.pnl.gov) Feb. 2017
                            J. G. Hill, J. A. Platts, J. Chem. Phys. 128, 044104 (2008)

================================================================================
                                        WARNINGS
                       Please study these warnings very carefully!
================================================================================


WARNING: Post HF methods need fully converged wavefunctions
  ===> : Setting SCFConvForced true
         You can overwrite this default with %scf ConvForced false 


WARNING: MDCI localization with Augmented Hessian Foster-Boys
  ===> : Switching off randomization!

INFO   : the flag for use of the SHARK integral package has been found!

================================================================================
                                       INPUT FILE
================================================================================
NAME = C1_wt_dlpno_neg.com
|  1> !DLPNO-CCSD(T) aug-cc-pVTZ aug-cc-pVTZ/C TightSCF TightPNO RIJCOSX def2/J 
|  2> *xyz 0 1 
|  3> C          3.51177       -2.80621       -6.49228
|  4> S          3.00462       -1.09621       -6.38926
|  5> F          4.12886       -0.32965       -6.95372
|  6> O          1.78128       -1.00078       -7.13640
|  7> O          2.85155       -0.78368       -4.95679
|  8> H          3.63615       -3.08010       -7.51913
|  9> H          2.76397       -3.42755       -6.04548
| 10> H          4.43892       -2.93511       -5.97393
| 11> *
| 12> 
| 13> %MaxCore 64000
| 14> 
| 15> %pal nprocs 2
| 16> end  
| 17> 
| 18> %scf
| 19>   MaxIter 150
| 20> end
| 21> 
| 22> 
| 23>                          ****END OF INPUT****
================================================================================

                       ****************************
                       * Single Point Calculation *
                       ****************************

---------------------------------
CARTESIAN COORDINATES (ANGSTROEM)
---------------------------------
  C      3.511770   -2.806210   -6.492280
  S      3.004620   -1.096210   -6.389260
  F      4.128860   -0.329650   -6.953720
  O      1.781280   -1.000780   -7.136400
  O      2.851550   -0.783680   -4.956790
  H      3.636150   -3.080100   -7.519130
  H      2.763970   -3.427550   -6.045480
  H      4.438920   -2.935110   -5.973930

----------------------------
CARTESIAN COORDINATES (A.U.)
----------------------------
  NO LB      ZA    FRAG     MASS         X           Y           Z
   0 C     6.0000    0    12.011    6.636284   -5.302968  -12.268631
   1 S    16.0000    0    32.060    5.677909   -2.071537  -12.073952
   2 F     9.0000    0    18.998    7.802415   -0.622948  -13.140626
   3 O     8.0000    0    15.999    3.366131   -1.891200  -13.485842
   4 O     8.0000    0    15.999    5.388649   -1.480941   -9.366976
   5 H     1.0000    0     1.008    6.871328   -5.820545  -14.209096
   6 H     1.0000    0     1.008    5.223146   -6.477131  -11.424302
   7 H     1.0000    0     1.008    8.388343   -5.546554  -11.289092

--------------------------------
INTERNAL COORDINATES (ANGSTROEM)
--------------------------------
 C      0   0   0     0.000000000000     0.00000000     0.00000000
 S      1   0   0     1.786592914712     0.00000000     0.00000000
 F      2   1   0     1.473141168660   105.02979337     0.00000000
 O      2   1   3     1.436623061245   105.98059332   121.66598764
 O      2   1   3     1.474135586267   106.76390466   243.26178603
 H      1   2   3     1.070003289247   109.47113180   296.73796521
 H      1   2   3     1.069999287663   109.47114366   176.73839966
 H      1   2   3     1.070004231300   109.47128568    56.73849307

---------------------------
INTERNAL COORDINATES (A.U.)
---------------------------
 C      0   0   0     0.000000000000     0.00000000     0.00000000
 S      1   0   0     3.376171321610     0.00000000     0.00000000
 F      2   1   0     2.783833365371   105.02979337     0.00000000
 O      2   1   3     2.714824143428   105.98059332   121.66598764
 O      2   1   3     2.785712542313   106.76390466   243.26178603
 H      1   2   3     2.022013179072   109.47113180   296.73796521
 H      1   2   3     2.022005617174   109.47114366   176.73839966
 H      1   2   3     2.022014959294   109.47128568    56.73849307

---------------------
BASIS SET INFORMATION
---------------------
There are 5 groups of distinct atoms

 Group   1 Type C   : 19s6p3d2f contracted to 5s4p3d2f pattern {88111/3111/111/11}
 Group   2 Type S   : 42s17p3d2f contracted to 6s5p3d2f pattern {131313111/77111/111/11}
 Group   3 Type F   : 19s6p3d2f contracted to 5s4p3d2f pattern {88111/3111/111/11}
 Group   4 Type O   : 19s6p3d2f contracted to 5s4p3d2f pattern {88111/3111/111/11}
 Group   5 Type H   : 6s3p2d contracted to 4s3p2d pattern {3111/111/11}

Atom   0C    basis set group =>   1
Atom   1S    basis set group =>   2
Atom   2F    basis set group =>   3
Atom   3O    basis set group =>   4
Atom   4O    basis set group =>   4
Atom   5H    basis set group =>   5
Atom   6H    basis set group =>   5
Atom   7H    basis set group =>   5
---------------------------------
AUXILIARY/J BASIS SET INFORMATION
---------------------------------
There are 5 groups of distinct atoms

 Group   1 Type C   : 12s5p4d2f1g contracted to 6s4p3d1f1g pattern {711111/2111/211/2/1}
 Group   2 Type S   : 14s5p5d2f1g contracted to 8s4p3d1f1g pattern {71111111/2111/311/2/1}
 Group   3 Type F   : 12s5p4d2f1g contracted to 6s4p3d1f1g pattern {711111/2111/211/2/1}
 Group   4 Type O   : 12s5p4d2f1g contracted to 6s4p3d1f1g pattern {711111/2111/211/2/1}
 Group   5 Type H   : 5s2p1d contracted to 3s1p1d pattern {311/2/1}

Atom   0C    basis set group =>   1
Atom   1S    basis set group =>   2
Atom   2F    basis set group =>   3
Atom   3O    basis set group =>   4
Atom   4O    basis set group =>   4
Atom   5H    basis set group =>   5
Atom   6H    basis set group =>   5
Atom   7H    basis set group =>   5
---------------------------------
AUXILIARY/C BASIS SET INFORMATION
---------------------------------
There are 5 groups of distinct atoms

 Group   1 Type C   : 9s7p6d4f2g contracted to 9s7p6d4f2g pattern {111111111/1111111/111111/1111/11}
 Group   2 Type S   : 11s9p8d6f3g contracted to 11s9p8d6f3g pattern {11111111111/111111111/11111111/111111/111}
 Group   3 Type F   : 9s7p6d4f2g contracted to 9s7p6d4f2g pattern {111111111/1111111/111111/1111/11}
 Group   4 Type O   : 9s7p6d4f2g contracted to 9s7p6d4f2g pattern {111111111/1111111/111111/1111/11}
 Group   5 Type H   : 5s4p3d2f contracted to 5s4p3d2f pattern {11111/1111/111/11}

Atom   0C    basis set group =>   1
Atom   1S    basis set group =>   2
Atom   2F    basis set group =>   3
Atom   3O    basis set group =>   4
Atom   4O    basis set group =>   4
Atom   5H    basis set group =>   5
Atom   6H    basis set group =>   5
Atom   7H    basis set group =>   5


           ************************************************************
           *        Program running with 2 parallel MPI-processes     *
           *              working on a common directory               *
           ************************************************************
------------------------------------------------------------------------------
                           ORCA GTO INTEGRAL CALCULATION
                           -- RI-GTO INTEGRALS CHOSEN --
------------------------------------------------------------------------------
------------------------------------------------------------------------------
                   ___                                                        
                  /   \      - P O W E R E D   B Y -                         
                 /     \                                                     
                 |  |  |   _    _      __       _____    __    __             
                 |  |  |  | |  | |    /  \     |  _  \  |  |  /  |          
                  \  \/   | |  | |   /    \    | | | |  |  | /  /          
                 / \  \   | |__| |  /  /\  \   | |_| |  |  |/  /          
                |  |  |   |  __  | /  /__\  \  |    /   |      \           
                |  |  |   | |  | | |   __   |  |    \   |  |\   \          
                \     /   | |  | | |  |  |  |  | |\  \  |  | \   \       
                 \___/    |_|  |_| |__|  |__|  |_| \__\ |__|  \__/        
                                                                              
                      - O R C A' S   B I G   F R I E N D -                    
                                      &                                       
                       - I N T E G R A L  F E E D E R -                       
                                                                              
 v1 FN, 2020, v2 2021                                                         
------------------------------------------------------------------------------


Reading SHARK input file C1_wt_dlpno_neg.SHARKINP.tmp ... ok
----------------------
SHARK INTEGRAL PACKAGE
----------------------

Number of atoms                             ...      8
Number of basis functions                   ...    303
Number of shells                            ...     99
Maximum angular momentum                    ...      3
Integral batch strategy                     ... SHARK/LIBINT Hybrid
RI-J (if used) integral strategy            ... SPLIT-RIJ (Revised 2003 algorithm where possible)
Printlevel                                  ...      1
Contraction scheme used                     ... SEGMENTED contraction
Coulomb Range Separation                    ... NOT USED
Exchange Range Separation                   ... NOT USED
Finite Nucleus Model                        ... NOT USED
Auxiliary Coulomb fitting basis             ... AVAILABLE
   # of basis functions in Aux-J            ...    280
   # of shells in Aux-J                     ...     92
   Maximum angular momentum in Aux-J        ...      4
Auxiliary J/K fitting basis                 ... NOT available
Auxiliary Correlation fitting basis         ... AVAILABLE
   # of basis functions in Aux-C            ...    709
   # of shells in Aux-C                     ...    191
   Maximum angular momentum in Aux-C        ...      4
Auxiliary 'external' fitting basis          ... NOT available
Integral threshold                          ...     2.500000e-11
Primitive cut-off                           ...     2.500000e-12
Primitive pair pre-selection threshold      ...     2.500000e-12

Calculating pre-screening integrals         ... done (  0.5 sec) Dimension = 99
Organizing shell pair data                  ... done (  0.2 sec)
Shell pair information
Total number of shell pairs                 ...      4950
Shell pairs after pre-screening             ...      4924
Total number of primitive shell pairs       ...     24174
Primitive shell pairs kept                  ...     18336
          la=0 lb=0:    737 shell pairs
          la=1 lb=0:   1133 shell pairs
          la=1 lb=1:    462 shell pairs
          la=2 lb=0:    794 shell pairs
          la=2 lb=1:    625 shell pairs
          la=2 lb=2:    230 shell pairs
          la=3 lb=0:    379 shell pairs
          la=3 lb=1:    299 shell pairs
          la=3 lb=2:    210 shell pairs
          la=3 lb=3:     55 shell pairs

Calculating one electron integrals          ... done (  0.1 sec)
Calculating RI/J V-Matrix + Cholesky decomp.... done (  0.1 sec)
Calculating RI/C V-Matrix + Cholesky decomp.... done (  0.1 sec)
Calculating Nuclear repulsion               ... done (  0.0 sec) ENN=    282.667059461717 Eh

SHARK setup successfully completed in   1.2 seconds

Maximum memory used throughout the entire GTOINT-calculation: 48.1 MB


           ************************************************************
           *        Program running with 2 parallel MPI-processes     *
           *              working on a common directory               *
           ************************************************************
-------------------------------------------------------------------------------
                                 ORCA SCF
-------------------------------------------------------------------------------

------------
SCF SETTINGS
------------
Hamiltonian:
 Ab initio Hamiltonian  Method          .... Hartree-Fock(GTOs)
 RI-approximation to the Coulomb term is turned on
   Number of AuxJ basis functions       .... 280
   RIJ-COSX (HFX calculated with COS-X)).... on


General Settings:
 Integral files         IntName         .... C1_wt_dlpno_neg
 Hartree-Fock type      HFTyp           .... RHF
 Total Charge           Charge          ....    0
 Multiplicity           Mult            ....    1
 Number of Electrons    NEL             ....   50
 Basis Dimension        Dim             ....  303
 Nuclear Repulsion      ENuc            ....    282.6670594617 Eh

Convergence Acceleration:
 DIIS                   CNVDIIS         .... on
   Start iteration      DIISMaxIt       ....    12
   Startup error        DIISStart       ....  0.200000
   # of expansion vecs  DIISMaxEq       ....     5
   Bias factor          DIISBfac        ....   1.050
   Max. coefficient     DIISMaxC        ....  10.000
 Trust-Rad. Augm. Hess. CNVTRAH         .... auto
   Auto Start mean grad. ratio tolernc. ....  1.125000
   Auto Start start iteration           ....    20
   Auto Start num. interpolation iter.  ....    10
   Max. Number of Micro iterations      ....    16
   Max. Number of Macro iterations      .... Maxiter - #DIIS iter
   Number of Davidson start vectors     ....     2
   Converg. threshold I  (grad. norm)   ....   1.000e-05
   Converg. threshold II (energy diff.) ....   1.000e-08
   Grad. Scal. Fac. for Micro threshold ....   0.100
   Minimum threshold for Micro iter.    ....   0.010
   NR start threshold (gradient norm)   ....   0.001
   Initial trust radius                 ....   0.400
   Minimum AH scaling param. (alpha)    ....   1.000
   Maximum AH scaling param. (alpha)    .... 1000.000
   Orbital update algorithm             .... Taylor
   White noise on init. David. guess    .... on
   Maximum white noise                  ....   0.010
   Quad. conv. algorithm                .... NR
 SOSCF                  CNVSOSCF        .... on
   Start iteration      SOSCFMaxIt      ....   150
   Startup grad/error   SOSCFStart      ....  0.003300
 Level Shifting         CNVShift        .... on
   Level shift para.    LevelShift      ....    0.2500
   Turn off err/grad.   ShiftErr        ....    0.0010
 Zerner damping         CNVZerner       .... off
 Static damping         CNVDamp         .... on
   Fraction old density DampFac         ....    0.7000
   Max. Damping (<1)    DampMax         ....    0.9800
   Min. Damping (>=0)   DampMin         ....    0.0000
   Turn off err/grad.   DampErr         ....    0.1000
 Fernandez-Rico         CNVRico         .... off

SCF Procedure:
 Maximum # iterations   MaxIter         ....   150
 SCF integral mode      SCFMode         .... Direct
   Integral package                     .... SHARK and LIBINT hybrid scheme
 Reset frequency        DirectResetFreq ....    20
 Integral Threshold     Thresh          ....  2.500e-11 Eh
 Primitive CutOff       TCut            ....  2.500e-12 Eh

Convergence Tolerance:
 Convergence Check Mode ConvCheckMode   .... Total+1el-Energy
 Convergence forced     ConvForced      .... 1
 Energy Change          TolE            ....  1.000e-08 Eh
 1-El. energy change                    ....  1.000e-05 Eh
 Orbital Gradient       TolG            ....  1.000e-05
 Orbital Rotation angle TolX            ....  1.000e-05
 DIIS Error             TolErr          ....  5.000e-07


Diagonalization of the overlap matrix:
Smallest eigenvalue                        ... 3.816e-05
Time for diagonalization                   ...    0.031 sec
Threshold for overlap eigenvalues          ... 1.000e-08
Number of eigenvalues below threshold      ... 0
Time for construction of square roots      ...    0.046 sec
Total time needed                          ...    0.090 sec

Time for model grid setup =    0.336 sec

------------------------------
INITIAL GUESS: MODEL POTENTIAL
------------------------------
Loading Hartree-Fock densities                     ... done
Calculating cut-offs                               ... done
Initializing the effective Hamiltonian             ... done
Setting up the integral package (SHARK)            ... done
Starting the Coulomb interaction                   ... done (   0.5 sec)
Reading the grid                                   ... done
Mapping shells                                     ... done
Starting the XC term evaluation                    ... done (   0.5 sec)
Transforming the Hamiltonian                       ... done (   0.0 sec)
Diagonalizing the Hamiltonian                      ... done (   0.1 sec)
Back transforming the eigenvectors                 ... done (   0.0 sec)
Now organizing SCF variables                       ... done
                      ------------------
                      INITIAL GUESS DONE (   1.6 sec)
                      ------------------
--------------------
COSX GRID GENERATION
--------------------

GRIDX 1
-------
General Integration Accuracy     IntAcc      ... 3.816
Radial Grid Type                 RadialGrid  ... OptM3 with GC (2021)
Angular Grid (max. ang.)         AngularGrid ... 1 (Lebedev-50)
Angular grid pruning method      GridPruning ... 4 (adaptive)
Weight generation scheme         WeightScheme... Becke
Basis function cutoff            BFCut       ... 1.0000e-11
Integration weight cutoff        WCut        ... 1.0000e-14
Angular grids for H and He will be reduced by one unit
Partially contracted basis set               ... on
Rotationally invariant grid construction     ... off

Total number of grid points                  ...     5416
Total number of batches                      ...       88
Average number of points per batch           ...       61
Average number of grid points per atom       ...      677
UseSFitting                                  ... on

GRIDX 2
-------
General Integration Accuracy     IntAcc      ... 4.020
Radial Grid Type                 RadialGrid  ... OptM3 with GC (2021)
Angular Grid (max. ang.)         AngularGrid ... 2 (Lebedev-110)
Angular grid pruning method      GridPruning ... 4 (adaptive)
Weight generation scheme         WeightScheme... Becke
Basis function cutoff            BFCut       ... 1.0000e-11
Integration weight cutoff        WCut        ... 1.0000e-14
Angular grids for H and He will be reduced by one unit
Partially contracted basis set               ... on
Rotationally invariant grid construction     ... off

Total number of grid points                  ...    13711
Total number of batches                      ...      218
Average number of points per batch           ...       62
Average number of grid points per atom       ...     1714
UseSFitting                                  ... on

GRIDX 3
-------
General Integration Accuracy     IntAcc      ... 4.338
Radial Grid Type                 RadialGrid  ... OptM3 with GC (2021)
Angular Grid (max. ang.)         AngularGrid ... 3 (Lebedev-194)
Angular grid pruning method      GridPruning ... 4 (adaptive)
Weight generation scheme         WeightScheme... Becke
Basis function cutoff            BFCut       ... 1.0000e-11
Integration weight cutoff        WCut        ... 1.0000e-14
Angular grids for H and He will be reduced by one unit
Partially contracted basis set               ... on
Rotationally invariant grid construction     ... off

Total number of grid points                  ...    31043
Total number of batches                      ...      488
Average number of points per batch           ...       63
Average number of grid points per atom       ...     3880
UseSFitting                                  ... on

Time for X-Grid setup             =    2.314 sec

 re-compute Schwartz prescreening matrix in partically contracted basis (1) ...done (   0.265 sec)
--------------
SCF ITERATIONS
--------------
ITER       Energy         Delta-E        Max-DP      RMS-DP      [F,P]     Damp
               ***  Starting incremental Fock matrix formation  ***
  0   -686.0466754966   0.000000000000 0.08198606  0.00089183  0.3388701 0.7000
  1   -686.1755545989  -0.128879102277 0.05521606  0.00064486  0.1880344 0.7000
                               ***Turning on DIIS***
  2   -686.2447039413  -0.069149342440 0.03675937  0.00041877  0.1150780 0.7000
  3   -686.3969126634  -0.152208722059 0.07938865  0.00096791  0.0838533 0.0000
  4   -686.3758680248   0.021044638567 0.00639387  0.00014149  0.0104626 0.0000
                      *** Initiating the SOSCF procedure ***
                           *** Shutting down DIIS ***
                      *** Re-Reading the Fockian *** 
                      *** Removing any level shift *** 
ITER      Energy       Delta-E        Grad      Rot      Max-DP    RMS-DP
  5   -686.37768386  -0.0018158357  0.001780  0.001780  0.002654  0.000063
               *** Restarting incremental Fock matrix formation ***
  6   -686.38566663  -0.0079827725  0.000638  0.000915  0.008074  0.000099
  7   -686.38569231  -0.0000256765  0.000327  0.000846  0.002375  0.000038
  8   -686.38569750  -0.0000051886  0.000111  0.000100  0.001919  0.000022
  9   -686.38569833  -0.0000008364  0.000026  0.000034  0.000255  0.000004
 10   -686.38569839  -0.0000000558  0.000009  0.000018  0.000071  0.000001
 11   -686.38569840  -0.0000000054  0.000003  0.000006  0.000026  0.000000
                  ***Gradient check signals convergence***
              ***Rediagonalizing the Fockian in SOSCF/NRSCF***

               *****************************************************
               *                     SUCCESS                       *
               *           SCF CONVERGED AFTER  12 CYCLES          *
               *****************************************************

Old exchange energy                            =    -58.043768229 Eh
New exchange energy                            =    -58.044078968 Eh
Exchange energy change after final integration =     -0.000310739 Eh
Total energy after final integration           =   -686.386009143 Eh
Final COS-X integration done in                =    29.859 sec

----------------
TOTAL SCF ENERGY
----------------

Total Energy       :         -686.38600914 Eh          -18677.51286 eV

Components:
Nuclear Repulsion  :          282.66705946 Eh            7691.76173 eV
Electronic Energy  :         -969.05306860 Eh          -26369.27458 eV
One Electron Energy:        -1508.66222016 Eh          -41052.78609 eV
Two Electron Energy:          539.60915155 Eh           14683.51151 eV
Max COSX asymmetry :            0.00001559 Eh               0.00042 eV

Virial components:
Potential Energy   :        -1372.20226849 Eh          -37339.52203 eV
Kinetic Energy     :          685.81625935 Eh           18662.00918 eV
Virial Ratio       :            2.00083076


---------------
SCF CONVERGENCE
---------------

  Last Energy change         ...   -7.4833e-09  Tolerance :   1.0000e-08
  Last MAX-Density change    ...    2.4425e-15  Tolerance :   1.0000e-07
  Last RMS-Density change    ...    2.2721e-17  Tolerance :   5.0000e-09
  Last Orbital Gradient      ...    1.1257e-06  Tolerance :   1.0000e-05
  Last Orbital Rotation      ...    1.1148e-06  Tolerance :   1.0000e-05

             **** THE GBW FILE WAS UPDATED (C1_wt_dlpno_neg.gbw) ****
             **** DENSITY C1_wt_dlpno_neg.scfp WAS UPDATED ****
             **** ENERGY FILE WAS UPDATED (C1_wt_dlpno_neg.en.tmp) ****
             **** THE GBW FILE WAS UPDATED (C1_wt_dlpno_neg.gbw) ****
             **** DENSITY C1_wt_dlpno_neg.scfp WAS UPDATED ****
----------------
ORBITAL ENERGIES
----------------

  NO   OCC          E(Eh)            E(eV) 
   0   2.0000     -92.258222     -2510.4738 
   1   2.0000     -26.422894      -719.0035 
   2   2.0000     -20.575042      -559.8754 
   3   2.0000     -20.563441      -559.5597 
   4   2.0000     -11.295305      -307.3609 
   5   2.0000      -9.220909      -250.9137 
   6   2.0000      -6.908578      -187.9920 
   7   2.0000      -6.904746      -187.8877 
   8   2.0000      -6.903704      -187.8593 
   9   2.0000      -1.779065       -48.4108 
  10   2.0000      -1.462082       -39.7853 
  11   2.0000      -1.352316       -36.7984 
  12   2.0000      -1.075817       -29.2745 
  13   2.0000      -0.953642       -25.9499 
  14   2.0000      -0.823112       -22.3980 
  15   2.0000      -0.815296       -22.1853 
  16   2.0000      -0.770021       -20.9533 
  17   2.0000      -0.667418       -18.1614 
  18   2.0000      -0.662140       -18.0177 
  19   2.0000      -0.640470       -17.4281 
  20   2.0000      -0.617731       -16.8093 
  21   2.0000      -0.562431       -15.3045 
  22   2.0000      -0.508991       -13.8504 
  23   2.0000      -0.494215       -13.4483 
  24   2.0000      -0.484067       -13.1721 
  25   0.0000       0.021386         0.5819 
  26   0.0000       0.040897         1.1129 
  27   0.0000       0.043650         1.1878 
  28   0.0000       0.064468         1.7543 
  29   0.0000       0.091351         2.4858 
  30   0.0000       0.098419         2.6781 
  31   0.0000       0.099219         2.6999 
  32   0.0000       0.115010         3.1296 
  33   0.0000       0.123673         3.3653 
  34   0.0000       0.126969         3.4550 
  35   0.0000       0.163211         4.4412 
  36   0.0000       0.166373         4.5272 
  37   0.0000       0.170462         4.6385 
  38   0.0000       0.202821         5.5190 
  39   0.0000       0.209798         5.7089 
  40   0.0000       0.212161         5.7732 
  41   0.0000       0.218893         5.9564 
  42   0.0000       0.224502         6.1090 
  43   0.0000       0.235939         6.4202 
  44   0.0000       0.245197         6.6722 
  45   0.0000       0.248433         6.7602 
  46   0.0000       0.257074         6.9953 
  47   0.0000       0.266921         7.2633 
  48   0.0000       0.288733         7.8568 
  49   0.0000       0.292825         7.9682 
  50   0.0000       0.307673         8.3722 
  51   0.0000       0.313065         8.5189 
  52   0.0000       0.322841         8.7849 
  53   0.0000       0.328314         8.9339 
  54   0.0000       0.357992         9.7415 
  55   0.0000       0.359659         9.7868 
  56   0.0000       0.362445         9.8626 
  57   0.0000       0.368564        10.0291 
  58   0.0000       0.376143        10.2354 
  59   0.0000       0.377552        10.2737 
  60   0.0000       0.388366        10.5680 
  61   0.0000       0.401020        10.9123 
  62   0.0000       0.405952        11.0465 
  63   0.0000       0.421620        11.4729 
  64   0.0000       0.443710        12.0740 
  65   0.0000       0.470350        12.7989 
  66   0.0000       0.473682        12.8895 
  67   0.0000       0.482567        13.1313 
  68   0.0000       0.483811        13.1652 
  69   0.0000       0.488100        13.2819 
  70   0.0000       0.518068        14.0974 
  71   0.0000       0.524552        14.2738 
  72   0.0000       0.541514        14.7353 
  73   0.0000       0.554458        15.0876 
  74   0.0000       0.618421        16.8281 
  75   0.0000       0.631892        17.1947 
  76   0.0000       0.654226        17.8024 
  77   0.0000       0.676883        18.4189 
  78   0.0000       0.737971        20.0812 
  79   0.0000       0.740525        20.1507 
  80   0.0000       0.750744        20.4288 
  81   0.0000       0.781612        21.2687 
  82   0.0000       0.785317        21.3696 
  83   0.0000       0.806892        21.9566 
  84   0.0000       0.814528        22.1644 
  85   0.0000       0.826585        22.4925 
  86   0.0000       0.829450        22.5705 
  87   0.0000       0.849126        23.1059 
  88   0.0000       0.853555        23.2264 
  89   0.0000       0.864386        23.5211 
  90   0.0000       0.868059        23.6211 
  91   0.0000       0.881467        23.9859 
  92   0.0000       0.888813        24.1858 
  93   0.0000       0.895281        24.3618 
  94   0.0000       0.904531        24.6135 
  95   0.0000       0.923703        25.1352 
  96   0.0000       0.926013        25.1981 
  97   0.0000       0.959994        26.1228 
  98   0.0000       0.961101        26.1529 
  99   0.0000       0.974581        26.5197 
 100   0.0000       0.979526        26.6543 
 101   0.0000       1.030891        28.0520 
 102   0.0000       1.046937        28.4886 
 103   0.0000       1.049391        28.5554 
 104   0.0000       1.071402        29.1543 
 105   0.0000       1.079290        29.3690 
 106   0.0000       1.087953        29.6047 
 107   0.0000       1.093300        29.7502 
 108   0.0000       1.095249        29.8032 
 109   0.0000       1.115335        30.3498 
 110   0.0000       1.126934        30.6654 
 111   0.0000       1.136955        30.9381 
 112   0.0000       1.151569        31.3358 
 113   0.0000       1.158895        31.5351 
 114   0.0000       1.168768        31.8038 
 115   0.0000       1.204588        32.7785 
 116   0.0000       1.243456        33.8362 
 117   0.0000       1.248603        33.9762 
 118   0.0000       1.279207        34.8090 
 119   0.0000       1.288852        35.0714 
 120   0.0000       1.300494        35.3883 
 121   0.0000       1.313311        35.7370 
 122   0.0000       1.329690        36.1827 
 123   0.0000       1.343459        36.5574 
 124   0.0000       1.380652        37.5694 
 125   0.0000       1.393411        37.9166 
 126   0.0000       1.398892        38.0658 
 127   0.0000       1.418453        38.5981 
 128   0.0000       1.450786        39.4779 
 129   0.0000       1.455933        39.6180 
 130   0.0000       1.492035        40.6003 
 131   0.0000       1.500458        40.8295 
 132   0.0000       1.511062        41.1181 
 133   0.0000       1.553309        42.2677 
 134   0.0000       1.567158        42.6445 
 135   0.0000       1.592021        43.3211 
 136   0.0000       1.612197        43.8701 
 137   0.0000       1.631883        44.4058 
 138   0.0000       1.653427        44.9920 
 139   0.0000       1.656675        45.0804 
 140   0.0000       1.662104        45.2282 
 141   0.0000       1.667375        45.3716 
 142   0.0000       1.702133        46.3174 
 143   0.0000       1.724981        46.9391 
 144   0.0000       1.752666        47.6925 
 145   0.0000       1.769734        48.1569 
 146   0.0000       1.823763        49.6271 
 147   0.0000       1.896221        51.5988 
 148   0.0000       1.940413        52.8013 
 149   0.0000       1.943217        52.8776 
 150   0.0000       2.013910        54.8013 
 151   0.0000       2.039355        55.4937 
 152   0.0000       2.072979        56.4086 
 153   0.0000       2.165285        58.9204 
 154   0.0000       2.165867        58.9362 
 155   0.0000       2.175000        59.1847 
 156   0.0000       2.183538        59.4171 
 157   0.0000       2.206146        60.0323 
 158   0.0000       2.215596        60.2894 
 159   0.0000       2.230176        60.6862 
 160   0.0000       2.248651        61.1889 
 161   0.0000       2.279079        62.0169 
 162   0.0000       2.283049        62.1249 
 163   0.0000       2.288134        62.2633 
 164   0.0000       2.304717        62.7146 
 165   0.0000       2.328947        63.3739 
 166   0.0000       2.341477        63.7148 
 167   0.0000       2.360520        64.2330 
 168   0.0000       2.419566        65.8397 
 169   0.0000       2.422980        65.9326 
 170   0.0000       2.437628        66.3312 
 171   0.0000       2.448744        66.6337 
 172   0.0000       2.461546        66.9821 
 173   0.0000       2.519102        68.5482 
 174   0.0000       2.541458        69.1566 
 175   0.0000       2.569847        69.9291 
 176   0.0000       2.597697        70.6869 
 177   0.0000       2.609857        71.0178 
 178   0.0000       2.621836        71.3438 
 179   0.0000       2.666783        72.5669 
 180   0.0000       2.686338        73.0990 
 181   0.0000       2.710596        73.7591 
 182   0.0000       2.730984        74.3139 
 183   0.0000       2.765330        75.2485 
 184   0.0000       2.774968        75.5107 
 185   0.0000       2.793384        76.0118 
 186   0.0000       2.850307        77.5608 
 187   0.0000       2.851514        77.5936 
 188   0.0000       2.881491        78.4094 
 189   0.0000       2.947903        80.2165 
 190   0.0000       2.976974        81.0076 
 191   0.0000       3.066400        83.4410 
 192   0.0000       3.073924        83.6457 
 193   0.0000       3.112118        84.6850 
 194   0.0000       3.129403        85.1554 
 195   0.0000       3.175906        86.4208 
 196   0.0000       3.206734        87.2597 
 197   0.0000       3.240505        88.1786 
 198   0.0000       3.253600        88.5350 
 199   0.0000       3.294493        89.6477 
 200   0.0000       3.331725        90.6608 
 201   0.0000       3.357362        91.3585 
 202   0.0000       3.380884        91.9985 
 203   0.0000       3.417630        92.9984 
 204   0.0000       3.420465        93.0756 
 205   0.0000       3.489864        94.9640 
 206   0.0000       3.559774        96.8664 
 207   0.0000       3.576057        97.3094 
 208   0.0000       3.606507        98.1381 
 209   0.0000       3.611697        98.2793 
 210   0.0000       3.658031        99.5401 
 211   0.0000       3.680963       100.1641 
 212   0.0000       3.712351       101.0182 
 213   0.0000       3.742928       101.8502 
 214   0.0000       3.760157       102.3191 
 215   0.0000       3.828335       104.1743 
 216   0.0000       3.879541       105.5677 
 217   0.0000       3.922502       106.7367 
 218   0.0000       3.925071       106.8066 
 219   0.0000       3.929556       106.9287 
 220   0.0000       3.958118       107.7059 
 221   0.0000       4.051646       110.2509 
 222   0.0000       4.079602       111.0116 
 223   0.0000       4.101608       111.6104 
 224   0.0000       4.118243       112.0631 
 225   0.0000       4.130062       112.3847 
 226   0.0000       4.136116       112.5494 
 227   0.0000       4.264377       116.0396 
 228   0.0000       4.311074       117.3103 
 229   0.0000       4.341783       118.1459 
 230   0.0000       4.404158       119.8432 
 231   0.0000       4.496760       122.3631 
 232   0.0000       4.499154       122.4282 
 233   0.0000       4.516720       122.9062 
 234   0.0000       4.609117       125.4205 
 235   0.0000       4.660921       126.8301 
 236   0.0000       4.714690       128.2932 
 237   0.0000       4.753395       129.3465 
 238   0.0000       4.757885       129.4686 
 239   0.0000       4.796728       130.5256 
 240   0.0000       4.891355       133.1005 
 241   0.0000       4.956943       134.8853 
 242   0.0000       5.015630       136.4822 
 243   0.0000       5.033433       136.9667 
 244   0.0000       5.131429       139.6333 
 245   0.0000       5.219742       142.0364 
 246   0.0000       5.227893       142.2582 
 247   0.0000       5.247841       142.8010 
 248   0.0000       5.554889       151.1562 
 249   0.0000       5.577535       151.7724 
 250   0.0000       5.589701       152.1035 
 251   0.0000       5.612278       152.7179 
 252   0.0000       5.621980       152.9819 
 253   0.0000       5.697817       155.0455 
 254   0.0000       5.788574       157.5151 
 255   0.0000       5.840727       158.9343 
 256   0.0000       6.003505       163.3637 
 257   0.0000       6.108298       166.2152 
 258   0.0000       6.108419       166.2185 
 259   0.0000       6.385599       173.7610 
 260   0.0000       6.604012       179.7043 
 261   0.0000       6.611197       179.8998 
 262   0.0000       6.637377       180.6122 
 263   0.0000       6.678495       181.7311 
 264   0.0000       6.687500       181.9761 
 265   0.0000       6.734532       183.2559 
 266   0.0000       6.831496       185.8945 
 267   0.0000       6.853132       186.4832 
 268   0.0000       6.880438       187.2262 
 269   0.0000       6.891591       187.5297 
 270   0.0000       6.902130       187.8165 
 271   0.0000       6.942144       188.9054 
 272   0.0000       6.956623       189.2993 
 273   0.0000       6.962973       189.4721 
 274   0.0000       6.994711       190.3358 
 275   0.0000       7.062100       192.1695 
 276   0.0000       7.185601       195.5301 
 277   0.0000       7.222088       196.5230 
 278   0.0000       7.243513       197.1060 
 279   0.0000       7.275214       197.9686 
 280   0.0000       7.498569       204.0464 
 281   0.0000       7.533619       205.0002 
 282   0.0000       7.621327       207.3868 
 283   0.0000       7.638393       207.8512 
 284   0.0000       7.672324       208.7746 
 285   0.0000       7.776607       211.6122 
 286   0.0000       8.846993       240.7389 
 287   0.0000       8.876228       241.5344 
 288   0.0000       9.062608       246.6061 
 289   0.0000       9.085218       247.2214 
 290   0.0000       9.173551       249.6250 
 291   0.0000       9.280850       252.5448 
 292   0.0000       9.310100       253.3407 
 293   0.0000       9.352380       254.4912 
 294   0.0000       9.370356       254.9803 
 295   0.0000       9.497254       258.4334 
 296   0.0000       9.514529       258.9035 
 297   0.0000       9.527505       259.2566 
 298   0.0000      12.067558       328.3749 
 299   0.0000      12.746935       346.8617 
 300   0.0000      13.195607       359.0707 
 301   0.0000      16.079865       437.5554 
 302   0.0000      17.561975       477.8856 

                    ********************************
                    * MULLIKEN POPULATION ANALYSIS *
                    ********************************

-----------------------
MULLIKEN ATOMIC CHARGES
-----------------------
   0 C :   -0.983963
   1 S :    2.158614
   2 F :   -0.496215
   3 O :   -0.844031
   4 O :   -0.854150
   5 H :    0.335449
   6 H :    0.350850
   7 H :    0.333447
Sum of atomic charges:   -0.0000000

--------------------------------
MULLIKEN REDUCED ORBITAL CHARGES
--------------------------------
  0 C s       :     3.329651  s :     3.329651
      pz      :     1.264928  p :     3.514483
      px      :     1.260578
      py      :     0.988978
      dz2     :     0.051300  d :     0.144989
      dxz     :     0.041887
      dyz     :     0.002544
      dx2y2   :     0.035936
      dxy     :     0.013323
      f0      :     0.001681  f :    -0.005161
      f+1     :    -0.000834
      f-1     :    -0.001388
      f+2     :    -0.000505
      f-2     :    -0.002345
      f+3     :    -0.001688
      f-3     :    -0.000080
  1 S s       :     4.915456  s :     4.915456
      pz      :     2.688040  p :     7.952354
      px      :     2.606688
      py      :     2.657627
      dz2     :     0.221247  d :     0.906087
      dxz     :     0.197352
      dyz     :     0.143284
      dx2y2   :     0.164033
      dxy     :     0.180171
      f0      :     0.010383  f :     0.067490
      f+1     :     0.020808
      f-1     :     0.011529
      f+2     :     0.004874
      f-2     :     0.017081
      f+3     :    -0.001376
      f-3     :     0.004191
  2 F s       :     4.023892  s :     4.023892
      pz      :     1.913158  p :     5.435546
      px      :     1.689552
      py      :     1.832836
      dz2     :     0.004414  d :     0.032510
      dxz     :     0.006194
      dyz     :     0.004920
      dx2y2   :     0.008087
      dxy     :     0.008894
      f0      :     0.000229  f :     0.004268
      f+1     :     0.000762
      f-1     :     0.000412
      f+2     :     0.000488
      f-2     :     0.000654
      f+3     :     0.000989
      f-3     :     0.000734
  3 O s       :     3.953842  s :     3.953842
      pz      :     1.674021  p :     4.808204
      px      :     1.345151
      py      :     1.789032
      dz2     :     0.012767  d :     0.074120
      dxz     :     0.017245
      dyz     :     0.007972
      dx2y2   :     0.015642
      dxy     :     0.020494
      f0      :     0.000307  f :     0.007865
      f+1     :     0.002512
      f-1     :     0.000190
      f+2     :     0.000816
      f-2     :     0.001410
      f+3     :     0.001073
      f-3     :     0.001556
  4 O s       :     3.954808  s :     3.954808
      pz      :     1.247615  p :     4.823348
      px      :     1.794241
      py      :     1.781492
      dz2     :     0.021184  d :     0.068449
      dxz     :     0.019152
      dyz     :     0.022794
      dx2y2   :     0.002173
      dxy     :     0.003145
      f0      :     0.001960  f :     0.007546
      f+1     :     0.002360
      f-1     :     0.002040
      f+2     :     0.000488
      f-2     :     0.000598
      f+3     :     0.000076
      f-3     :     0.000023
  5 H s       :     0.600961  s :     0.600961
      pz      :     0.021376  p :     0.054043
      px      :     0.017781
      py      :     0.014886
      dz2     :     0.000114  d :     0.009548
      dxz     :     0.003623
      dyz     :     0.002608
      dx2y2   :     0.001599
      dxy     :     0.001604
  6 H s       :     0.583940  s :     0.583940
      pz      :     0.019915  p :     0.057277
      px      :     0.020322
      py      :     0.017040
      dz2     :     0.001942  d :     0.007933
      dxz     :     0.000469
      dyz     :     0.001631
      dx2y2   :     0.003035
      dxy     :     0.000856
  7 H s       :     0.601277  s :     0.601277
      pz      :     0.018153  p :     0.055697
      px      :     0.022283
      py      :     0.015260
      dz2     :     0.002578  d :     0.009580
      dxz     :     0.000260
      dyz     :     0.001677
      dx2y2   :     0.001889
      dxy     :     0.003176


                     *******************************
                     * LOEWDIN POPULATION ANALYSIS *
                     *******************************

----------------------
LOEWDIN ATOMIC CHARGES
----------------------
   0 C :    0.511027
   1 S :   -0.134270
   2 F :    0.256258
   3 O :    0.024009
   4 O :   -0.000601
   5 H :   -0.224491
   6 H :   -0.207564
   7 H :   -0.224368

-------------------------------
LOEWDIN REDUCED ORBITAL CHARGES
-------------------------------
  0 C s       :     2.486464  s :     2.486464
      pz      :     0.823654  p :     2.345365
      px      :     0.817616
      py      :     0.704095
      dz2     :     0.102189  d :     0.490399
      dxz     :     0.069939
      dyz     :     0.084605
      dx2y2   :     0.126756
      dxy     :     0.106911
      f0      :     0.024274  f :     0.166746
      f+1     :     0.004729
      f-1     :     0.023981
      f+2     :     0.025469
      f-2     :     0.020267
      f+3     :     0.034080
      f-3     :     0.033945
  1 S s       :     4.509511  s :     4.509511
      pz      :     2.716557  p :     8.031977
      px      :     2.662060
      py      :     2.653360
      dz2     :     0.533664  d :     2.238071
      dxz     :     0.516272
      dyz     :     0.370587
      dx2y2   :     0.396629
      dxy     :     0.420919
      f0      :     0.200677  f :     1.354711
      f+1     :     0.330119
      f-1     :     0.161669
      f+2     :     0.154974
      f-2     :     0.175162
      f+3     :     0.165184
      f-3     :     0.166925
  2 F s       :     3.495885  s :     3.495885
      pz      :     1.715141  p :     5.050895
      px      :     1.650121
      py      :     1.685633
      dz2     :     0.028104  d :     0.167884
      dxz     :     0.038592
      dyz     :     0.019468
      dx2y2   :     0.040055
      dxy     :     0.041665
      f0      :     0.002971  f :     0.029078
      f+1     :     0.004401
      f-1     :     0.002094
      f+2     :     0.003035
      f-2     :     0.005600
      f+3     :     0.005166
      f-3     :     0.005810
  3 O s       :     3.335603  s :     3.335603
      pz      :     1.483338  p :     4.346069
      px      :     1.393128
      py      :     1.469603
      dz2     :     0.041617  d :     0.220951
      dxz     :     0.069273
      dyz     :     0.017451
      dx2y2   :     0.047619
      dxy     :     0.044991
      f0      :     0.008233  f :     0.073368
      f+1     :     0.016355
      f-1     :     0.001288
      f+2     :     0.017155
      f-2     :     0.009506
      f+3     :     0.010395
      f-3     :     0.010436
  4 O s       :     3.356820  s :     3.356820
      pz      :     1.383394  p :     4.368952
      px      :     1.497067
      py      :     1.488491
      dz2     :     0.087806  d :     0.208811
      dxz     :     0.053241
      dyz     :     0.053000
      dx2y2   :     0.007409
      dxy     :     0.007355
      f0      :     0.024659  f :     0.066017
      f+1     :     0.015900
      f-1     :     0.016373
      f+2     :     0.003989
      f-2     :     0.004167
      f+3     :     0.000562
      f-3     :     0.000367
  5 H s       :     0.653186  s :     0.653186
      pz      :     0.152749  p :     0.331121
      px      :     0.091589
      py      :     0.086784
      dz2     :     0.065690  d :     0.240183
      dxz     :     0.088701
      dyz     :     0.061577
      dx2y2   :     0.014915
      dxy     :     0.009301
  6 H s       :     0.643871  s :     0.643871
      pz      :     0.101908  p :     0.325554
      px      :     0.122943
      py      :     0.100703
      dz2     :     0.052699  d :     0.238139
      dxz     :     0.043400
      dyz     :     0.026113
      dx2y2   :     0.078048
      dxy     :     0.037880
  7 H s       :     0.653111  s :     0.653111
      pz      :     0.107188  p :     0.331097
      px      :     0.140340
      py      :     0.083569
      dz2     :     0.062522  d :     0.240159
      dxz     :     0.051867
      dyz     :     0.014679
      dx2y2   :     0.047869
      dxy     :     0.063222


                      *****************************
                      * MAYER POPULATION ANALYSIS *
                      *****************************

  NA   - Mulliken gross atomic population
  ZA   - Total nuclear charge
  QA   - Mulliken gross atomic charge
  VA   - Mayer's total valence
  BVA  - Mayer's bonded valence
  FA   - Mayer's free valence

  ATOM       NA         ZA         QA         VA         BVA        FA
  0 C      6.9840     6.0000    -0.9840     3.6610     3.6610     0.0000
  1 S     13.8414    16.0000     2.1586     4.6517     4.6517    -0.0000
  2 F      9.4962     9.0000    -0.4962     0.7252     0.7252     0.0000
  3 O      8.8440     8.0000    -0.8440     1.7988     1.7988    -0.0000
  4 O      8.8542     8.0000    -0.8542     1.7270     1.7270    -0.0000
  5 H      0.6646     1.0000     0.3354     1.0021     1.0021     0.0000
  6 H      0.6492     1.0000     0.3508     1.0055     1.0055     0.0000
  7 H      0.6666     1.0000     0.3334     1.0117     1.0117    -0.0000

  Mayer bond orders larger than 0.100000
B(  0-C ,  1-S ) :   0.8915 B(  0-C ,  5-H ) :   0.8785 B(  0-C ,  6-H ) :   0.8692 
B(  0-C ,  7-H ) :   0.8786 B(  1-S ,  2-F ) :   0.5648 B(  1-S ,  3-O ) :   1.5939 
B(  1-S ,  4-O ) :   1.5166 

-------
TIMINGS
-------

Total SCF time: 0 days 0 hours 3 min 4 sec 

Total time                  ....     184.115 sec
Sum of individual times     ....     182.793 sec  ( 99.3%)

Fock matrix formation       ....     175.632 sec  ( 95.4%)
  Split-RI-J                ....      16.718 sec  (  9.5% of F)
  Chain of spheres X        ....     157.963 sec  ( 89.9% of F)
Diagonalization             ....       0.518 sec  (  0.3%)
Density matrix formation    ....       0.086 sec  (  0.0%)
Population analysis         ....       0.125 sec  (  0.1%)
Initial guess               ....       1.226 sec  (  0.7%)
Orbital Transformation      ....       0.000 sec  (  0.0%)
Orbital Orthonormalization  ....       0.000 sec  (  0.0%)
DIIS solution               ....       0.471 sec  (  0.3%)
SOSCF solution              ....       2.084 sec  (  1.1%)

Maximum memory used throughout the entire SCF-calculation: 87.6 MB


           ************************************************************
           *        Program running with 2 parallel MPI-processes     *
           *              working on a common directory               *
           ************************************************************


------------------------------------------------------------------------------- 
                              ORCA-MATRIX DRIVEN CI                            
------------------------------------------------------------------------------- 


Wavefunction type
-----------------
Correlation treatment                      ...      CCSD     
Single excitations                         ... ON
Orbital optimization                       ... OFF
Calculation of Z vector                    ... OFF
Calculation of Brueckner orbitals          ... OFF
Perturbative triple excitations            ... ON
Calculation of F12 correction              ... OFF
Frozen core treatment                      ... chemical core (18 el)
Reference Wavefunction                     ... RHF
  Internal Orbitals:     9 ...   24 ( 16 MO's/ 32 electrons)
  Virtual  Orbitals:    25 ...  302 (278 MO's              )
Number of AO's                             ...    303
Number of electrons                        ...     50
Number of correlated electrons             ...     32

Algorithmic settings
--------------------
Integral transformation                    ... All integrals via the RI transformation
K(C) Formation                             ... RI-DLPNO
   PNO-Integral Storage                    ... ON DISK
   PNO occupation number cut-off           ... 1.000e-07
   Singles PNO occupation number cut-off   ... 3.000e-09
   PNO Mulliken prescreening cut-off       ... 1.000e-03
   Domain cut-off (Mulliken population)    ... 1.000e-03
   PNO Normalization                       ...    1
Maximum number of iterations               ...        50
Convergence tolerance (max. residuum)      ... 1.000e-05
Level shift for amplitude update           ... 2.000e-01
Maximum number of DIIS vectors             ...         7
DIIS turned on at iteration                ...         0
Damping before turning on DIIS             ...     0.500
Damping after turning on DIIS              ...     0.000
Pair specific amplitude update             ... OFF
Natural orbital iterations                 ... OFF
Perturbative natural orbital generation    ... OFF
Printlevel                                 ... 2

Singles Fock matrix elements calculated using PNOs.

Memory handling:
----------------
Maximum memory for working arrays          ...  64000 MB
Data storage in matrix containers          ... UNCOMPRESSED
Data type for integral storage             ... DOUBLE
In-Core Storage of quantities:
   Amplitudes+Sigma Vector      ... NO
   J+K operators                ... NO
   DIIS vectors                 ... NO
   3-external integrals         ... NO
   4-external integrals         ... NO

Localization treatment:
-----------------------
Localization option                        ...    6
Localization threshhold                    ... -1.0e+00
Using relative localization threshhold     ... 1.0e-08
Neglect threshold for strong pairs         ... 1.000e-05 Eh
Prescreening threshold for very weak pairs ... 1.000e-07 Eh

Initializing the integral package          ... done
Localizing the valence orbitals
------------------------------------------------------------------------------
                           ORCA ORBITAL LOCALIZATION
------------------------------------------------------------------------------

Input orbitals are from                  ... C1_wt_dlpno_neg.gbw
Output orbitals are to                   ... C1_wt_dlpno_neg.loc
Max. number of iterations                ... 128
Localizations seeded randomly            ... off
Convergence tolerance                    ... 1.000e-06
Using relative localization threshhold   ... 1.000e-08
Treshold for strong local MOs            ... 9.500e-01
Treshold for bond MOs                    ... 8.500e-01
Operator                                 ... 0
Orbital range for localization           ... 9 to 24
Localization criterion                   ... FOSTER-BOYS (AUGMENTED HESSIAN)
Doing the dipole integrals     ... o.k.
Initial value of the localization sum :  3077.270288
ITERATION   0 : L= 3100.7572215865 DL=  2.35e+01 (AVERGE_DL)=    0.4424075599 
ITERATION   1 : L= 3103.1588423752 DL=  2.40e+00 (AVERGE_DL)=    0.1414691011 
ITERATION   2 : L= 3103.2203536121 DL=  6.15e-02 (AVERGE_DL)=    0.0226405309 
ITERATION   3 : L= 3103.2502508226 DL=  2.99e-02 (AVERGE_DL)=    0.0157842777 
ITERATION   4 : L= 3103.2743415603 DL=  2.41e-02 (AVERGE_DL)=    0.0141688442 
ITERATION   5 : L= 3103.2912608027 DL=  1.69e-02 (AVERGE_DL)=    0.0118740763 
ITERATION   6 : L= 3103.3016140235 DL=  1.04e-02 (AVERGE_DL)=    0.0092885327 
ITERATION   7 : L= 3103.3076906521 DL=  6.08e-03 (AVERGE_DL)=    0.0071160784 
ITERATION   8 : L= 3103.3113996894 DL=  3.71e-03 (AVERGE_DL)=    0.0055595544 
ITERATION   9 : L= 3103.3138446321 DL=  2.44e-03 (AVERGE_DL)=    0.0045138146 
ITERATION  10 : L= 3103.3155843656 DL=  1.74e-03 (AVERGE_DL)=    0.0038075950 
ITERATION  11 : L= 3103.3168935622 DL=  1.31e-03 (AVERGE_DL)=    0.0033030246 
ITERATION  12 : L= 3103.3179121669 DL=  1.02e-03 (AVERGE_DL)=    0.0029134812 
ITERATION  13 : L= 3103.3187174583 DL=  8.05e-04 (AVERGE_DL)=    0.0025905137 
ITERATION  14 : L= 3103.3193572482 DL=  6.40e-04 (AVERGE_DL)=    0.0023090221 
ITERATION  15 : L= 3103.3198648776 DL=  5.08e-04 (AVERGE_DL)=    0.0020567559 
ITERATION  16 : L= 3103.3202658822 DL=  4.01e-04 (AVERGE_DL)=    0.0018280330 
ITERATION  17 : L= 3103.3205809006 DL=  3.15e-04 (AVERGE_DL)=    0.0016202326 
ITERATION  18 : L= 3103.3208269667 DL=  2.46e-04 (AVERGE_DL)=    0.0014319744 
ITERATION  19 : L= 3103.3210181635 DL=  1.91e-04 (AVERGE_DL)=    0.0012622625 
ITERATION  20 : L= 3103.3211660355 DL=  1.48e-04 (AVERGE_DL)=    0.0011100753 
ITERATION  21 : L= 3103.3212799529 DL=  1.14e-04 (AVERGE_DL)=    0.0009743259 
ITERATION  22 : L= 3103.3213674237 DL=  8.75e-05 (AVERGE_DL)=    0.0008537703 
ITERATION  23 : L= 3103.3214344074 DL=  6.70e-05 (AVERGE_DL)=    0.0007471264 
ITERATION  24 : L= 3103.3214855920 DL=  5.12e-05 (AVERGE_DL)=    0.0006530987 
ITERATION  25 : L= 3103.3215246365 DL=  3.90e-05 (AVERGE_DL)=    0.0005704127 
ITERATION  26 : L= 3103.3215543776 DL=  2.97e-05 (AVERGE_DL)=    0.0004978382 
ITERATION  27 : L= 3103.3215770089 DL=  2.26e-05 (AVERGE_DL)=    0.0004342744 
ITERATION  28 : L= 3103.3215942137 DL=  1.72e-05 (AVERGE_DL)=    0.0003786461 
ITERATION  29 : L= 3103.3216072843 DL=  1.31e-05 (AVERGE_DL)=    0.0003300326 
ITERATION  30 : L= 3103.3216172091 DL=  9.92e-06 (AVERGE_DL)=    0.0002875888 
ITERATION  31 : L= 3103.3216247417 DL=  7.53e-06 (AVERGE_DL)=    0.0002505430 
ITERATION  32 : L= 3103.3216304571 DL=  5.72e-06 (AVERGE_DL)=    0.0002182389 
ITERATION  33 : L= 3103.3216347916 DL=  4.33e-06 (AVERGE_DL)=    0.0001900545 
ITERATION  34 : L= 3103.3216380786 DL=  3.29e-06 (AVERGE_DL)=    0.0001655031 
ITERATION  35 : L= 3103.3216405715 DL=  2.49e-06 (AVERGE_DL)=    0.0001441340 
ITERATION  36 : L= 3103.3216424604 DL=  1.89e-06 (AVERGE_DL)=    0.0001254627 
ITERATION  37 : L= 3103.3216438930 DL=  1.43e-06 (AVERGE_DL)=    0.0001092609 
ITERATION  38 : L= 3103.3216449785 DL=  1.09e-06 (AVERGE_DL)=    0.0000951082 
ITERATION  39 : L= 3103.3216458014 DL=  8.23e-07 (AVERGE_DL)=    0.0000828121 
LOCALIZATION SUM CONVERGED

------------------------------------------------------
AUGMENTED HESSIAN OPTIMIZATION OF FOSTER-BOYS ORBITALS
------------------------------------------------------

Spin operator:           0
Orbital window:          9 to 24
Number of iterations:    128
Gradient tolerance:      1.000e-06
Number of pairs:         120
Davidson threshold:      2000
Diagonalization method:  LAPACK
Iter:    0   L: 3103.3216458014   Grad. norm: 1.114799e-03
   *** Likely close to a maximum now. ***
       Augmented Hessian eigenvalues:  5.16e-06 -9.01e-02 -3.48e-01 -3.76e-01 ... 
Iter:    1   L: 3103.3216483793   Grad. norm: 1.452861e-05
Iter:    2   L: 3103.3216483793   Grad. norm: 4.314312e-12
LOCALIZATION HAS CONVERGED.

Eigenvalues of the Hessian:
  0 -9.014e-02
  1 -3.479e-01
  2 -3.762e-01
  3 -4.846e-01
  4 -6.186e-01
  5 -6.953e-01
  6 -7.768e-01
  7 -8.490e-01
  8 -9.052e-01
  9 -3.072e+00
    ...


------------------------------------------------------------------------------- 
                    LOCALIZED MOLECULAR ORBITAL COMPOSITIONS                   
------------------------------------------------------------------------------- 

The Mulliken populations for each LMO on each atom are computed
The LMO`s will be ordered according to atom index and type
  (A) Strongly localized MO`s have populations of >=0.950 on one atom
  (B) Two center bond orbitals have populations of >=0.850 on two atoms
  (C) Other MO`s are considered to be `delocalized`

FOUND  -   7 strongly local MO`s
       -   9 two center bond MO`s
       -   0 significantly delocalized MO`s

Rather strongly localized orbitals:
MO  15:   4O  -   0.966867
MO  14:   4O  -   0.963498
MO  13:   3O  -   0.971828
MO  12:   3O  -   0.965169
MO  11:   2F  -   1.009767
MO  10:   2F  -   1.013521
MO   9:   2F  -   1.015752
Bond-like localized orbitals:
MO  24:   7H  -   0.283090  and   0C  -   0.678727
MO  23:   6H  -   0.270696  and   0C  -   0.689709
MO  22:   5H  -   0.285801  and   0C  -   0.676947
MO  21:   4O  -   0.521692  and   1S  -   0.485351
MO  20:   4O  -   0.936932  and   1S  -   0.057440
MO  19:   3O  -   0.895264  and   1S  -   0.100738
MO  18:   3O  -   0.545690  and   1S  -   0.467046
MO  17:   2F  -   0.719325  and   1S  -   0.239802
MO  16:   1S  -   0.476948  and   0C  -   0.448797
Localized MO's were stored in: C1_wt_dlpno_neg.loc

Localizing the core orbitals
------------------------------------------------------------------------------
                           ORCA ORBITAL LOCALIZATION
------------------------------------------------------------------------------

Input orbitals are from                  ... C1_wt_dlpno_neg.loc
Output orbitals are to                   ... C1_wt_dlpno_neg.loc
Max. number of iterations                ... 128
Localizations seeded randomly            ... off
Convergence tolerance                    ... 1.000e-06
Using relative localization threshhold   ... 1.000e-08
Treshold for strong local MOs            ... 9.500e-01
Treshold for bond MOs                    ... 8.500e-01
Operator                                 ... 0
Orbital range for localization           ... 0 to 8
Localization criterion                   ... FOSTER-BOYS (AUGMENTED HESSIAN)
Doing the dipole integrals     ... o.k.
Initial value of the localization sum :  1683.940880
ITERATION   0 : L= 1684.0931363442 DL=  1.52e-01 (AVERGE_DL)=    0.0650333550 
ITERATION   1 : L= 1684.1454233163 DL=  5.23e-02 (AVERGE_DL)=    0.0381105745 
ITERATION   2 : L= 1684.1472657664 DL=  1.84e-03 (AVERGE_DL)=    0.0071539619 
ITERATION   3 : L= 1684.1473384065 DL=  7.26e-05 (AVERGE_DL)=    0.0014204862 
ITERATION   4 : L= 1684.1473438876 DL=  5.48e-06 (AVERGE_DL)=    0.0003901963 
ITERATION   5 : L= 1684.1473447206 DL=  8.33e-07 (AVERGE_DL)=    0.0001521117 
LOCALIZATION SUM CONVERGED

------------------------------------------------------
AUGMENTED HESSIAN OPTIMIZATION OF FOSTER-BOYS ORBITALS
------------------------------------------------------

Spin operator:           0
Orbital window:          0 to 8
Number of iterations:    128
Gradient tolerance:      1.000e-06
Number of pairs:         36
Davidson threshold:      2000
Diagonalization method:  LAPACK
Iter:    0   L: 1684.1473447206   Grad. norm: 4.078819e-04
   *** Detected a saddle point. ***
       Augmented Hessian eigenvalues:  4.85e-04  6.65e-05 -2.17e-04 -6.34e-04 ... 
Iter:    1   L: 1684.1474878327   Grad. norm: 3.792807e-04
Iter:    2   L: 1684.1474994112   Grad. norm: 1.173409e-05
   *** Likely close to a maximum now. ***
       Augmented Hessian eigenvalues:  7.05e-09 -4.83e-04 -6.29e-04 -1.04e-03 ... 
Iter:    3   L: 1684.1474994147   Grad. norm: 3.514311e-09
LOCALIZATION HAS CONVERGED.

Eigenvalues of the Hessian:
  0 -4.835e-04
  1 -6.275e-04
  2 -1.045e-03
  3 -1.374e-01
  4 -1.376e-01
  5 -1.384e-01
  6 -4.130e-01
  7 -5.501e-01
  8 -5.510e-01
  9 -5.526e-01
    ...


------------------------------------------------------------------------------- 
                    LOCALIZED MOLECULAR ORBITAL COMPOSITIONS                   
------------------------------------------------------------------------------- 

The Mulliken populations for each LMO on each atom are computed
The LMO`s will be ordered according to atom index and type
  (A) Strongly localized MO`s have populations of >=0.950 on one atom
  (B) Two center bond orbitals have populations of >=0.850 on two atoms
  (C) Other MO`s are considered to be `delocalized`

FOUND  -   9 strongly local MO`s
       -   0 two center bond MO`s
       -   0 significantly delocalized MO`s

Rather strongly localized orbitals:
MO   8:   4O  -   0.999610
MO   7:   3O  -   0.999640
MO   6:   2F  -   1.000394
MO   5:   1S  -   0.999758
MO   4:   1S  -   0.998747
MO   3:   1S  -   0.997689
MO   2:   1S  -   0.999990
MO   1:   1S  -   0.999457
MO   0:   0C  -   1.001200
Localized MO's were stored in: C1_wt_dlpno_neg.loc

Warning: reference  - re-canonicalizations have been set to INT 1 VIRT 1
Warning: internal orbitals are localized - no re-canonicalization of internal orbitals
Warning: UsePNO is turned on - no re-canonicalization of internal and virtual orbitals

--------------------------
CLOSED-SHELL FOCK OPERATOR
--------------------------

Restoring SHARK [2] ... ok
Entering RIJCOSX section for the Fock matrix
Trying to retrieve the full J-matrix              ... done
Updating the Fock matrix                          ... done
Making the frozen core Coulomb matrix             ... SHARKdone
Retrieving the full K-matrix                      ... done
Calculating the frozen core K-matrix              ... done
Updating the Fock matrix                          ... done
Time needed for Fock operator              ...           27.994 sec
Reference energy                           ...   -686.386009254

--------------
DLPNO SETTINGS (2015 fully linear scaling implementation)
--------------

TCutMKN:           1.000e-03
TCutPAO:           1.000e-03
TCutPNO:           1.000e-07
TCutPNOSingles:    3.000e-09
TCutEN:            9.700e-01
TCutPAOExt:        1.000e-01
TCutPairs:         1.000e-05
TCutPre:           1.000e-07
TCutOSV:           1.000e-06
TCutDOij:          1.000e-05
TCutDO:            5.000e-03
TCutC:             1.000e-04
TCutCPAO:          1.000e-03
TCutCMO:           1.000e-03
TScaleDOMP2PreScr: 2.000e+00
TScaleMKNMP2PreScr:1.000e+01
TScalePNOMP2PreScr:1.000e+00
PAO overlap thresh 1.000e-08
Using PNOs for Singles Fock computation
Use new domains
Use fully linear algorithm
TCutTNO:           1.000e-09
TCutMP2Pairs:      1.000e-06
TCutDOStrong:      2.000e-03
TCutMKNStrong:     1.000e-02
TCutMKNWeak:       1.000e-01
TCutDOWeak:        4.000e-03
NTCutTNO:          1

--------------------------
Mulliken population of the LMOs            ... ok
Performing proximity check                 ... No problems found
Calculating differential overlap integrals ... ok

--------------------------
ELECTRON PAIR PRESCREENING
--------------------------

Dipole-based pair screening          .... used

   TCutDOij = 1.000000e-05
   TCutPre  = 1.000000e-07
   .... Finished loop over pairs
Total time spent in the prescreening                  ...     0.000 sec
sum of pair energies estimated for screened out pairs ...       0.000000000000 Eh
Thresholds for map construction and integral transformation for crude MP2:
   TCutMKN                    ...     1.0e-02
   TCutDO                     ...     1.0e-02
   TCutPairs                  ...     1.0e-05
   TCutPNO_CrudeMP2           ...     1.0e-07
   TCutPNOSingles_CrudeMP2    ...     3.0e-09
--------------------------------
LOCAL RI TRANSFORMATION (IAVPAO)
--------------------------------

Orbital window:       9 to 24
Number of PAOs:     303
Basis functions:    303 (99 shells)
Aux. functions:     709 (191 shells)
Use SHARK:           on

Processing maps (0.0 sec)
Average map sizes:
   Aux shells -> MOs              16.0
   Aux shells -> PAOs            303.0
   MOs        -> AO shells        99.0
   PAOs       -> AO shells        99.0

Calculating integrals (3.9 sec, 26.232 MB)
Sorting integrals (0.1 sec, 26.224 MB)
Total time for the integral transformation: 4.0 sec
--------------------------------
INITIAL GUESS AND PNO GENERATION
--------------------------------

PNO truncation parameters                   .... 
    PAOOverlapThresh   =        1.000e-08

    TCutPairs          =        1.000e-05
    TCutPNO            =        1.000e-07
    TCutPNOSingles     =        3.000e-09
    TCutMP2Pairs       =        1.000e-06
    TCutMKN            =        1.000e-02
    TCutDO             =        1.000e-02

Pair selection                          .... not used
Type of local MP2 treatment                 .... semi-local MP2
Strategy for PNO selection                  .... occupation number selection
Pair density normalization                  .... MP2 norm
Spin component scaling                      .... not used

   .... Finished loop over pairs
Making pair pair interaction lists          ... done

                       ===========================
                        136 OF  136 PAIRS ARE KEPT CCSD PAIRS
                          0 OF  136 PAIRS ARE KEPT MP2 PAIRS FOR (T)
                          0 OF  136 PAIRS ARE SKIPPED
                       ===========================

Total time spent in the initial guess                 ...    14.632 sec
SL-MP2 correlation energy (all non-screened pairs)    ...      -1.067566082957 Eh

Initial PNO correlation energy                        ...      -1.066562433742 Eh
sum of pair energies prescreened and skipped MP2 pairs...       0.000000000000 Eh
sum of pair energies of crude MP2 skipped pairs only  ...       0.000000000000 Eh
sum of MP2 pair energies for pairs that were not kept ...       0.000000000000 Eh
sum of PNO error estimates for the kept pairs         ...      -0.001003649215 Eh
                                                          --------------------
sum of all corrections                                         -0.001003649215
Initial total correlation energy                               -1.067566082957
Thresholds for map construction and integral transformation for fine MP2 and CCSD(T) calculation:
   TCutMKN   ...     1.0e-03
   TCutDO    ...     5.0e-03
   TCutPairs ...     1.0e-05
   TCutCMO   ...     1.0e-03
   TCutCPAO  ...     1.0e-03

Thresholds for map construction and integral transformation for strong Triples:
   TCutMKN   ...     1.0e-02
   TCutDO    ...     1.0e-02
   TCutCMO   ...     1.0e-03
   TCutCPAO  ...     1.0e-03

Thresholds for map construction and integral transformation for weak Triples:
   TCutMKN   ...     1.0e-01
   TCutDO    ...     2.0e-02
   TCutCMO   ...     1.0e-03
   TCutCPAO  ...     1.0e-03

--------------------------------
LOCAL RI TRANSFORMATION (IAVPAO)
--------------------------------

Orbital window:       9 to 24
Number of PAOs:     303
Basis functions:    303 (99 shells)
Aux. functions:     709 (191 shells)
Use SHARK:           on

Processing maps (0.0 sec)
Average map sizes:
   Aux shells -> MOs              16.0
   Aux shells -> PAOs            303.0
   MOs        -> AO shells        99.0
   PAOs       -> AO shells        99.0

Calculating integrals (3.9 sec, 26.232 MB)
Sorting integrals (0.1 sec, 26.224 MB)
Total time for the integral transformation: 4.1 sec
--------------------------------
INITIAL GUESS AND PNO GENERATION
--------------------------------

PNO truncation parameters                   .... 
    ScaleTCutPNO       =        1.000e-02
    PAOOverlapThresh   =        1.000e-08

    TCutPairs          =        1.000e-05
    TCutPNO            =        1.000e-07
    TCutPNOSingles     =        3.000e-09
    TCutMP2Pairs       =        1.000e-06
    TCutMKN            =        1.000e-03
    TCutDO             =        5.000e-03

Pair selection                          .... not used
Type of local MP2 treatment                 .... full local PMP2
Strategy for PNO selection                  .... occupation number selection
Pair density normalization                  .... MP2 norm
Spin component scaling                      .... not used

PASS-1: Formation of initial guess LMP2 amplitudes
Initial amplitudes guess done. Entering LMP2 iteration loop:
   Max. no of iterations          ...  50
   Energy convergence tolerance   ...    1.0e-07
   Residual convergence tolerance ...    5.0e-07
   Fock matrix cutoff             ...    1.0e-05 Eh
   DIIS convergence acceleration parameters:
        Max # vectors in DIIS     ... 7
        Start iteration of DIIS   ... 0
        Levelshift                ... 2.000e-01
        Damping factor 1          ... 5.000e-01
        Damping factor 2          ... 1.000e+00
   L-MP2 PNO cut-off              ...   1.0e-09
   L-MP2 PNO cut-off (core)       ...   1.0e-11
                           *** Turning on DIIS ***
LMP2-Iter=   0:  ELMP2= -1.097416784756  DE=   3.0e-02 RMAX=   7.5e-03
LMP2-Iter=   1:  ELMP2= -1.110833802217  DE=   1.3e-02 RMAX=   4.6e-03
LMP2-Iter=   2:  ELMP2= -1.113250625116  DE=   2.4e-03 RMAX=   1.1e-03
LMP2-Iter=   3:  ELMP2= -1.113581343049  DE=   3.3e-04 RMAX=   3.7e-04
LMP2-Iter=   4:  ELMP2= -1.113603474535  DE=   2.2e-05 RMAX=   6.9e-05
LMP2-Iter=   5:  ELMP2= -1.113600627478  DE=   2.8e-06 RMAX=   1.7e-05
LMP2-Iter=   6:  ELMP2= -1.113599996658  DE=   6.3e-07 RMAX=   2.9e-06
LMP2-Iter=   7:  ELMP2= -1.113599945333  DE=   5.1e-08 RMAX=   6.6e-07
LMP2-Iter=   8:  ELMP2= -1.113599957018  DE=   1.2e-08 RMAX=   1.3e-07
LMP2-Iter=   9:  ELMP2= -1.113599957178  DE=   1.6e-10 RMAX=   2.7e-08 => CONVERGED
PASS-2: Formation of Pair natural orbitals
   .... Finished loop over pairs

 PNO Occupation Number Statistics: 
  | Av. % of trace(Dij) retained        ...  99.732077609391
  | sigma^2 in % of trace(Dij) retained ...   6.16e-02
  | Av. % of trace(Di) retained         ...  99.999662039782
  | sigma^2 in % of trace(Di) retained  ...   4.96e-09
 Distributions of % trace(Dij) recovered:
  |       >= 99.9  ...    48 ( 35.3 % of all pairs)
  |   [99.0, 99.9) ...    88 ( 64.7 % of all pairs)
 Distributions of % trace(Di) recovered :
  |       >= 99.9  ...    16 (100.0 % of all I-pairs )

Making pair pair interaction lists          ... done

                       ===========================
                        136 OF  136 PAIRS ARE KEPT
                       ===========================

Total time spent in the initial guess                 ...    84.528 sec
L-MP2 correlation energy (all non-screened pairs)     ...      -1.113599957178 Eh
L-MP2 PNO error correction                            ...      -0.000017651955 Eh
                                                          --------------------
Initial total L-MP2 energy (non-screened pairs)       ...      -1.113617609133 Eh

Initial PNO correlation energy                        ...      -1.112649159531 Eh
sum of pair energies estimated for screened out pairs ...       0.000000000000 Eh
sum of MP2 pair energies for pairs that were not kept ...       0.000000000000 Eh
sum of PNO error estimates for the kept pairs         ...      -0.000968449602 Eh
                                                          --------------------
sum of all corrections                                         -0.000968449602
Initial total correlation energy                               -1.113617609133
Thresholds for map construction and integral transformation for fine MP2 and CCSD(T) calculation:
   TCutMKN   ...     1.0e-03
   TCutDO    ...     5.0e-03
   TCutPairs ...     1.0e-05
   TCutCMO   ...     1.0e-03
   TCutCPAO  ...     1.0e-03

Time for aux screen maps:            0.002
Time for maps after fine MP2:            0.021
-----------------------------
LOCAL RI TRANSFORMATION (IJV)
-----------------------------

Orbital window:       9 to 24
Basis functions:    303 (99 shells)
Aux. functions:     709 (191 shells)
Use SHARK:           on

Processing maps (0.0 sec)
Average map sizes:
   Aux shells -> MOs(i)           16.0
   Aux shells -> MOs(j)           16.0
   MOs        -> AO shells        99.0

Calculating integrals (3.7 sec, 1.393 MB)
Sorting integrals (0.0 sec, 1.385 MB)
Total time for the integral transformation: 3.7 sec
--------------------------------
LOCAL RI TRANSFORMATION (VABPAO)
--------------------------------

Number of PAOs:     303
Basis functions:    303 (99 shells)
Aux. functions:     709 (191 shells)
Use SHARK:           on

Processing maps (0.0 sec)
Average map sizes:
   Aux shells -> PAOs            303.0
   PAOs       -> AO shells        99.0

Calculating integrals (8.0 sec, 496.625 MB)
Finished


-------------------------------------
Pair Pair Term precalculation with     
RI-(ij|mn) and (im|jn) transformation  
ON THE FLY                             
-------------------------------------

   IBatch   1 (of   1)              ... done (  588.108 sec)
Total EXT                           ...         588.133 sec

---------------------
RI-PNO TRANSFORMATION
---------------------

Total Number of PNOs                   ...  6433
Average number of PNOs per pair        ...    47
Maximal number of PNOs per pair        ...    74
   #pairs with  1 -  5 PNOs   :    0
   #pairs with  6 - 10 PNOs   :    0
   #pairs with 11 - 15 PNOs   :    0
   #pairs with 16 - 20 PNOs   :    2
   #pairs with 21 - 25 PNOs   :    2
   #pairs with 26 - 30 PNOs   :   10
   #pairs with 31 - 35 PNOs   :   14
   #pairs with 36 - 40 PNOs   :   16
   #pairs with 41 - 45 PNOs   :   20
   #pairs with 46 - 50 PNOs   :   13
   #pairs with 51 - 55 PNOs   :   22
   #pairs with 56 - 60 PNOs   :   10
   #pairs with 61 - 65 PNOs   :   18
   #pairs with 66 - 70 PNOs   :    3
   #pairs with 71 - 75 PNOs   :    6

Generation of (ij|ab)[P] integrals            ... on
Generation of (ia|bc)[P],(ja|bc)[P] integrals ... on
Storage of 3 and 4 external integrals         ... on
Generation of ALL (ka|bc)[P] integrals        ... on
Keep RI integrals in memory                   ... off

Ibatch:  1 (of  1)
Starting 2-4 index PNO integral generation ... done

Timings:
Total PNO integral transformation time     ...        163.103 sec
Size of the 3-external file                ...       136 MB
Size of the 4-external file                ...       983 MB
Size of the IKJL file                      ...         0 MB
Size of the all 3-external file            ...      1095 MB
Size of the 1-external file                ...         2 MB

Making pair/pair overlap matrices          ... done (   13.022 sec)
Size of the pair overlap file              ... 234 MB
Redoing the guess amplitudes               ... done (    0.003 sec)

-------------------------
FINAL STARTUP INFORMATION
-------------------------

E(0)                                       ...   -686.386009254
E(L-MP2)                                   ...     -1.113617609
E(L-MP2) including corrections             ...     -1.113617609
Initial E(tot)                             ...   -687.499626863
<T|T>                                      ...      0.248389328
Number of pairs included                   ... 136
Total number of pairs                      ... 136

------------------------------------------------
                  RHF COUPLED CLUSTER ITERATIONS
------------------------------------------------

Number of PNO amplitudes to be optimized   ...       327001
Number of non-PNO amplitudes               ...     10510624
Untruncated number of regular amplitudes   ...     10510624

Iter       E(tot)           E(Corr)          Delta-E          Residual     Time
  0   -687.453518080     -1.066540377      0.047077233      0.025678096   92.63
                           *** Turning on DIIS ***
  1   -687.473872532     -1.086894828     -0.020354452      0.008887806   93.55
  2   -687.498618117     -1.111640413     -0.024745585      0.003777344   95.91
  3   -687.503959778     -1.116982074     -0.005341661      0.001954172   96.73
  4   -687.505788897     -1.118811193     -0.001829119      0.000846285   96.09
  5   -687.506411323     -1.119433620     -0.000622427      0.000331056   90.10
  6   -687.506499721     -1.119522017     -0.000088397      0.000113505   90.13
  7   -687.506520591     -1.119542887     -0.000020871      0.000055912   86.74
  8   -687.506528515     -1.119550811     -0.000007924      0.000020820   83.76
  9   -687.506522143     -1.119544439      0.000006372      0.000007466   85.17
               --- The Coupled-Cluster iterations have converged ---

----------------------
COUPLED CLUSTER ENERGY
----------------------

E(0)                                       ...   -686.386009254
E(CORR)(strong-pairs)                      ...     -1.119544439
E(CORR)(weak-pairs)                        ...     -0.000968450
E(CORR)(corrected)                         ...     -1.120512889
E(TOT)                                     ...   -687.506522143
Singles Norm <S|S>**1/2                    ...      0.087298486  
T1 diagnostic                              ...      0.015432338  

------------------
LARGEST AMPLITUDES
------------------
  16-> 25  16-> 25       0.041295
  18-> 25  18-> 25       0.040531
  21-> 25  21-> 25       0.038724
  17-> 25  17-> 25       0.038064
  22-> 25  22-> 25       0.032891
  24-> 25  24-> 25       0.032635
  20-> 25  20-> 25       0.032616
  23-> 25  23-> 25       0.032613
  14-> 25  14-> 25       0.027404
  16-> 27  16-> 27       0.027139
  23-> 34  23-> 34       0.026007
  13-> 25  13-> 25       0.025769
  23-> 25  23-> 34       0.025512
  23-> 34  23-> 25       0.025512
  14-> 26  -1-> -1       0.025270
  19-> 25  19-> 25       0.024721


-------------------------------------------
DLPNO BASED TRIPLES CORRECTION
-------------------------------------------

Singles multiplier          ...  1.000000
TCutTNO                     ... 1.000e-09
TCutMP2Pairs                ... 1.000e-06
TCutDOStrong                ... 1.000e-02
TCutMKNStrong               ... 1.000e-02
TCutDOWeak                  ... 2.000e-02
TCutMKNWeak                 ... 1.000e-01

Fragment selection                          .... not used
Number of Triples that are to be computed   ...       800

 . . . . . . . . .
10% done  
20% done  
30% done  
40% done  
50% done  
60% done  
70% done  
80% done  
90% done               (   1286.885 sec)
Triples timings:
Total time for T0               ...  1348.158 sec
Total time for Iterative (T)    ...     0.000 sec
Total time of overall (T)       ...  1382.329 sec

Triples List generation         ...     0.000 sec
TNO generation                  ...    61.263 sec
Pair density generation         ...     0.006 sec
Look up tables                  ...     0.000 sec
Generating 3-index integrals    ...   831.627 sec
  Make 4-ind.int. from 3-ind.int...   180.713 sec
  Projecting amplitudes (D + S) ...    63.902 sec
  Downprojecting integrals      ...     0.019 sec
  Energy contr. (sum over a,b,c)...    64.660 sec
Fitting ET(->0)                 ...     0.000 sec

Everything after 3-index        ...   455.257 sec

Timing details:
 TNO integrals                  ...  1001.067 sec
   Reading 3-index integrals    ...     0.523 sec
   Sorting integrals            ...   118.629 sec
       Sorting integrals 1      ...     0.015 sec
       Sorting integrals 2      ...    65.722 sec
       Sorting integrals 3      ...     5.365 sec
       Sorting integrals 4      ...     0.172 sec
       Sorting integrals 5      ...     0.852 sec
       Sorting integrals 6      ...    46.503 sec
   Calculating local VM**-1/2   ...     8.289 sec
   Orthogonal. integrals        ...    13.157 sec
   Multipl. 3-index integrals   ...   860.469 sec
   All concerning IRIab (w/TNO) ...   108.610 sec

 Calculate W0/W1                ...   145.785 sec
 W 3-ext contribution           ...    84.432 sec
 W 3-int contribution           ...    15.524 sec
 Sorting W                      ...    44.570 sec

 V exchange contribution        ...    28.942 sec

 Timings for Triples without generation
     of 3-index integrals       ...   455.246 sec
       0 weak pairs             ...   455.246 sec
       1 weak pair              ...     0.000 sec
       2 weak pairs             ...     0.000 sec
       3 weak pairs             ...     0.000 sec
  Extra time for extrapolation  ...     0.000 sec

Number of Triples   (0, 1, 2, 3 weak pairs; overall):    800       0       0       0  (   800)
Number of Atoms     (0, 1, 2, 3 weak pairs; overall):    8.0     0.0     0.0     0.0  (     8)
Number of PAOs      (0, 1, 2, 3 weak pairs; overall):  303.0     0.0     0.0     0.0  (   303)
Number of AuxFcns   (0, 1, 2, 3 weak pairs; overall):  508.3     0.0     0.0     0.0  (   709)
Number of TNOs      (0, 1, 2, 3 weak pairs         ):  107.7     0.0     0.0     0.0
Aver. Number of NTNO, Atoms, PAOs, AuxFcns / Triples:    800   107.7     8.0   303.0   508.3

Triples Correction (T)                     ...     -0.045384934
Final correlation energy                   ...     -1.165897823
E(CCSD)                                    ...   -687.506522143
E(CCSD(T))                                 ...   -687.551907078



------------------------------------------------------------------------------- 
                                     TIMINGS                                   
------------------------------------------------------------------------------- 


Total execution time                   ...     3229.517 sec

Localization of occupied MO's          ...        1.549 sec (  0.0%)
Fock Matrix Formation                  ...       27.994 sec (  0.9%)
Global overlap, Fock, MKN matrices     ...        1.258 sec (  0.0%)
Differential overlap integrals         ...        2.379 sec (  0.1%)
Organizing maps                        ...        0.050 sec (  0.0%)
RI 3-index integral generations        ...       19.865 sec (  0.6%)
RI-PNO integral transformation         ...      781.497 sec ( 24.2%)
Initial Guess                          ...       99.718 sec (  3.1%)
DIIS Solver                            ...        4.420 sec (  0.1%)
State Vector Update                    ...        0.046 sec (  0.0%)
Sigma-vector construction              ...      910.144 sec ( 28.2%)
  <0|H|D>                              ...        0.003 sec (  0.0% of sigma)
  <D|H|D>(0-ext)                       ...       24.107 sec (  2.6% of sigma)
  <D|H|D>(2-ext Fock)                  ...        0.111 sec (  0.0% of sigma)
  <D|H|D>(2-ext)                       ...       97.739 sec ( 10.7% of sigma)
  <D|H|D>(4-ext)                       ...      110.357 sec ( 12.1% of sigma)
  <D|H|D>(4-ext-corr)                  ...      549.852 sec ( 60.4% of sigma)
  CCSD doubles correction              ...        1.690 sec (  0.2% of sigma)
  <S|H|S>                              ...        3.654 sec (  0.4% of sigma)
  <S|H|D>(1-ext)                       ...        2.595 sec (  0.3% of sigma)
  <D|H|S>(1-ext)                       ...        0.087 sec (  0.0% of sigma)
  <S|H|D>(3-ext)                       ...        3.618 sec (  0.4% of sigma)
  CCSD singles correction              ...        0.001 sec (  0.0% of sigma)
  Fock-dressing                        ...       79.322 sec (  8.7% of sigma)
  Singles amplitudes                   ...        0.754 sec (  0.1% of sigma)
  (ik|jl)-dressing                     ...       18.085 sec (  2.0% of sigma)
  (ij|ab),(ia|jb)-dressing             ...       15.795 sec (  1.7% of sigma)
  Pair energies                        ...        0.125 sec (  0.0% of sigma)
Total Time for computing (T)           ...     1382.601 sec ( 42.8% of ALL)


Maximum memory used throughout the entire MDCI-calculation: 25370.7 MB

-------------------------   --------------------
FINAL SINGLE POINT ENERGY      -687.551907077535
-------------------------   --------------------


                            ***************************************
                            *     ORCA property calculations      *
                            ***************************************


  WARNING: The energy has been calculated at the MDCI level but the densities
           used in the property calculations are still SCF densities
           MDCI response densities have not been calculated 
           use %mdci Density linearized end
           or  %mdci Density unrelaxed end
           or  %mdci Density orbopt end

                                    ---------------------
                                    Active property flags
                                    ---------------------
   (+) Dipole Moment


------------------------------------------------------------------------------
                       ORCA ELECTRIC PROPERTIES CALCULATION
------------------------------------------------------------------------------

Dipole Moment Calculation                       ... on
Quadrupole Moment Calculation                   ... off
Polarizability Calculation                      ... off
GBWName                                         ... C1_wt_dlpno_neg.gbw
Electron density file                           ... C1_wt_dlpno_neg.scfp
The origin for moment calculation is the CENTER OF MASS  = ( 5.817933, -2.180425 -12.100347)

-------------
DIPOLE MOMENT
-------------
                                X             Y             Z
Electronic contribution:      0.71647       5.13505      -0.84582
Nuclear contribution   :      0.51040      -6.36905       0.21167
                        -----------------------------------------
Total Dipole Moment    :      1.22687      -1.23400      -0.63415
                        -----------------------------------------
Magnitude (a.u.)       :      1.85205
Magnitude (Debye)      :      4.70754



--------------------
Rotational spectrum 
--------------------
 
Rotational constants in cm-1:     0.163860     0.154073     0.147119 
Rotational constants in MHz :  4912.396151  4618.979177  4410.507958 

 Dipole components along the rotational axes: 
x,y,z [a.u.] :    -1.202703    -1.404685    -0.102273 
x,y,z [Debye]:    -3.057029    -3.570425    -0.259958 

 

Timings for individual modules:

Sum of individual times         ...     3416.671 sec (=  56.945 min)
GTO integral calculation        ...        1.599 sec (=   0.027 min)   0.0 %
SCF iterations                  ...      184.526 sec (=   3.075 min)   5.4 %
MDCI module                     ...     3230.546 sec (=  53.842 min)  94.6 %
                             ****ORCA TERMINATED NORMALLY****
TOTAL RUN TIME: 0 days 0 hours 56 minutes 57 seconds 276 msec
