
                                        *****************
                                        * O   R   C   A *
                                        *****************

                                            #,                                       
                                            ###                                      
                                            ####                                     
                                            #####                                    
                                            ######                                   
                                           ########,                                 
                                     ,,################,,,,,                         
                               ,,#################################,,                 
                          ,,##########################################,,             
                       ,#########################################, ''#####,          
                    ,#############################################,,   '####,        
                  ,##################################################,,,,####,       
                ,###########''''           ''''###############################       
              ,#####''   ,,,,##########,,,,          '''####'''          '####       
            ,##' ,,,,###########################,,,                        '##       
           ' ,,###''''                  '''############,,,                           
         ,,##''                                '''############,,,,        ,,,,,,###''
      ,#''                                            '''#######################'''  
     '                                                          ''''####''''         
             ,#######,   #######,   ,#######,      ##                                
            ,#'     '#,  ##    ##  ,#'     '#,    #''#        ######   ,####,        
            ##       ##  ##   ,#'  ##            #'  '#       #        #'  '#        
            ##       ##  #######   ##           ,######,      #####,   #    #        
            '#,     ,#'  ##    ##  '#,     ,#' ,#      #,         ##   #,  ,#        
             '#######'   ##     ##  '#######'  #'      '#     #####' # '####'        



                  #######################################################
                  #                        -***-                        #
                  #          Department of theory and spectroscopy      #
                  #    Directorship and core code : Frank Neese         #
                  #        Max Planck Institute fuer Kohlenforschung    #
                  #                Kaiser Wilhelm Platz 1               #
                  #                 D-45470 Muelheim/Ruhr               #
                  #                      Germany                        #
                  #                                                     #
                  #                  All rights reserved                #
                  #                        -***-                        #
                  #######################################################


                         Program Version 5.0.0 -  RELEASE  -
                                (SVN: $Rev: 19529$)
                ($Date: 2021-06-28 11:36:33 +0200 (Mo, 28 Jun 2021) $)


 With contributions from (in alphabetic order):
   Daniel Aravena         : Magnetic Suceptibility
   Michael Atanasov       : Ab Initio Ligand Field Theory (pilot matlab implementation)
   Alexander A. Auer      : GIAO ZORA, VPT2 properties, NMR spectrum
   Ute Becker             : Parallelization
   Giovanni Bistoni       : ED, misc. LED, open-shell LED, HFLD
   Martin Brehm           : Molecular dynamics
   Dmytro Bykov           : SCF Hessian
   Vijay G. Chilkuri      : MRCI spin determinant printing, contributions to CSF-ICE
   Dipayan Datta          : RHF DLPNO-CCSD density
   Achintya Kumar Dutta   : EOM-CC, STEOM-CC
   Dmitry Ganyushin       : Spin-Orbit,Spin-Spin,Magnetic field MRCI
   Miquel Garcia          : C-PCM Hessian, Gaussian charge scheme
   Yang Guo               : DLPNO-NEVPT2, F12-NEVPT2, CIM, IAO-localization
   Andreas Hansen         : Spin unrestricted coupled pair/coupled cluster methods
   Benjamin Helmich-Paris : MC-RPA, TRAH-SCF, COSX integrals
   Lee Huntington         : MR-EOM, pCC
   Robert Izsak           : Overlap fitted RIJCOSX, COSX-SCS-MP3, EOM
   Marcus Kettner         : VPT2
   Christian Kollmar      : KDIIS, OOCD, Brueckner-CCSD(T), CCSD density, CASPT2, CASPT2-K
   Simone Kossmann        : Meta GGA functionals, TD-DFT gradient, OOMP2, MP2 Hessian
   Martin Krupicka        : Initial AUTO-CI
   Lucas Lang             : DCDCAS
   Marvin Lechner         : AUTO-CI (C++ implementation), FIC-MRCC
   Dagmar Lenk            : GEPOL surface, SMD
   Dimitrios Liakos       : Extrapolation schemes; Compound Job, initial MDCI parallelization
   Dimitrios Manganas     : Further ROCIS development; embedding schemes
   Dimitrios Pantazis     : SARC Basis sets
   Anastasios Papadopoulos: AUTO-CI, single reference methods and gradients
   Taras Petrenko         : DFT Hessian,TD-DFT gradient, ASA, ECA, R-Raman, ABS, FL, XAS/XES, NRVS
   Peter Pinski           : DLPNO-MP2, DLPNO-MP2 Gradient
   Christoph Reimann      : Effective Core Potentials
   Marius Retegan         : Local ZFS, SOC
   Christoph Riplinger    : Optimizer, TS searches, QM/MM, DLPNO-CCSD(T), (RO)-DLPNO pert. Triples
   Tobias Risthaus        : Range-separated hybrids, TD-DFT gradient, RPA, STAB
   Michael Roemelt        : Original ROCIS implementation
   Masaaki Saitow         : Open-shell DLPNO-CCSD energy and density
   Barbara Sandhoefer     : DKH picture change effects
   Avijit Sen             : IP-ROCIS
   Kantharuban Sivalingam : CASSCF convergence, NEVPT2, FIC-MRCI
   Bernardo de Souza      : ESD, SOC TD-DFT
   Georgi Stoychev        : AutoAux, RI-MP2 NMR
   Willem Van den Heuvel  : Paramagnetic NMR
   Boris Wezisla          : Elementary symmetry handling
   Frank Wennmohs         : Technical directorship


 We gratefully acknowledge several colleagues who have allowed us to
 interface, adapt or use parts of their codes:
   Stefan Grimme, W. Hujo, H. Kruse, P. Pracht,  : VdW corrections, initial TS optimization,
                  C. Bannwarth, S. Ehlert          DFT functionals, gCP, sTDA/sTD-DF
   Ed Valeev, F. Pavosevic, A. Kumar             : LibInt (2-el integral package), F12 methods
   Garnet Chan, S. Sharma, J. Yang, R. Olivares  : DMRG
   Ulf Ekstrom                                   : XCFun DFT Library
   Mihaly Kallay                                 : mrcc  (arbitrary order and MRCC methods)
   Jiri Pittner, Ondrej Demel                    : Mk-CCSD
   Frank Weinhold                                : gennbo (NPA and NBO analysis)
   Christopher J. Cramer and Donald G. Truhlar   : smd solvation model
   Lars Goerigk                                  : TD-DFT with DH, B97 family of functionals
   V. Asgeirsson, H. Jonsson                     : NEB implementation
   FAccTs GmbH                                   : IRC, NEB, NEB-TS, DLPNO-Multilevel, CI-OPT
                                                   MM, QMMM, 2- and 3-layer-ONIOM, Crystal-QMMM,
                                                   LR-CPCM, SF, NACMEs, symmetry and pop. for TD-DFT,
                                                   nearIR, NL-DFT gradient (VV10), updates on ESD,
                                                   ML-optimized integration grids
   S Lehtola, MJT Oliveira, MAL Marques          : LibXC Library
   Liviu Ungur et al                             : ANISO software


 Your calculation uses the libint2 library for the computation of 2-el integrals
 For citations please refer to: http://libint.valeyev.net

 Your ORCA version has been built with support for libXC version: 5.1.0
 For citations please refer to: https://tddft.org/programs/libxc/

 This ORCA versions uses:
   CBLAS   interface :  Fast vector & matrix operations
   LAPACKE interface :  Fast linear algebra routines
   SCALAPACK package :  Parallel linear algebra routines
   Shared memory     :  Shared parallel matrices
   BLAS/LAPACK       :  OpenBLAS 0.3.15  USE64BITINT DYNAMIC_ARCH NO_AFFINITY Haswell SINGLE_THREADED
        Core in use  :  Haswell
   Copyright (c) 2011-2014, The OpenBLAS Project




***************************************
The coordinates will be read from file: D9.xyz
***************************************


Your calculation utilizes the atom-pairwise dispersion correction
with the Becke-Johnson damping scheme (D3BJ)
Cite in your paper:
S.Grimme, S.Ehrlich, L.Goerigk, J Comput Chem, (2011), 32, 1456–1465 
S.Grimme, J.Antony, S.Ehrlich and H.Krieg, J.Chem.Phys., 132, (2010), 154104 
   

================================================================================

----- Orbital basis set information -----
Your calculation utilizes the basis: def2-SVPD
   F. Weigend and R. Ahlrichs, Phys. Chem. Chem. Phys. 7, 3297 (2005).
   D. Rappoport and F. Furche, J. Chem. Phys. 133 134105 (2010).

----- AuxJ basis set information -----
Your calculation utilizes the auxiliary basis: def2/J
   F. Weigend, Phys. Chem. Chem. Phys. 8, 1057 (2006).

================================================================================
                                        WARNINGS
                       Please study these warnings very carefully!
================================================================================



WARNING: Found flag for RIJCOSX approximation but no HF exchange needed!
  ===> : RIJCOSX  will be disabled and Split-RI-J is turned on

INFO   : the flag for use of the SHARK integral package has been found!

================================================================================
                                       INPUT FILE
================================================================================
NAME = 28Oct_SVPD_PBE_D9_wb97.com
|  1> !PBE D3BJ RIJCOSX def2-SVPD def2/J TightSCF xyzfile                                                                                         
|  2> 
|  3> *xyzfile 0 1 D9.xyz
|  4> 
|  5> %MaxCore 64000
|  6> 
|  7> %pal nprocs 4
|  8> end  
|  9> 
| 10> %scf
| 11>   MaxIter 150
| 12> end
| 13> 
| 14> 
| 15>                          ****END OF INPUT****
================================================================================

                       ****************************
                       * Single Point Calculation *
                       ****************************

---------------------------------
CARTESIAN COORDINATES (ANGSTROEM)
---------------------------------
  C      4.490588    1.155899   -2.469290
  N      4.305394    1.222762   -3.908317
  C      4.906458   -3.102816   -5.954844
  C      3.511771   -2.806215   -6.492283
  H      2.736044   -3.373445   -5.973736
  H      3.444904   -3.040831   -7.555281
  S      3.004618   -1.096206   -6.389259
  C      4.631918    2.246365   -4.670958
  N      4.541686    2.143990   -5.987139
  C      5.084086    3.393584   -4.118545
  H      4.920675    3.570501   -3.135870
  H      5.254652    4.197390   -4.706956
  H      3.824530    0.449113   -4.350926
  H      4.343373    1.249318   -6.416646
  H      4.676712    2.956624   -6.574113
  O      4.128856   -0.329647   -6.953717
  O      1.781285   -1.000779   -7.136399
  C      5.942129    0.939500   -2.036893
  H      3.864305    0.328532   -2.136611
  H      4.076233    2.049994   -1.989010
  C      6.462677   -3.117775   -3.944671
  C      5.024977   -3.025679   -4.437625
  H      4.423321   -3.818693   -3.977648
  H      4.579350   -2.087131   -4.108727
  H      5.201533   -4.100207   -6.296905
  H      5.605922   -2.397822   -6.413368
  C      6.559957   -0.356290   -2.559086
  H      5.967976    0.952567   -0.942444
  H      6.547184    1.788331   -2.368849
  C      6.006283   -1.615917   -1.899301
  H      7.642360   -0.318000   -2.402059
  H      6.414855   -0.403433   -3.642587
  C      6.608718   -2.917014   -2.435655
  H      6.190324   -1.561115   -0.820948
  H      4.919250   -1.651245   -2.016586
  H      7.066975   -2.374258   -4.475514
  H      6.887808   -4.089747   -4.215332
  H      6.135197   -3.755573   -1.915159
  H      7.671142   -2.955503   -2.172291
  F      2.851546   -0.783683   -4.956789

----------------------------
CARTESIAN COORDINATES (A.U.)
----------------------------
  NO LB      ZA    FRAG     MASS         X           Y           Z
   0 C     6.0000    0    12.011    8.485982    2.184332   -4.666282
   1 N     7.0000    0    14.007    8.136015    2.310685   -7.385649
   2 C     6.0000    0    12.011    9.271862   -5.863473  -11.253025
   3 C     6.0000    0    12.011    6.636285   -5.302977  -12.268638
   4 H     1.0000    0     1.008    5.170374   -6.374888  -11.288724
   5 H     1.0000    0     1.008    6.509926   -5.746338  -14.277412
   6 S    16.0000    0    32.060    5.677904   -2.071530  -12.073950
   7 C     6.0000    0    12.011    8.753057    4.245015   -8.826831
   8 N     7.0000    0    14.007    8.582543    4.051553  -11.314052
   9 C     6.0000    0    12.011    9.607530    6.412945   -7.782923
  10 H     1.0000    0     1.008    9.298728    6.747268   -5.925936
  11 H     1.0000    0     1.008    9.929852    7.931917   -8.894858
  12 H     1.0000    0     1.008    7.227314    0.848701   -8.222058
  13 H     1.0000    0     1.008    8.207786    2.360868  -12.125704
  14 H     1.0000    0     1.008    8.837705    5.587209  -12.423274
  15 O     8.0000    0    15.999    7.802408   -0.622942  -13.140621
  16 O     8.0000    0    15.999    3.366140   -1.891199  -13.485840
  17 C     6.0000    0    12.011   11.228997    1.775397   -3.849170
  18 H     1.0000    0     1.008    7.302479    0.620836   -4.037610
  19 H     1.0000    0     1.008    7.702964    3.873927   -3.758685
  20 C     6.0000    0    12.011   12.212689   -5.891741   -7.454347
  21 C     6.0000    0    12.011    9.495831   -5.717705   -8.385896
  22 H     1.0000    0     1.008    8.358866   -7.216284   -7.516666
  23 H     1.0000    0     1.008    8.653718   -3.944106   -7.764369
  24 H     1.0000    0     1.008    9.829473   -7.748269  -11.899427
  25 H     1.0000    0     1.008   10.593657   -4.531226  -12.119509
  26 C     6.0000    0    12.011   12.396522   -0.673291   -4.835971
  27 H     1.0000    0     1.008   11.277840    1.800090   -1.780961
  28 H     1.0000    0     1.008   12.372385    3.379455   -4.476477
  29 C     6.0000    0    12.011   11.350230   -3.053641   -3.589158
  30 H     1.0000    0     1.008   14.441966   -0.600934   -4.539234
  31 H     1.0000    0     1.008   12.122318   -0.762378   -6.883492
  32 C     6.0000    0    12.011   12.488666   -5.512358   -4.602721
  33 H     1.0000    0     1.008   11.698016   -2.950080   -1.551366
  34 H     1.0000    0     1.008    9.296035   -3.120400   -3.810796
  35 H     1.0000    0     1.008   13.354648   -4.486697   -8.457496
  36 H     1.0000    0     1.008   13.016070   -7.728501   -7.965822
  37 H     1.0000    0     1.008   11.593841   -7.097005   -3.619127
  38 H     1.0000    0     1.008   14.496357   -5.585092   -4.105035
  39 F     9.0000    0    18.998    5.388641   -1.480946   -9.366974

--------------------------------
INTERNAL COORDINATES (ANGSTROEM)
--------------------------------
 C      0   0   0     0.000000000000     0.00000000     0.00000000
 N      1   0   0     1.452434888732     0.00000000     0.00000000
 C      2   1   0     4.822880648060   111.29935464     0.00000000
 C      3   2   1     1.523799819616    82.01111056   124.72570022
 H      4   3   2     1.091968299252   112.43309611   255.51929182
 H      4   3   2     1.090632873150   110.97759244   134.54655122
 S      4   3   2     1.786602224664   115.19977359    16.50892478
 C      2   1   3     1.317574833962   125.28497018   214.05519914
 N      8   2   1     1.323236350905   119.91604121   173.18858040
 C      8   2   1     1.351194480527   120.39094198   354.48825376
 H     10   8   2     1.011757151303   119.43893893   342.13916756
 H     10   8   2     1.010654769343   119.58539038   185.29571941
 H      2   1   3     1.012750840265   117.28239304    38.84614007
 H      9   8   2     1.012048706728   120.25757225   351.78674532
 H      9   8   2     1.011506480060   120.39405507   172.23609159
 O      7   4   3     1.473139212620   105.02973514    49.07238667
 O      7   4   3     1.436617023222   105.98041552   170.73821441
 C      1   2   3     1.529956533456   114.04751046    71.27147181
 H      1   2   3     1.089697165343   105.31628314   309.84494500
 H      1   2   3     1.096250554262   110.38499465   196.36075284
 C      3   2   1     2.542211031985    75.28786529   328.63877310
 C     21   3   2     1.522650424266    33.45203408    62.46988994
 H     22  21   3     1.096558425421   109.78678321   123.00138599
 H     22  21   3     1.089784085482   109.90626334   238.94967961
 H      3   2   1     1.094926392967   169.46526939   316.66150389
 H      3   2   1     1.093851646948    71.30795148   237.06279558
 C     18   1   2     1.527569327213   114.02213033   299.75436756
 H     18   1   2     1.094832037269   107.65179087   177.40351951
 H     18   1   2     1.093983651653   109.22173402    62.36298160
 C     27  18   1     1.525952470352   113.93276277   288.90034571
 H     27  18   1     1.094403426518   108.74093275   167.10616769
 H     27  18   1     1.094190161747   108.74874272    52.17399198
 C     21   3   2     1.529300762752   146.92063230    53.80488115
 H     30  27  18     1.095317124906   108.86941482   300.75108730
 H     30  27  18     1.093912987644   109.92906200    56.35085961
 H     21   3   2     1.095348999413    87.16372703   291.04892433
 H     21   3   2     1.094861915024    92.71949470   185.57163885
 H     33  21   3     1.094677724411   109.10507473    72.09358689
 H     33  21   3     1.095256828209   108.98305469   187.60350442
 F      7   4   3     1.474133937430   106.76381078   292.33403201

---------------------------
INTERNAL COORDINATES (A.U.)
---------------------------
 C      0   0   0     0.000000000000     0.00000000     0.00000000
 N      1   0   0     2.744704167055     0.00000000     0.00000000
 C      2   1   0     9.113923601421   111.29935464     0.00000000
 C      3   2   1     2.879564341994    82.01111056   124.72570022
 H      4   3   2     2.063521032510   112.43309611   255.51929182
 H      4   3   2     2.060997442905   110.97759244   134.54655122
 S      4   3   2     3.376188914869   115.19977359    16.50892478
 C      2   1   3     2.489855597135   125.28497018   214.05519914
 N      8   2   1     2.500554313659   119.91604121   173.18858040
 C      8   2   1     2.553387521862   120.39094198   354.48825376
 H     10   8   2     1.911943930000   119.43893893   342.13916756
 H     10   8   2     1.909860730000   119.58539038   185.29571941
 H      2   1   3     1.913821729999   117.28239304    38.84614007
 H      9   8   2     1.912494889904   120.25757225   351.78674532
 H      9   8   2     1.911470230000   120.39405507   172.23609159
 O      7   4   3     2.783829668993   105.02973514    49.07238667
 O      7   4   3     2.714812733219   105.98041552   170.73821441
 C      1   2   3     2.891198845036   114.04751046    71.27147181
 H      1   2   3     2.059229211409   105.31628314   309.84494500
 H      1   2   3     2.071613321715   110.38499465   196.36075284
 C      3   2   1     4.804082625084    75.28786529   328.63877310
 C     21   3   2     2.877392299561    33.45203408    62.46988994
 H     22  21   3     2.072195113889   109.78678321   123.00138599
 H     22  21   3     2.059393466667   109.90626334   238.94967961
 H      3   2   1     2.069111019509   169.46526939   316.66150389
 H      3   2   1     2.067080043870    71.30795148   237.06279558
 C     18   1   2     2.886687679010   114.02213033   299.75436756
 H     18   1   2     2.068932713082   107.65179087   177.40351951
 H     18   1   2     2.067329496612   109.22173402    62.36298160
 C     27  18   1     2.883632262346   113.93276277   288.90034571
 H     27  18   1     2.068122756144   108.74093275   167.10616769
 H     27  18   1     2.067719744133   108.74874272    52.17399198
 C     21   3   2     2.889959617997   146.92063230    53.80488115
 H     30  27  18     2.069849395866   108.86941482   300.75108730
 H     30  27  18     2.067195960987   109.92906200    56.35085961
 H     21   3   2     2.069909629955    87.16372703   291.04892433
 H     21   3   2     2.068989173855    92.71949470   185.57163885
 H     33  21   3     2.068641104040   109.10507473    72.09358689
 H     33  21   3     2.069735451623   108.98305469   187.60350442
 F      7   4   3     2.785709426462   106.76381078   292.33403201

---------------------
BASIS SET INFORMATION
---------------------
There are 6 groups of distinct atoms

 Group   1 Type C   : 8s4p2d contracted to 4s2p2d pattern {5111/31/11}
 Group   2 Type N   : 8s4p2d contracted to 4s2p2d pattern {5111/31/11}
 Group   3 Type H   : 4s2p contracted to 2s2p pattern {31/11}
 Group   4 Type S   : 11s8p2d contracted to 5s4p2d pattern {53111/5111/11}
 Group   5 Type O   : 8s5p2d contracted to 4s3p2d pattern {5111/311/11}
 Group   6 Type F   : 8s5p2d contracted to 4s3p2d pattern {5111/311/11}

Atom   0C    basis set group =>   1
Atom   1N    basis set group =>   2
Atom   2C    basis set group =>   1
Atom   3C    basis set group =>   1
Atom   4H    basis set group =>   3
Atom   5H    basis set group =>   3
Atom   6S    basis set group =>   4
Atom   7C    basis set group =>   1
Atom   8N    basis set group =>   2
Atom   9C    basis set group =>   1
Atom  10H    basis set group =>   3
Atom  11H    basis set group =>   3
Atom  12H    basis set group =>   3
Atom  13H    basis set group =>   3
Atom  14H    basis set group =>   3
Atom  15O    basis set group =>   5
Atom  16O    basis set group =>   5
Atom  17C    basis set group =>   1
Atom  18H    basis set group =>   3
Atom  19H    basis set group =>   3
Atom  20C    basis set group =>   1
Atom  21C    basis set group =>   1
Atom  22H    basis set group =>   3
Atom  23H    basis set group =>   3
Atom  24H    basis set group =>   3
Atom  25H    basis set group =>   3
Atom  26C    basis set group =>   1
Atom  27H    basis set group =>   3
Atom  28H    basis set group =>   3
Atom  29C    basis set group =>   1
Atom  30H    basis set group =>   3
Atom  31H    basis set group =>   3
Atom  32C    basis set group =>   1
Atom  33H    basis set group =>   3
Atom  34H    basis set group =>   3
Atom  35H    basis set group =>   3
Atom  36H    basis set group =>   3
Atom  37H    basis set group =>   3
Atom  38H    basis set group =>   3
Atom  39F    basis set group =>   6
---------------------------------
AUXILIARY/J BASIS SET INFORMATION
---------------------------------
There are 6 groups of distinct atoms

 Group   1 Type C   : 12s5p4d2f1g contracted to 6s4p3d1f1g pattern {711111/2111/211/2/1}
 Group   2 Type N   : 12s5p4d2f1g contracted to 6s4p3d1f1g pattern {711111/2111/211/2/1}
 Group   3 Type H   : 5s2p1d contracted to 3s1p1d pattern {311/2/1}
 Group   4 Type S   : 14s5p5d2f1g contracted to 8s4p3d1f1g pattern {71111111/2111/311/2/1}
 Group   5 Type O   : 12s5p4d2f1g contracted to 6s4p3d1f1g pattern {711111/2111/211/2/1}
 Group   6 Type F   : 12s5p4d2f1g contracted to 6s4p3d1f1g pattern {711111/2111/211/2/1}

Atom   0C    basis set group =>   1
Atom   1N    basis set group =>   2
Atom   2C    basis set group =>   1
Atom   3C    basis set group =>   1
Atom   4H    basis set group =>   3
Atom   5H    basis set group =>   3
Atom   6S    basis set group =>   4
Atom   7C    basis set group =>   1
Atom   8N    basis set group =>   2
Atom   9C    basis set group =>   1
Atom  10H    basis set group =>   3
Atom  11H    basis set group =>   3
Atom  12H    basis set group =>   3
Atom  13H    basis set group =>   3
Atom  14H    basis set group =>   3
Atom  15O    basis set group =>   5
Atom  16O    basis set group =>   5
Atom  17C    basis set group =>   1
Atom  18H    basis set group =>   3
Atom  19H    basis set group =>   3
Atom  20C    basis set group =>   1
Atom  21C    basis set group =>   1
Atom  22H    basis set group =>   3
Atom  23H    basis set group =>   3
Atom  24H    basis set group =>   3
Atom  25H    basis set group =>   3
Atom  26C    basis set group =>   1
Atom  27H    basis set group =>   3
Atom  28H    basis set group =>   3
Atom  29C    basis set group =>   1
Atom  30H    basis set group =>   3
Atom  31H    basis set group =>   3
Atom  32C    basis set group =>   1
Atom  33H    basis set group =>   3
Atom  34H    basis set group =>   3
Atom  35H    basis set group =>   3
Atom  36H    basis set group =>   3
Atom  37H    basis set group =>   3
Atom  38H    basis set group =>   3
Atom  39F    basis set group =>   6


           ************************************************************
           *        Program running with 4 parallel MPI-processes     *
           *              working on a common directory               *
           ************************************************************
------------------------------------------------------------------------------
                           ORCA GTO INTEGRAL CALCULATION
                           -- RI-GTO INTEGRALS CHOSEN --
------------------------------------------------------------------------------
------------------------------------------------------------------------------
                   ___                                                        
                  /   \      - P O W E R E D   B Y -                         
                 /     \                                                     
                 |  |  |   _    _      __       _____    __    __             
                 |  |  |  | |  | |    /  \     |  _  \  |  |  /  |          
                  \  \/   | |  | |   /    \    | | | |  |  | /  /          
                 / \  \   | |__| |  /  /\  \   | |_| |  |  |/  /          
                |  |  |   |  __  | /  /__\  \  |    /   |      \           
                |  |  |   | |  | | |   __   |  |    \   |  |\   \          
                \     /   | |  | | |  |  |  |  | |\  \  |  | \   \       
                 \___/    |_|  |_| |__|  |__|  |_| \__\ |__|  \__/        
                                                                              
                      - O R C A' S   B I G   F R I E N D -                    
                                      &                                       
                       - I N T E G R A L  F E E D E R -                       
                                                                              
 v1 FN, 2020, v2 2021                                                         
------------------------------------------------------------------------------


Reading SHARK input file 28Oct_SVPD_PBE_D9_wb97.SHARKINP.tmp ... ok
----------------------
SHARK INTEGRAL PACKAGE
----------------------

Number of atoms                             ...     40
Number of basis functions                   ...    540
Number of shells                            ...    234
Maximum angular momentum                    ...      2
Integral batch strategy                     ... SHARK/LIBINT Hybrid
RI-J (if used) integral strategy            ... SPLIT-RIJ (Revised 2003 algorithm where possible)
Printlevel                                  ...      1
Contraction scheme used                     ... SEGMENTED contraction
Coulomb Range Separation                    ... NOT USED
Exchange Range Separation                   ... NOT USED
Finite Nucleus Model                        ... NOT USED
Auxiliary Coulomb fitting basis             ... AVAILABLE
   # of basis functions in Aux-J            ...   1088
   # of shells in Aux-J                     ...    372
   Maximum angular momentum in Aux-J        ...      4
Auxiliary J/K fitting basis                 ... NOT available
Auxiliary Correlation fitting basis         ... NOT available
Auxiliary 'external' fitting basis          ... NOT available
Integral threshold                          ...     2.500000e-11
Primitive cut-off                           ...     2.500000e-12
Primitive pair pre-selection threshold      ...     2.500000e-12

Calculating pre-screening integrals         ... done (  0.1 sec) Dimension = 234
Organizing shell pair data                  ... done (  0.2 sec)
Shell pair information
Total number of shell pairs                 ...     27495
Shell pairs after pre-screening             ...     24637
Total number of primitive shell pairs       ...     74991
Primitive shell pairs kept                  ...     49980
          la=0 lb=0:   5934 shell pairs
          la=1 lb=0:   8769 shell pairs
          la=1 lb=1:   3282 shell pairs
          la=2 lb=0:   3511 shell pairs
          la=2 lb=1:   2605 shell pairs
          la=2 lb=2:    536 shell pairs

Calculating one electron integrals          ... done (  0.1 sec)
Calculating RI/J V-Matrix + Cholesky decomp.... done (  0.1 sec)
Calculating Nuclear repulsion               ... done (  0.0 sec) ENN=   1577.324071640470 Eh

SHARK setup successfully completed in   0.6 seconds

Maximum memory used throughout the entire GTOINT-calculation: 36.1 MB


           ************************************************************
           *        Program running with 4 parallel MPI-processes     *
           *              working on a common directory               *
           ************************************************************
-------------------------------------------------------------------------------
                                 ORCA SCF
-------------------------------------------------------------------------------

------------
SCF SETTINGS
------------
Hamiltonian:
 Density Functional     Method          .... DFT(GTOs)
 Exchange Functional    Exchange        .... PBE
   PBE kappa parameter   XKappa         ....  0.804000
   PBE mue parameter    XMuePBE         ....  0.219520
 Correlation Functional Correlation     .... PBE
   PBE beta parameter  CBetaPBE         ....  0.066725
 LDA part of GGA corr.  LDAOpt          .... PW91-LDA
 Gradients option       PostSCFGGA      .... off
   Density functional embedding theory  .... OFF
   NL short-range parameter             ....  6.400000
 RI-approximation to the Coulomb term is turned on
   Number of AuxJ basis functions       .... 1088


General Settings:
 Integral files         IntName         .... 28Oct_SVPD_PBE_D9_wb97
 Hartree-Fock type      HFTyp           .... RHF
 Total Charge           Charge          ....    0
 Multiplicity           Mult            ....    1
 Number of Electrons    NEL             ....  144
 Basis Dimension        Dim             ....  540
 Nuclear Repulsion      ENuc            ....   1577.3240716405 Eh

Convergence Acceleration:
 DIIS                   CNVDIIS         .... on
   Start iteration      DIISMaxIt       ....    12
   Startup error        DIISStart       ....  0.200000
   # of expansion vecs  DIISMaxEq       ....     5
   Bias factor          DIISBfac        ....   1.050
   Max. coefficient     DIISMaxC        ....  10.000
 Trust-Rad. Augm. Hess. CNVTRAH         .... auto
   Auto Start mean grad. ratio tolernc. ....  1.125000
   Auto Start start iteration           ....    20
   Auto Start num. interpolation iter.  ....    10
   Max. Number of Micro iterations      ....    16
   Max. Number of Macro iterations      .... Maxiter - #DIIS iter
   Number of Davidson start vectors     ....     2
   Converg. threshold I  (grad. norm)   ....   1.000e-05
   Converg. threshold II (energy diff.) ....   1.000e-08
   Grad. Scal. Fac. for Micro threshold ....   0.100
   Minimum threshold for Micro iter.    ....   0.010
   NR start threshold (gradient norm)   ....   0.001
   Initial trust radius                 ....   0.400
   Minimum AH scaling param. (alpha)    ....   1.000
   Maximum AH scaling param. (alpha)    .... 1000.000
   Orbital update algorithm             .... Taylor
   White noise on init. David. guess    .... on
   Maximum white noise                  ....   0.010
   Quad. conv. algorithm                .... NR
 SOSCF                  CNVSOSCF        .... on
   Start iteration      SOSCFMaxIt      ....   150
   Startup grad/error   SOSCFStart      ....  0.003300
 Level Shifting         CNVShift        .... on
   Level shift para.    LevelShift      ....    0.2500
   Turn off err/grad.   ShiftErr        ....    0.0010
 Zerner damping         CNVZerner       .... off
 Static damping         CNVDamp         .... on
   Fraction old density DampFac         ....    0.7000
   Max. Damping (<1)    DampMax         ....    0.9800
   Min. Damping (>=0)   DampMin         ....    0.0000
   Turn off err/grad.   DampErr         ....    0.1000
 Fernandez-Rico         CNVRico         .... off

SCF Procedure:
 Maximum # iterations   MaxIter         ....   150
 SCF integral mode      SCFMode         .... Direct
   Integral package                     .... SHARK and LIBINT hybrid scheme
 Reset frequency        DirectResetFreq ....    20
 Integral Threshold     Thresh          ....  2.500e-11 Eh
 Primitive CutOff       TCut            ....  2.500e-12 Eh

Convergence Tolerance:
 Convergence Check Mode ConvCheckMode   .... Total+1el-Energy
 Convergence forced     ConvForced      .... 0
 Energy Change          TolE            ....  1.000e-08 Eh
 1-El. energy change                    ....  1.000e-05 Eh
 Orbital Gradient       TolG            ....  1.000e-05
 Orbital Rotation angle TolX            ....  1.000e-05
 DIIS Error             TolErr          ....  5.000e-07


Diagonalization of the overlap matrix:
Smallest eigenvalue                        ... 1.647e-05
Time for diagonalization                   ...    0.062 sec
Threshold for overlap eigenvalues          ... 1.000e-08
Number of eigenvalues below threshold      ... 0
Time for construction of square roots      ...    0.083 sec
Total time needed                          ...    0.148 sec

Time for model grid setup =    0.508 sec

------------------------------
INITIAL GUESS: MODEL POTENTIAL
------------------------------
Loading Hartree-Fock densities                     ... done
Calculating cut-offs                               ... done
Initializing the effective Hamiltonian             ... done
Setting up the integral package (SHARK)            ... done
Starting the Coulomb interaction                   ... done (   0.7 sec)
Reading the grid                                   ... done
Mapping shells                                     ... done
Starting the XC term evaluation                    ... done (   0.7 sec)
  promolecular density results
     # of electrons  =    143.981674864
     EX              =   -127.653254753
     EC              =     -4.951139725
     EX+EC           =   -132.604394477
Transforming the Hamiltonian                       ... done (   0.0 sec)
Diagonalizing the Hamiltonian                      ... done (   0.1 sec)
Back transforming the eigenvectors                 ... done (   0.0 sec)
Now organizing SCF variables                       ... done
                      ------------------
                      INITIAL GUESS DONE (   2.0 sec)
                      ------------------
-------------------
DFT GRID GENERATION
-------------------

General Integration Accuracy     IntAcc      ... 4.388
Radial Grid Type                 RadialGrid  ... OptM3 with GC (2021)
Angular Grid (max. ang.)         AngularGrid ... 4 (Lebedev-302)
Angular grid pruning method      GridPruning ... 4 (adaptive)
Weight generation scheme         WeightScheme... Becke
Basis function cutoff            BFCut       ... 1.0000e-11
Integration weight cutoff        WCut        ... 1.0000e-14
Angular grids for H and He will be reduced by one unit
Partially contracted basis set               ... off
Rotationally invariant grid construction     ... off

Total number of grid points                  ...   179861
Total number of batches                      ...     2830
Average number of points per batch           ...       63
Average number of grid points per atom       ...     4497
Time for grid setup =    1.876 sec

--------------
SCF ITERATIONS
--------------
ITER       Energy         Delta-E        Max-DP      RMS-DP      [F,P]     Damp
               ***  Starting incremental Fock matrix formation  ***
  0  -1188.3970311389   0.000000000000 0.27458408  0.00283981  0.2712516 0.7000
  1  -1188.7589190978  -0.361887958881 0.26746331  0.00208511  0.1072919 0.7000
                               ***Turning on DIIS***
  2  -1188.8612351446  -0.102316046846 0.55183874  0.00374297  0.0317557 0.0000
  3  -1189.0553104510  -0.194075306332 0.24427468  0.00158804  0.0710752 0.0000
  4  -1189.0956767576  -0.040366306650 0.14545370  0.00081209  0.0351210 0.0000
  5  -1189.1023287021  -0.006651944455 0.05544813  0.00035494  0.0052729 0.0000
                      *** Initiating the SOSCF procedure ***
                           *** Shutting down DIIS ***
                      *** Re-Reading the Fockian *** 
                      *** Removing any level shift *** 
ITER      Energy       Delta-E        Grad      Rot      Max-DP    RMS-DP
  6  -1189.10260164  -0.0002729332  0.000936  0.000936  0.018504  0.000138
               *** Restarting incremental Fock matrix formation ***
  7  -1189.10265890  -0.0000572610  0.000696  0.009683  0.015240  0.000148
  8  -1189.10266831  -0.0000094100  0.000401  0.003598  0.005234  0.000057
  9  -1189.10267399  -0.0000056869  0.000279  0.004189  0.006242  0.000064
 10  -1189.10267954  -0.0000055502  0.000160  0.000723  0.001324  0.000017
 11  -1189.10267931   0.0000002304  0.000185  0.001341  0.002156  0.000021
 12  -1189.10268097  -0.0000016584  0.000038  0.000176  0.000891  0.000008
 13  -1189.10268064   0.0000003358  0.000066  0.000359  0.000590  0.000006
 14  -1189.10268113  -0.0000004945  0.000023  0.000039  0.000324  0.000004
 15  -1189.10268111   0.0000000156  0.000026  0.000074  0.000291  0.000003
 16  -1189.10268116  -0.0000000443  0.000006  0.000028  0.000567  0.000003
 17  -1189.10268115   0.0000000135  0.000011  0.000020  0.000492  0.000002
                  ***Gradient check signals convergence***
              ***Rediagonalizing the Fockian in SOSCF/NRSCF***

               *****************************************************
               *                     SUCCESS                       *
               *           SCF CONVERGED AFTER  18 CYCLES          *
               *****************************************************


----------------
TOTAL SCF ENERGY
----------------

Total Energy       :        -1189.10268117 Eh          -32357.12896 eV

Components:
Nuclear Repulsion  :         1577.32407164 Eh           42921.17006 eV
Electronic Energy  :        -2766.42675281 Eh          -75278.29902 eV
One Electron Energy:        -4761.10295521 Eh         -129556.19792 eV
Two Electron Energy:         1994.67620240 Eh           54277.89890 eV

Virial components:
Potential Energy   :        -2370.08216918 Eh          -64493.21460 eV
Kinetic Energy     :         1180.97948801 Eh           32136.08564 eV
Virial Ratio       :            2.00687835


DFT components:
N(Alpha)           :       71.999786839243 electrons
N(Beta)            :       71.999786839243 electrons
N(Total)           :      143.999573678485 electrons
E(X)               :     -129.578181988967 Eh       
E(C)               :       -4.942116408600 Eh       
E(XC)              :     -134.520298397568 Eh       
DFET-embed. en.    :        0.000000000000 Eh       

---------------
SCF CONVERGENCE
---------------

  Last Energy change         ...   -2.4399e-08  Tolerance :   1.0000e-08
  Last MAX-Density change    ...    4.6444e-04  Tolerance :   1.0000e-07
  Last RMS-Density change    ...    2.4658e-06  Tolerance :   5.0000e-09
  Last Orbital Gradient      ...    9.2422e-07  Tolerance :   1.0000e-05
  Last Orbital Rotation      ...    2.7815e-06  Tolerance :   1.0000e-05

             **** THE GBW FILE WAS UPDATED (28Oct_SVPD_PBE_D9_wb97.gbw) ****
             **** DENSITY 28Oct_SVPD_PBE_D9_wb97.scfp WAS UPDATED ****
             **** ENERGY FILE WAS UPDATED (28Oct_SVPD_PBE_D9_wb97.en.tmp) ****
             **** THE GBW FILE WAS UPDATED (28Oct_SVPD_PBE_D9_wb97.gbw) ****
             **** DENSITY 28Oct_SVPD_PBE_D9_wb97.scfp WAS UPDATED ****
----------------
ORBITAL ENERGIES
----------------

  NO   OCC          E(Eh)            E(eV) 
   0   2.0000     -88.334783     -2403.7117 
   1   2.0000     -24.405799      -664.1156 
   2   2.0000     -18.803135      -511.6593 
   3   2.0000     -18.799802      -511.5686 
   4   2.0000     -13.989939      -380.6856 
   5   2.0000     -13.967917      -380.0864 
   6   2.0000      -9.973654      -271.3969 
   7   2.0000      -9.934989      -270.3448 
   8   2.0000      -9.919397      -269.9205 
   9   2.0000      -9.918189      -269.8876 
  10   2.0000      -9.918057      -269.8840 
  11   2.0000      -9.906298      -269.5641 
  12   2.0000      -9.899774      -269.3866 
  13   2.0000      -9.894237      -269.2359 
  14   2.0000      -9.886550      -269.0267 
  15   2.0000      -9.881103      -268.8785 
  16   2.0000      -9.793752      -266.5015 
  17   2.0000      -7.939024      -216.0318 
  18   2.0000      -5.970409      -162.4631 
  19   2.0000      -5.964097      -162.2913 
  20   2.0000      -5.962039      -162.2353 
  21   2.0000      -1.279101       -34.8061 
  22   2.0000      -1.049796       -28.5664 
  23   2.0000      -0.956244       -26.0207 
  24   2.0000      -0.865582       -23.5537 
  25   2.0000      -0.784959       -21.3598 
  26   2.0000      -0.779519       -21.2118 
  27   2.0000      -0.742106       -20.1937 
  28   2.0000      -0.712161       -19.3789 
  29   2.0000      -0.685162       -18.6442 
  30   2.0000      -0.665418       -18.1069 
  31   2.0000      -0.631587       -17.1863 
  32   2.0000      -0.617231       -16.7957 
  33   2.0000      -0.597390       -16.2558 
  34   2.0000      -0.575278       -15.6541 
  35   2.0000      -0.550619       -14.9831 
  36   2.0000      -0.541705       -14.7405 
  37   2.0000      -0.535470       -14.5709 
  38   2.0000      -0.522526       -14.2187 
  39   2.0000      -0.505773       -13.7628 
  40   2.0000      -0.480937       -13.0870 
  41   2.0000      -0.475490       -12.9387 
  42   2.0000      -0.463940       -12.6244 
  43   2.0000      -0.457399       -12.4465 
  44   2.0000      -0.446206       -12.1419 
  45   2.0000      -0.442014       -12.0278 
  46   2.0000      -0.426646       -11.6096 
  47   2.0000      -0.424203       -11.5431 
  48   2.0000      -0.409242       -11.1360 
  49   2.0000      -0.405271       -11.0280 
  50   2.0000      -0.393401       -10.7050 
  51   2.0000      -0.392214       -10.6727 
  52   2.0000      -0.373160       -10.1542 
  53   2.0000      -0.366657        -9.9772 
  54   2.0000      -0.354972        -9.6593 
  55   2.0000      -0.350401        -9.5349 
  56   2.0000      -0.341852        -9.3023 
  57   2.0000      -0.334787        -9.1100 
  58   2.0000      -0.327414        -8.9094 
  59   2.0000      -0.322252        -8.7689 
  60   2.0000      -0.316090        -8.6013 
  61   2.0000      -0.313464        -8.5298 
  62   2.0000      -0.309808        -8.4303 
  63   2.0000      -0.303756        -8.2656 
  64   2.0000      -0.301842        -8.2135 
  65   2.0000      -0.294621        -8.0170 
  66   2.0000      -0.292904        -7.9703 
  67   2.0000      -0.281364        -7.6563 
  68   2.0000      -0.278795        -7.5864 
  69   2.0000      -0.271204        -7.3798 
  70   2.0000      -0.192760        -5.2453 
  71   2.0000      -0.118652        -3.2287 
  72   0.0000      -0.047767        -1.2998 
  73   0.0000      -0.015647        -0.4258 
  74   0.0000      -0.008588        -0.2337 
  75   0.0000       0.000998         0.0271 
  76   0.0000       0.001248         0.0339 
  77   0.0000       0.013742         0.3739 
  78   0.0000       0.017978         0.4892 
  79   0.0000       0.019478         0.5300 
  80   0.0000       0.026932         0.7329 
  81   0.0000       0.030894         0.8407 
  82   0.0000       0.034210         0.9309 
  83   0.0000       0.039966         1.0875 
  84   0.0000       0.042523         1.1571 
  85   0.0000       0.049832         1.3560 
  86   0.0000       0.053003         1.4423 
  87   0.0000       0.060969         1.6591 
  88   0.0000       0.062069         1.6890 
  89   0.0000       0.067049         1.8245 
  90   0.0000       0.071989         1.9589 
  91   0.0000       0.074208         2.0193 
  92   0.0000       0.078161         2.1269 
  93   0.0000       0.085768         2.3339 
  94   0.0000       0.089339         2.4310 
  95   0.0000       0.095390         2.5957 
  96   0.0000       0.098767         2.6876 
  97   0.0000       0.101120         2.7516 
  98   0.0000       0.104226         2.8361 
  99   0.0000       0.111248         3.0272 
 100   0.0000       0.114207         3.1077 
 101   0.0000       0.119768         3.2590 
 102   0.0000       0.125085         3.4037 
 103   0.0000       0.130566         3.5529 
 104   0.0000       0.134795         3.6680 
 105   0.0000       0.136136         3.7044 
 106   0.0000       0.141527         3.8511 
 107   0.0000       0.146947         3.9986 
 108   0.0000       0.147231         4.0064 
 109   0.0000       0.152442         4.1482 
 110   0.0000       0.153660         4.1813 
 111   0.0000       0.160391         4.3645 
 112   0.0000       0.167892         4.5686 
 113   0.0000       0.171453         4.6655 
 114   0.0000       0.172453         4.6927 
 115   0.0000       0.177592         4.8325 
 116   0.0000       0.178439         4.8556 
 117   0.0000       0.182138         4.9562 
 118   0.0000       0.185692         5.0529 
 119   0.0000       0.189845         5.1660 
 120   0.0000       0.193455         5.2642 
 121   0.0000       0.196393         5.3441 
 122   0.0000       0.200572         5.4579 
 123   0.0000       0.202207         5.5023 
 124   0.0000       0.209730         5.7070 
 125   0.0000       0.211726         5.7614 
 126   0.0000       0.214184         5.8282 
 127   0.0000       0.218055         5.9336 
 128   0.0000       0.225774         6.1436 
 129   0.0000       0.230813         6.2807 
 130   0.0000       0.235387         6.4052 
 131   0.0000       0.236068         6.4237 
 132   0.0000       0.239215         6.5094 
 133   0.0000       0.241918         6.5829 
 134   0.0000       0.244449         6.6518 
 135   0.0000       0.247439         6.7332 
 136   0.0000       0.261400         7.1131 
 137   0.0000       0.263112         7.1596 
 138   0.0000       0.265175         7.2158 
 139   0.0000       0.268298         7.3008 
 140   0.0000       0.270929         7.3723 
 141   0.0000       0.273827         7.4512 
 142   0.0000       0.275151         7.4872 
 143   0.0000       0.278403         7.5757 
 144   0.0000       0.284504         7.7418 
 145   0.0000       0.286369         7.7925 
 146   0.0000       0.289321         7.8728 
 147   0.0000       0.293745         7.9932 
 148   0.0000       0.298174         8.1137 
 149   0.0000       0.301880         8.2146 
 150   0.0000       0.304764         8.2931 
 151   0.0000       0.306524         8.3409 
 152   0.0000       0.308703         8.4002 
 153   0.0000       0.310114         8.4386 
 154   0.0000       0.317959         8.6521 
 155   0.0000       0.320141         8.7115 
 156   0.0000       0.323031         8.7901 
 157   0.0000       0.326332         8.8799 
 158   0.0000       0.327528         8.9125 
 159   0.0000       0.329610         8.9691 
 160   0.0000       0.334786         9.1100 
 161   0.0000       0.338629         9.2146 
 162   0.0000       0.342703         9.3254 
 163   0.0000       0.343483         9.3466 
 164   0.0000       0.348807         9.4915 
 165   0.0000       0.351785         9.5726 
 166   0.0000       0.355164         9.6645 
 167   0.0000       0.358131         9.7452 
 168   0.0000       0.360653         9.8139 
 169   0.0000       0.363831         9.9004 
 170   0.0000       0.366656         9.9772 
 171   0.0000       0.367610        10.0032 
 172   0.0000       0.374814        10.1992 
 173   0.0000       0.379474        10.3260 
 174   0.0000       0.381084        10.3698 
 175   0.0000       0.383780        10.4432 
 176   0.0000       0.388606        10.5745 
 177   0.0000       0.390101        10.6152 
 178   0.0000       0.395481        10.7616 
 179   0.0000       0.399231        10.8636 
 180   0.0000       0.406536        11.0624 
 181   0.0000       0.409089        11.1319 
 182   0.0000       0.410690        11.1754 
 183   0.0000       0.413716        11.2578 
 184   0.0000       0.416973        11.3464 
 185   0.0000       0.417540        11.3618 
 186   0.0000       0.418218        11.3803 
 187   0.0000       0.424761        11.5583 
 188   0.0000       0.428154        11.6507 
 189   0.0000       0.429211        11.6794 
 190   0.0000       0.433438        11.7945 
 191   0.0000       0.440021        11.9736 
 192   0.0000       0.442791        12.0490 
 193   0.0000       0.448033        12.1916 
 194   0.0000       0.449748        12.2383 
 195   0.0000       0.455804        12.4031 
 196   0.0000       0.458007        12.4630 
 197   0.0000       0.458397        12.4736 
 198   0.0000       0.466068        12.6824 
 199   0.0000       0.467945        12.7334 
 200   0.0000       0.473457        12.8834 
 201   0.0000       0.475907        12.9501 
 202   0.0000       0.478592        13.0232 
 203   0.0000       0.480917        13.0864 
 204   0.0000       0.487789        13.2734 
 205   0.0000       0.490009        13.3338 
 206   0.0000       0.492635        13.4053 
 207   0.0000       0.494930        13.4677 
 208   0.0000       0.498427        13.5629 
 209   0.0000       0.503628        13.7044 
 210   0.0000       0.508991        13.8503 
 211   0.0000       0.509728        13.8704 
 212   0.0000       0.513204        13.9650 
 213   0.0000       0.515418        14.0252 
 214   0.0000       0.518560        14.1107 
 215   0.0000       0.524844        14.2817 
 216   0.0000       0.525619        14.3028 
 217   0.0000       0.531947        14.4750 
 218   0.0000       0.535144        14.5620 
 219   0.0000       0.537270        14.6199 
 220   0.0000       0.542099        14.7513 
 221   0.0000       0.548770        14.9328 
 222   0.0000       0.550091        14.9687 
 223   0.0000       0.558547        15.1988 
 224   0.0000       0.560347        15.2478 
 225   0.0000       0.561861        15.2890 
 226   0.0000       0.564500        15.3608 
 227   0.0000       0.568014        15.4565 
 228   0.0000       0.569910        15.5080 
 229   0.0000       0.572539        15.5796 
 230   0.0000       0.575682        15.6651 
 231   0.0000       0.585720        15.9383 
 232   0.0000       0.591177        16.0867 
 233   0.0000       0.596360        16.2278 
 234   0.0000       0.598205        16.2780 
 235   0.0000       0.600681        16.3454 
 236   0.0000       0.603169        16.4131 
 237   0.0000       0.605394        16.4736 
 238   0.0000       0.610402        16.6099 
 239   0.0000       0.616895        16.7866 
 240   0.0000       0.617827        16.8119 
 241   0.0000       0.621759        16.9189 
 242   0.0000       0.626688        17.0530 
 243   0.0000       0.632793        17.2192 
 244   0.0000       0.641083        17.4447 
 245   0.0000       0.644442        17.5361 
 246   0.0000       0.647073        17.6077 
 247   0.0000       0.651289        17.7225 
 248   0.0000       0.655110        17.8265 
 249   0.0000       0.656549        17.8656 
 250   0.0000       0.664340        18.0776 
 251   0.0000       0.666239        18.1293 
 252   0.0000       0.670866        18.2552 
 253   0.0000       0.679122        18.4799 
 254   0.0000       0.681315        18.5395 
 255   0.0000       0.684155        18.6168 
 256   0.0000       0.690173        18.7806 
 257   0.0000       0.697327        18.9752 
 258   0.0000       0.704542        19.1716 
 259   0.0000       0.712161        19.3789 
 260   0.0000       0.713304        19.4100 
 261   0.0000       0.722515        19.6606 
 262   0.0000       0.725498        19.7418 
 263   0.0000       0.728169        19.8145 
 264   0.0000       0.735180        20.0053 
 265   0.0000       0.744223        20.2513 
 266   0.0000       0.748655        20.3719 
 267   0.0000       0.757418        20.6104 
 268   0.0000       0.758514        20.6402 
 269   0.0000       0.763669        20.7805 
 270   0.0000       0.770572        20.9683 
 271   0.0000       0.773623        21.0514 
 272   0.0000       0.781864        21.2756 
 273   0.0000       0.783038        21.3075 
 274   0.0000       0.787989        21.4423 
 275   0.0000       0.798901        21.7392 
 276   0.0000       0.802212        21.8293 
 277   0.0000       0.803193        21.8560 
 278   0.0000       0.808971        22.0132 
 279   0.0000       0.815731        22.1972 
 280   0.0000       0.817372        22.2418 
 281   0.0000       0.825408        22.4605 
 282   0.0000       0.829316        22.5668 
 283   0.0000       0.839864        22.8539 
 284   0.0000       0.845610        23.0102 
 285   0.0000       0.850076        23.1317 
 286   0.0000       0.857402        23.3311 
 287   0.0000       0.866553        23.5801 
 288   0.0000       0.870672        23.6922 
 289   0.0000       0.879346        23.9282 
 290   0.0000       0.886730        24.1292 
 291   0.0000       0.891892        24.2696 
 292   0.0000       0.894796        24.3486 
 293   0.0000       0.906181        24.6584 
 294   0.0000       0.908380        24.7183 
 295   0.0000       0.916544        24.9404 
 296   0.0000       0.931275        25.3413 
 297   0.0000       0.936474        25.4828 
 298   0.0000       0.939708        25.5708 
 299   0.0000       0.945812        25.7369 
 300   0.0000       0.955210        25.9926 
 301   0.0000       0.966634        26.3034 
 302   0.0000       0.972970        26.4758 
 303   0.0000       0.976667        26.5765 
 304   0.0000       0.982025        26.7223 
 305   0.0000       0.984279        26.7836 
 306   0.0000       0.988171        26.8895 
 307   0.0000       0.992894        27.0180 
 308   0.0000       0.997360        27.1396 
 309   0.0000       1.003076        27.2951 
 310   0.0000       1.007903        27.4264 
 311   0.0000       1.013273        27.5726 
 312   0.0000       1.016670        27.6650 
 313   0.0000       1.026929        27.9442 
 314   0.0000       1.037735        28.2382 
 315   0.0000       1.044165        28.4132 
 316   0.0000       1.049754        28.5652 
 317   0.0000       1.061483        28.8844 
 318   0.0000       1.063566        28.9411 
 319   0.0000       1.067176        29.0393 
 320   0.0000       1.076090        29.2819 
 321   0.0000       1.079548        29.3760 
 322   0.0000       1.083635        29.4872 
 323   0.0000       1.094226        29.7754 
 324   0.0000       1.099221        29.9113 
 325   0.0000       1.101258        29.9668 
 326   0.0000       1.110417        30.2160 
 327   0.0000       1.111819        30.2541 
 328   0.0000       1.119496        30.4630 
 329   0.0000       1.127463        30.6798 
 330   0.0000       1.135395        30.8957 
 331   0.0000       1.150038        31.2941 
 332   0.0000       1.153621        31.3916 
 333   0.0000       1.170919        31.8623 
 334   0.0000       1.177876        32.0516 
 335   0.0000       1.184178        32.2231 
 336   0.0000       1.191145        32.4127 
 337   0.0000       1.194170        32.4950 
 338   0.0000       1.199104        32.6293 
 339   0.0000       1.217203        33.1218 
 340   0.0000       1.230959        33.4961 
 341   0.0000       1.235752        33.6265 
 342   0.0000       1.238206        33.6933 
 343   0.0000       1.253737        34.1159 
 344   0.0000       1.258075        34.2340 
 345   0.0000       1.260988        34.3132 
 346   0.0000       1.269798        34.5529 
 347   0.0000       1.278067        34.7780 
 348   0.0000       1.289304        35.0838 
 349   0.0000       1.303638        35.4738 
 350   0.0000       1.307684        35.5839 
 351   0.0000       1.315910        35.8077 
 352   0.0000       1.323660        36.0186 
 353   0.0000       1.336159        36.3587 
 354   0.0000       1.347960        36.6799 
 355   0.0000       1.353176        36.8218 
 356   0.0000       1.360696        37.0264 
 357   0.0000       1.376065        37.4446 
 358   0.0000       1.388284        37.7771 
 359   0.0000       1.393081        37.9076 
 360   0.0000       1.411696        38.4142 
 361   0.0000       1.422941        38.7202 
 362   0.0000       1.427909        38.8554 
 363   0.0000       1.439565        39.1726 
 364   0.0000       1.469765        39.9943 
 365   0.0000       1.486163        40.4406 
 366   0.0000       1.490680        40.5635 
 367   0.0000       1.498082        40.7649 
 368   0.0000       1.506182        40.9853 
 369   0.0000       1.527105        41.5546 
 370   0.0000       1.530066        41.6352 
 371   0.0000       1.547395        42.1068 
 372   0.0000       1.555056        42.3152 
 373   0.0000       1.571296        42.7571 
 374   0.0000       1.586107        43.1602 
 375   0.0000       1.589586        43.2548 
 376   0.0000       1.600595        43.5544 
 377   0.0000       1.622622        44.1538 
 378   0.0000       1.633184        44.4412 
 379   0.0000       1.633384        44.4466 
 380   0.0000       1.645239        44.7692 
 381   0.0000       1.648849        44.8675 
 382   0.0000       1.651409        44.9371 
 383   0.0000       1.667959        45.3875 
 384   0.0000       1.680050        45.7165 
 385   0.0000       1.686135        45.8821 
 386   0.0000       1.701391        46.2972 
 387   0.0000       1.714103        46.6431 
 388   0.0000       1.723580        46.9010 
 389   0.0000       1.730970        47.1021 
 390   0.0000       1.743201        47.4349 
 391   0.0000       1.747842        47.5612 
 392   0.0000       1.757726        47.8302 
 393   0.0000       1.769074        48.1389 
 394   0.0000       1.777197        48.3600 
 395   0.0000       1.788731        48.6738 
 396   0.0000       1.798149        48.9301 
 397   0.0000       1.811548        49.2947 
 398   0.0000       1.812806        49.3290 
 399   0.0000       1.814761        49.3822 
 400   0.0000       1.827620        49.7321 
 401   0.0000       1.830022        49.7974 
 402   0.0000       1.835867        49.9565 
 403   0.0000       1.845611        50.2216 
 404   0.0000       1.852584        50.4114 
 405   0.0000       1.855866        50.5007 
 406   0.0000       1.865412        50.7604 
 407   0.0000       1.874335        51.0033 
 408   0.0000       1.879981        51.1569 
 409   0.0000       1.882832        51.2345 
 410   0.0000       1.888231        51.3814 
 411   0.0000       1.892260        51.4910 
 412   0.0000       1.902169        51.7606 
 413   0.0000       1.916340        52.1463 
 414   0.0000       1.922653        52.3181 
 415   0.0000       1.928710        52.4829 
 416   0.0000       1.938667        52.7538 
 417   0.0000       1.943738        52.8918 
 418   0.0000       1.951547        53.1043 
 419   0.0000       1.952428        53.1283 
 420   0.0000       1.956341        53.2347 
 421   0.0000       1.965020        53.4709 
 422   0.0000       1.974431        53.7270 
 423   0.0000       1.981882        53.9297 
 424   0.0000       1.987900        54.0935 
 425   0.0000       1.995764        54.3075 
 426   0.0000       2.000362        54.4326 
 427   0.0000       2.010075        54.6969 
 428   0.0000       2.014692        54.8226 
 429   0.0000       2.031142        55.2702 
 430   0.0000       2.039946        55.5098 
 431   0.0000       2.045196        55.6526 
 432   0.0000       2.058416        56.0123 
 433   0.0000       2.068610        56.2897 
 434   0.0000       2.080150        56.6038 
 435   0.0000       2.080458        56.6121 
 436   0.0000       2.092457        56.9387 
 437   0.0000       2.101073        57.1731 
 438   0.0000       2.104656        57.2706 
 439   0.0000       2.111557        57.4584 
 440   0.0000       2.126819        57.8737 
 441   0.0000       2.130960        57.9864 
 442   0.0000       2.142699        58.3058 
 443   0.0000       2.152965        58.5851 
 444   0.0000       2.162246        58.8377 
 445   0.0000       2.170920        59.0737 
 446   0.0000       2.178719        59.2859 
 447   0.0000       2.197495        59.7969 
 448   0.0000       2.214521        60.2602 
 449   0.0000       2.220456        60.4217 
 450   0.0000       2.239037        60.9273 
 451   0.0000       2.246441        61.1288 
 452   0.0000       2.254531        61.3489 
 453   0.0000       2.262314        61.5607 
 454   0.0000       2.286353        62.2148 
 455   0.0000       2.305901        62.7468 
 456   0.0000       2.311213        62.8913 
 457   0.0000       2.340720        63.6942 
 458   0.0000       2.347165        63.8696 
 459   0.0000       2.359680        64.2102 
 460   0.0000       2.371613        64.5349 
 461   0.0000       2.381836        64.8131 
 462   0.0000       2.391032        65.0633 
 463   0.0000       2.399232        65.2864 
 464   0.0000       2.407439        65.5098 
 465   0.0000       2.423967        65.9595 
 466   0.0000       2.428057        66.0708 
 467   0.0000       2.438657        66.3592 
 468   0.0000       2.460860        66.9634 
 469   0.0000       2.473387        67.3043 
 470   0.0000       2.480342        67.4935 
 471   0.0000       2.484209        67.5988 
 472   0.0000       2.498887        67.9982 
 473   0.0000       2.516121        68.4671 
 474   0.0000       2.524499        68.6951 
 475   0.0000       2.534993        68.9807 
 476   0.0000       2.544753        69.2463 
 477   0.0000       2.546097        69.2828 
 478   0.0000       2.562375        69.7258 
 479   0.0000       2.579774        70.1992 
 480   0.0000       2.602303        70.8123 
 481   0.0000       2.608086        70.9696 
 482   0.0000       2.609724        71.0142 
 483   0.0000       2.622535        71.3628 
 484   0.0000       2.639333        71.8199 
 485   0.0000       2.643329        71.9286 
 486   0.0000       2.650074        72.1122 
 487   0.0000       2.659530        72.3695 
 488   0.0000       2.664878        72.5150 
 489   0.0000       2.684943        73.0610 
 490   0.0000       2.703526        73.5667 
 491   0.0000       2.724230        74.1301 
 492   0.0000       2.738194        74.5100 
 493   0.0000       2.743571        74.6564 
 494   0.0000       2.754692        74.9590 
 495   0.0000       2.771225        75.4089 
 496   0.0000       2.778327        75.6021 
 497   0.0000       2.796707        76.1023 
 498   0.0000       2.804600        76.3170 
 499   0.0000       2.809338        76.4460 
 500   0.0000       2.826940        76.9249 
 501   0.0000       2.845087        77.4188 
 502   0.0000       2.864457        77.9458 
 503   0.0000       2.876853        78.2831 
 504   0.0000       2.898366        78.8685 
 505   0.0000       2.916236        79.3548 
 506   0.0000       2.924556        79.5812 
 507   0.0000       2.955731        80.4295 
 508   0.0000       2.963647        80.6449 
 509   0.0000       2.973466        80.9121 
 510   0.0000       2.997269        81.5598 
 511   0.0000       3.016044        82.0707 
 512   0.0000       3.025753        82.3349 
 513   0.0000       3.036043        82.6149 
 514   0.0000       3.059188        83.2447 
 515   0.0000       3.067650        83.4750 
 516   0.0000       3.093630        84.1820 
 517   0.0000       3.106165        84.5231 
 518   0.0000       3.119422        84.8838 
 519   0.0000       3.127305        85.0983 
 520   0.0000       3.151284        85.7508 
 521   0.0000       3.166996        86.1783 
 522   0.0000       3.176099        86.4261 
 523   0.0000       3.192683        86.8773 
 524   0.0000       3.204497        87.1988 
 525   0.0000       3.219090        87.5959 
 526   0.0000       3.228347        87.8478 
 527   0.0000       3.232779        87.9684 
 528   0.0000       3.245180        88.3058 
 529   0.0000       3.257824        88.6499 
 530   0.0000       3.307854        90.0113 
 531   0.0000       3.320235        90.3482 
 532   0.0000       3.335870        90.7736 
 533   0.0000       3.365529        91.5807 
 534   0.0000       3.368917        91.6729 
 535   0.0000       3.469233        94.4026 
 536   0.0000       3.489057        94.9421 
 537   0.0000       3.621330        98.5414 
 538   0.0000       3.705503       100.8319 
 539   0.0000       3.754023       102.1522 

                    ********************************
                    * MULLIKEN POPULATION ANALYSIS *
                    ********************************

-----------------------
MULLIKEN ATOMIC CHARGES
-----------------------
   0 C :    1.005767
   1 N :    0.449873
   2 C :    0.236617
   3 C :    0.272345
   4 H :    0.028031
   5 H :    0.028225
   6 S :    1.323782
   7 C :    0.605522
   8 N :    0.600278
   9 C :    0.481266
  10 H :    0.119448
  11 H :   -0.693770
  12 H :   -1.271858
  13 H :   -0.421146
  14 H :   -0.217463
  15 O :   -0.695558
  16 O :   -0.636505
  17 C :    0.312089
  18 H :   -0.356248
  19 H :   -0.109233
  20 C :   -0.019409
  21 C :    0.182569
  22 H :    0.042571
  23 H :   -0.491800
  24 H :   -0.090467
  25 H :    0.090811
  26 C :    0.102861
  27 H :   -0.132395
  28 H :   -0.037761
  29 C :   -0.182252
  30 H :   -0.171301
  31 H :   -0.095501
  32 C :    0.662546
  33 H :   -0.366297
  34 H :    0.175435
  35 H :    0.156346
  36 H :   -0.362056
  37 H :   -0.040184
  38 H :    0.014485
  39 F :   -0.499666
Sum of atomic charges:    0.0000000

--------------------------------
MULLIKEN REDUCED ORBITAL CHARGES
--------------------------------
  0 C s       :     2.586824  s :     2.586824
      pz      :     0.850993  p :     2.353651
      px      :     0.919553
      py      :     0.583106
      dz2     :     0.013956  d :     0.053757
      dxz     :     0.113870
      dyz     :    -0.145548
      dx2y2   :     0.031952
      dxy     :     0.039527
  1 N s       :     2.644475  s :     2.644475
      pz      :     1.038715  p :     3.613076
      px      :     1.512977
      py      :     1.061384
      dz2     :     0.082230  d :     0.292576
      dxz     :     0.064878
      dyz     :     0.082295
      dx2y2   :     0.036442
      dxy     :     0.026731
  2 C s       :     2.743228  s :     2.743228
      pz      :     0.995977  p :     2.614008
      px      :     0.835726
      py      :     0.782305
      dz2     :     0.042695  d :     0.406147
      dxz     :     0.259688
      dyz     :     0.069869
      dx2y2   :     0.027878
      dxy     :     0.006017
  3 C s       :     2.737057  s :     2.737057
      pz      :     0.920860  p :     2.772758
      px      :     1.061447
      py      :     0.790452
      dz2     :     0.099889  d :     0.217839
      dxz     :     0.044284
      dyz     :    -0.050513
      dx2y2   :     0.043600
      dxy     :     0.080580
  4 H s       :     0.964896  s :     0.964896
      pz      :    -0.029128  p :     0.007073
      px      :     0.017233
      py      :     0.018968
  5 H s       :     0.945842  s :     0.945842
      pz      :     0.038267  p :     0.025933
      px      :    -0.015598
      py      :     0.003263
  6 S s       :     5.022199  s :     5.022199
      pz      :     2.795647  p :     8.836618
      px      :     2.894781
      py      :     3.146190
      dz2     :     0.168972  d :     0.817400
      dxz     :     0.136782
      dyz     :     0.135902
      dx2y2   :     0.211181
      dxy     :     0.164563
  7 C s       :     2.747890  s :     2.747890
      pz      :     0.769906  p :     2.248536
      px      :     0.807179
      py      :     0.671451
      dz2     :     0.110725  d :     0.398051
      dxz     :     0.049620
      dyz     :     0.126313
      dx2y2   :     0.068618
      dxy     :     0.042774
  8 N s       :     2.812846  s :     2.812846
      pz      :     0.941000  p :     3.571496
      px      :     1.612715
      py      :     1.017780
      dz2     :     0.011058  d :     0.015381
      dxz     :     0.023124
      dyz     :    -0.019943
      dx2y2   :    -0.005224
      dxy     :     0.006365
  9 C s       :     2.789994  s :     2.789994
      pz      :     0.581589  p :     2.599065
      px      :     1.111628
      py      :     0.905848
      dz2     :     0.025700  d :     0.129674
      dxz     :     0.018097
      dyz     :     0.044860
      dx2y2   :     0.010398
      dxy     :     0.030619
 10 H s       :     0.831735  s :     0.831735
      pz      :    -0.025451  p :     0.048816
      px      :     0.050801
      py      :     0.023466
 11 H s       :     1.560195  s :     1.560195
      pz      :     0.044588  p :     0.133575
      px      :     0.048876
      py      :     0.040111
 12 H s       :     2.196103  s :     2.196103
      pz      :    -0.055710  p :     0.075756
      px      :     0.110826
      py      :     0.020639
 13 H s       :     1.362975  s :     1.362975
      pz      :     0.009528  p :     0.058171
      px      :     0.068610
      py      :    -0.019967
 14 H s       :     1.200596  s :     1.200596
      pz      :    -0.010512  p :     0.016867
      px      :     0.073644
      py      :    -0.046265
 15 O s       :     3.956271  s :     3.956271
      pz      :     1.643754  p :     4.728253
      px      :     1.462022
      py      :     1.622476
      dz2     :     0.006265  d :     0.011033
      dxz     :     0.010235
      dyz     :     0.004015
      dx2y2   :    -0.007965
      dxy     :    -0.001517
 16 O s       :     3.953977  s :     3.953977
      pz      :     1.532174  p :     4.653623
      px      :     1.379559
      py      :     1.741889
      dz2     :     0.009640  d :     0.028905
      dxz     :     0.004956
      dyz     :     0.006080
      dx2y2   :     0.004662
      dxy     :     0.003567
 17 C s       :     2.788380  s :     2.788380
      pz      :     0.755946  p :     2.556837
      px      :     0.935077
      py      :     0.865813
      dz2     :     0.109122  d :     0.342694
      dxz     :     0.019447
      dyz     :     0.069231
      dx2y2   :     0.059802
      dxy     :     0.085092
 18 H s       :     1.317805  s :     1.317805
      pz      :     0.069054  p :     0.038444
      px      :    -0.001098
      py      :    -0.029512
 19 H s       :     1.140981  s :     1.140981
      pz      :     0.042633  p :    -0.031748
      px      :    -0.039923
      py      :    -0.034459
 20 C s       :     2.849931  s :     2.849931
      pz      :     0.927672  p :     2.618187
      px      :     0.949506
      py      :     0.741009
      dz2     :     0.091540  d :     0.551291
      dxz     :     0.230945
      dyz     :     0.059807
      dx2y2   :     0.030990
      dxy     :     0.138009
 21 C s       :     2.490048  s :     2.490048
      pz      :     0.808568  p :     2.710189
      px      :     0.914105
      py      :     0.987516
      dz2     :     0.059528  d :     0.617194
      dxz     :     0.188548
      dyz     :     0.159320
      dx2y2   :     0.018286
      dxy     :     0.191512
 22 H s       :     0.921252  s :     0.921252
      pz      :     0.002734  p :     0.036177
      px      :     0.011568
      py      :     0.021874
 23 H s       :     1.325314  s :     1.325314
      pz      :     0.017100  p :     0.166486
      px      :    -0.071174
      py      :     0.220560
 24 H s       :     1.110923  s :     1.110923
      pz      :    -0.016128  p :    -0.020457
      px      :    -0.028186
      py      :     0.023858
 25 H s       :     0.877510  s :     0.877510
      pz      :     0.010952  p :     0.031679
      px      :     0.034829
      py      :    -0.014103
 26 C s       :     2.748267  s :     2.748267
      pz      :     0.939695  p :     2.657230
      px      :     0.793465
      py      :     0.924071
      dz2     :     0.176370  d :     0.491641
      dxz     :     0.024228
      dyz     :     0.048519
      dx2y2   :     0.205451
      dxy     :     0.037073
 27 H s       :     1.127135  s :     1.127135
      pz      :     0.052654  p :     0.005260
      px      :    -0.015881
      py      :    -0.031513
 28 H s       :     1.021939  s :     1.021939
      pz      :    -0.030934  p :     0.015822
      px      :     0.020389
      py      :     0.026367
 29 C s       :     2.918564  s :     2.918564
      pz      :     0.789130  p :     2.688859
      px      :     0.957072
      py      :     0.942656
      dz2     :     0.232089  d :     0.574828
      dxz     :     0.007780
      dyz     :    -0.003702
      dx2y2   :     0.233761
      dxy     :     0.104900
 30 H s       :     1.166550  s :     1.166550
      pz      :    -0.031964  p :     0.004751
      px      :     0.057082
      py      :    -0.020367
 31 H s       :     1.038570  s :     1.038570
      pz      :     0.083130  p :     0.056931
      px      :    -0.013331
      py      :    -0.012868
 32 C s       :     2.513589  s :     2.513589
      pz      :     0.927385  p :     2.580565
      px      :     0.758355
      py      :     0.894825
      dz2     :     0.022746  d :     0.243300
      dxz     :     0.055257
      dyz     :     0.128956
      dx2y2   :     0.046633
      dxy     :    -0.010291
 33 H s       :     1.331264  s :     1.331264
      pz      :     0.069778  p :     0.035034
      px      :    -0.025062
      py      :    -0.009683
 34 H s       :     0.807874  s :     0.807874
      pz      :    -0.007924  p :     0.016691
      px      :     0.061965
      py      :    -0.037350
 35 H s       :     0.826173  s :     0.826173
      pz      :     0.006416  p :     0.017480
      px      :     0.026287
      py      :    -0.015223
 36 H s       :     1.351557  s :     1.351557
      pz      :    -0.020693  p :     0.010499
      px      :    -0.008565
      py      :     0.039757
 37 H s       :     1.060377  s :     1.060377
      pz      :     0.001216  p :    -0.020193
      px      :    -0.042334
      py      :     0.020924
 38 H s       :     0.998996  s :     0.998996
      pz      :    -0.025828  p :    -0.013480
      px      :     0.029918
      py      :    -0.017570
 39 F s       :     3.985590  s :     3.985590
      pz      :     1.573424  p :     5.485300
      px      :     1.949832
      py      :     1.962044
      dz2     :     0.009103  d :     0.028776
      dxz     :     0.003897
      dyz     :     0.005651
      dx2y2   :     0.003835
      dxy     :     0.006290


                     *******************************
                     * LOEWDIN POPULATION ANALYSIS *
                     *******************************

----------------------
LOEWDIN ATOMIC CHARGES
----------------------
   0 C :    0.058964
   1 N :    0.015902
   2 C :   -0.034721
   3 C :   -0.044308
   4 H :    0.031922
   5 H :    0.039183
   6 S :    1.113746
   7 C :   -0.229437
   8 N :    0.226854
   9 C :    0.159748
  10 H :   -0.118622
  11 H :   -0.107722
  12 H :   -0.067635
  13 H :   -0.129866
  14 H :    0.010112
  15 O :   -0.415780
  16 O :   -0.406593
  17 C :   -0.014562
  18 H :    0.012606
  19 H :    0.018570
  20 C :   -0.033967
  21 C :   -0.034236
  22 H :    0.042549
  23 H :   -0.013306
  24 H :    0.041057
  25 H :    0.032217
  26 C :   -0.033819
  27 H :    0.023462
  28 H :    0.014141
  29 C :   -0.042669
  30 H :    0.028792
  31 H :    0.008353
  32 C :   -0.030938
  33 H :    0.026277
  34 H :    0.002907
  35 H :    0.022526
  36 H :    0.027256
  37 H :    0.022640
  38 H :    0.025795
  39 F :   -0.247398

-------------------------------
LOEWDIN REDUCED ORBITAL CHARGES
-------------------------------
  0 C s       :     2.661677  s :     2.661677
      pz      :     0.787827  p :     2.578149
      px      :     0.896753
      py      :     0.893570
      dz2     :     0.159957  d :     0.701209
      dxz     :     0.188621
      dyz     :     0.120522
      dx2y2   :     0.099487
      dxy     :     0.132622
  1 N s       :     2.886531  s :     2.886531
      pz      :     1.042945  p :     3.457936
      px      :     1.302652
      py      :     1.112339
      dz2     :     0.171978  d :     0.639630
      dxz     :     0.124656
      dyz     :     0.182191
      dx2y2   :     0.071008
      dxy     :     0.089799
  2 C s       :     2.679869  s :     2.679869
      pz      :     0.902849  p :     2.687474
      px      :     0.869234
      py      :     0.915391
      dz2     :     0.147967  d :     0.667378
      dxz     :     0.180856
      dyz     :     0.131533
      dx2y2   :     0.107108
      dxy     :     0.099914
  3 C s       :     2.717452  s :     2.717452
      pz      :     0.947201  p :     2.711275
      px      :     0.940195
      py      :     0.823879
      dz2     :     0.124056  d :     0.615581
      dxz     :     0.101058
      dyz     :     0.070937
      dx2y2   :     0.142022
      dxy     :     0.177507
  4 H s       :     0.710984  s :     0.710984
      pz      :     0.084764  p :     0.257094
      px      :     0.091313
      py      :     0.081017
  5 H s       :     0.701624  s :     0.701624
      pz      :     0.127013  p :     0.259194
      px      :     0.065380
      py      :     0.066801
  6 S s       :     4.665530  s :     4.665530
      pz      :     2.727143  p :     8.400102
      px      :     2.827039
      py      :     2.845920
      dz2     :     0.415658  d :     1.820622
      dxz     :     0.390641
      dyz     :     0.254668
      dx2y2   :     0.398416
      dxy     :     0.361239
  7 C s       :     2.624192  s :     2.624192
      pz      :     0.861814  p :     2.523619
      px      :     0.757493
      py      :     0.904312
      dz2     :     0.238555  d :     1.081626
      dxz     :     0.218969
      dyz     :     0.262728
      dx2y2   :     0.174575
      dxy     :     0.186799
  8 N s       :     2.910219  s :     2.910219
      pz      :     1.058883  p :     3.497528
      px      :     1.367353
      py      :     1.071292
      dz2     :     0.088090  d :     0.365400
      dxz     :     0.082912
      dyz     :     0.146562
      dx2y2   :     0.033667
      dxy     :     0.014168
  9 C s       :     2.729801  s :     2.729801
      pz      :     0.914737  p :     2.781698
      px      :     0.956184
      py      :     0.910777
      dz2     :     0.076393  d :     0.328753
      dxz     :     0.033260
      dyz     :     0.105958
      dx2y2   :     0.056864
      dxy     :     0.056278
 10 H s       :     0.750012  s :     0.750012
      pz      :     0.142284  p :     0.368610
      px      :     0.134923
      py      :     0.091402
 11 H s       :     0.770865  s :     0.770865
      pz      :     0.106007  p :     0.336858
      px      :     0.124643
      py      :     0.106207
 12 H s       :     0.617074  s :     0.617074
      pz      :     0.117288  p :     0.450561
      px      :     0.154493
      py      :     0.178780
 13 H s       :     0.613818  s :     0.613818
      pz      :     0.113158  p :     0.516049
      px      :     0.140312
      py      :     0.262579
 14 H s       :     0.654514  s :     0.654514
      pz      :     0.093488  p :     0.335373
      px      :     0.120280
      py      :     0.121605
 15 O s       :     3.521936  s :     3.521936
      pz      :     1.553561  p :     4.596953
      px      :     1.491347
      py      :     1.552045
      dz2     :     0.045093  d :     0.296891
      dxz     :     0.049607
      dyz     :     0.041369
      dx2y2   :     0.090928
      dxy     :     0.069892
 16 O s       :     3.565561  s :     3.565561
      pz      :     1.498361  p :     4.597364
      px      :     1.489521
      py      :     1.609482
      dz2     :     0.044755  d :     0.243668
      dxz     :     0.066366
      dyz     :     0.019814
      dx2y2   :     0.054310
      dxy     :     0.058423
 17 C s       :     2.693787  s :     2.693787
      pz      :     0.895230  p :     2.679328
      px      :     0.888780
      py      :     0.895319
      dz2     :     0.151727  d :     0.641447
      dxz     :     0.073892
      dyz     :     0.085159
      dx2y2   :     0.146137
      dxy     :     0.184533
 18 H s       :     0.722760  s :     0.722760
      pz      :     0.060964  p :     0.264634
      px      :     0.081977
      py      :     0.121693
 19 H s       :     0.718417  s :     0.718417
      pz      :     0.066956  p :     0.263014
      px      :     0.071964
      py      :     0.124094
 20 C s       :     2.685708  s :     2.685708
      pz      :     0.888139  p :     2.675599
      px      :     0.884363
      py      :     0.903097
      dz2     :     0.156209  d :     0.672660
      dxz     :     0.173267
      dyz     :     0.118375
      dx2y2   :     0.094736
      dxy     :     0.130072
 21 C s       :     2.677034  s :     2.677034
      pz      :     0.865454  p :     2.667452
      px      :     0.897675
      py      :     0.904322
      dz2     :     0.161482  d :     0.689750
      dxz     :     0.164760
      dyz     :     0.130642
      dx2y2   :     0.085220
      dxy     :     0.147646
 22 H s       :     0.716406  s :     0.716406
      pz      :     0.068888  p :     0.241044
      px      :     0.077758
      py      :     0.094398
 23 H s       :     0.696393  s :     0.696393
      pz      :     0.090521  p :     0.316913
      px      :     0.089536
      py      :     0.136856
 24 H s       :     0.713784  s :     0.713784
      pz      :     0.065656  p :     0.245159
      px      :     0.065196
      py      :     0.114307
 25 H s       :     0.696986  s :     0.696986
      pz      :     0.071231  p :     0.270798
      px      :     0.090265
      py      :     0.109302
 26 C s       :     2.685405  s :     2.685405
      pz      :     0.905678  p :     2.673144
      px      :     0.895885
      py      :     0.871580
      dz2     :     0.168210  d :     0.675270
      dxz     :     0.046328
      dyz     :     0.142725
      dx2y2   :     0.190532
      dxy     :     0.127475
 27 H s       :     0.722274  s :     0.722274
      pz      :     0.125128  p :     0.254264
      px      :     0.061441
      py      :     0.067695
 28 H s       :     0.710252  s :     0.710252
      pz      :     0.085943  p :     0.275607
      px      :     0.078766
      py      :     0.110898
 29 C s       :     2.685913  s :     2.685913
      pz      :     0.895821  p :     2.672407
      px      :     0.899827
      py      :     0.876759
      dz2     :     0.172652  d :     0.684349
      dxz     :     0.046062
      dyz     :     0.126888
      dx2y2   :     0.194963
      dxy     :     0.143783
 30 H s       :     0.721858  s :     0.721858
      pz      :     0.066894  p :     0.249350
      px      :     0.121128
      py      :     0.061329
 31 H s       :     0.705750  s :     0.705750
      pz      :     0.125777  p :     0.285897
      px      :     0.083561
      py      :     0.076560
 32 C s       :     2.689371  s :     2.689371
      pz      :     0.883428  p :     2.681790
      px      :     0.904612
      py      :     0.893750
      dz2     :     0.151955  d :     0.659777
      dxz     :     0.109744
      dyz     :     0.185863
      dx2y2   :     0.123073
      dxy     :     0.089141
 33 H s       :     0.722883  s :     0.722883
      pz      :     0.120322  p :     0.250840
      px      :     0.067784
      py      :     0.062734
 34 H s       :     0.709998  s :     0.709998
      pz      :     0.086487  p :     0.287095
      px      :     0.127328
      py      :     0.073280
 35 H s       :     0.708338  s :     0.708338
      pz      :     0.078737  p :     0.269137
      px      :     0.077349
      py      :     0.113051
 36 H s       :     0.724413  s :     0.724413
      pz      :     0.066287  p :     0.248331
      px      :     0.068053
      py      :     0.113991
 37 H s       :     0.724268  s :     0.724268
      pz      :     0.072975  p :     0.253092
      px      :     0.082393
      py      :     0.097724
 38 H s       :     0.722399  s :     0.722399
      pz      :     0.063908  p :     0.251806
      px      :     0.121772
      py      :     0.066125
 39 F s       :     3.673456  s :     3.673456
      pz      :     1.618858  p :     5.290341
      px      :     1.847213
      py      :     1.824270
      dz2     :     0.089381  d :     0.283601
      dxz     :     0.075256
      dyz     :     0.073123
      dx2y2   :     0.014280
      dxy     :     0.031560


                      *****************************
                      * MAYER POPULATION ANALYSIS *
                      *****************************

  NA   - Mulliken gross atomic population
  ZA   - Total nuclear charge
  QA   - Mulliken gross atomic charge
  VA   - Mayer's total valence
  BVA  - Mayer's bonded valence
  FA   - Mayer's free valence

  ATOM       NA         ZA         QA         VA         BVA        FA
  0 C      4.9942     6.0000     1.0058     3.5636     3.5636     0.0000
  1 N      6.5501     7.0000     0.4499     3.4268     3.4268    -0.0000
  2 C      5.7634     6.0000     0.2366     4.7119     4.7119     0.0000
  3 C      5.7277     6.0000     0.2723     4.2868     4.2868    -0.0000
  4 H      0.9720     1.0000     0.0280     0.9621     0.9621     0.0000
  5 H      0.9718     1.0000     0.0282     1.0576     1.0576    -0.0000
  6 S     14.6762    16.0000     1.3238     4.8433     4.8433    -0.0000
  7 C      5.3945     6.0000     0.6055     3.1914     3.1914    -0.0000
  8 N      6.3997     7.0000     0.6003     3.5042     3.5042     0.0000
  9 C      5.5187     6.0000     0.4813     3.3675     3.3675     0.0000
 10 H      0.8806     1.0000     0.1194     1.0732     1.0732     0.0000
 11 H      1.6938     1.0000    -0.6938     1.1317     1.1317    -0.0000
 12 H      2.2719     1.0000    -1.2719    -0.2967    -0.2967     0.0000
 13 H      1.4211     1.0000    -0.4211     0.8666     0.8666    -0.0000
 14 H      1.2175     1.0000    -0.2175     0.8250     0.8250     0.0000
 15 O      8.6956     8.0000    -0.6956     1.7805     1.7805    -0.0000
 16 O      8.6365     8.0000    -0.6365     1.7561     1.7561     0.0000
 17 C      5.6879     6.0000     0.3121     4.5976     4.5976     0.0000
 18 H      1.3562     1.0000    -0.3562     0.9189     0.9189     0.0000
 19 H      1.1092     1.0000    -0.1092     0.8417     0.8417     0.0000
 20 C      6.0194     6.0000    -0.0194     5.0915     5.0915     0.0000
 21 C      5.8174     6.0000     0.1826     4.8965     4.8965     0.0000
 22 H      0.9574     1.0000     0.0426     1.0259     1.0259     0.0000
 23 H      1.4918     1.0000    -0.4918     1.3450     1.3450     0.0000
 24 H      1.0905     1.0000    -0.0905     0.9617     0.9617     0.0000
 25 H      0.9092     1.0000     0.0908     1.0452     1.0452     0.0000
 26 C      5.8971     6.0000     0.1029     4.8891     4.8891     0.0000
 27 H      1.1324     1.0000    -0.1324     1.0184     1.0184     0.0000
 28 H      1.0378     1.0000    -0.0378     0.9204     0.9204     0.0000
 29 C      6.1823     6.0000    -0.1823     5.2200     5.2200    -0.0000
 30 H      1.1713     1.0000    -0.1713     1.0185     1.0185     0.0000
 31 H      1.0955     1.0000    -0.0955     1.1868     1.1868     0.0000
 32 C      5.3375     6.0000     0.6625     3.9756     3.9756    -0.0000
 33 H      1.3663     1.0000    -0.3663     1.1081     1.1081    -0.0000
 34 H      0.8246     1.0000     0.1754     1.0127     1.0127    -0.0000
 35 H      0.8437     1.0000     0.1563     1.0048     1.0048     0.0000
 36 H      1.3621     1.0000    -0.3621     1.0571     1.0571     0.0000
 37 H      1.0402     1.0000    -0.0402     0.9596     0.9596     0.0000
 38 H      0.9855     1.0000     0.0145     0.9483     0.9483     0.0000
 39 F      9.4997     9.0000    -0.4997     0.9366     0.9366    -0.0000

  Mayer bond orders larger than 0.100000
B(  0-C ,  1-N ) :   1.0404 B(  0-C , 10-H ) :   0.1187 B(  0-C , 12-H ) :  -0.5396 
B(  0-C , 17-C ) :   1.0986 B(  0-C , 18-H ) :   0.6688 B(  0-C , 19-H ) :   0.8322 
B(  0-C , 26-C ) :   0.1454 B(  0-C , 27-H ) :   0.1102 B(  0-C , 28-H ) :   0.1035 
B(  1-N ,  7-C ) :   1.0206 B(  1-N ,  9-C ) :   0.3319 B(  1-N , 11-H ) :   0.1461 
B(  1-N , 12-H ) :   0.5009 B(  1-N , 13-H ) :   0.1788 B(  1-N , 14-H ) :  -0.1344 
B(  1-N , 18-H ) :   0.3032 B(  2-C ,  3-C ) :   1.2627 B(  2-C ,  5-H ) :   0.2639 
B(  2-C , 20-C ) :   0.1335 B(  2-C , 21-C ) :   1.1686 B(  2-C , 22-H ) :   0.1126 
B(  2-C , 24-H ) :   0.7819 B(  2-C , 25-H ) :   0.8387 B(  3-C ,  4-H ) :   0.8949 
B(  3-C ,  5-H ) :   0.6850 B(  3-C ,  6-S ) :   0.9816 B(  3-C , 16-O ) :   0.1019 
B(  3-C , 21-C ) :   0.1363 B(  3-C , 25-H ) :   0.1158 B(  6-S , 15-O ) :   1.4223 
B(  6-S , 16-O ) :   1.4939 B(  6-S , 39-F ) :   0.6342 B(  7-C ,  8-N ) :   0.9637 
B(  7-C ,  9-C ) :   1.5458 B(  7-C , 10-H ) :   0.3747 B(  7-C , 11-H ) :   0.3796 
B(  7-C , 12-H ) :  -0.7387 B(  7-C , 13-H ) :  -0.2031 B(  7-C , 14-H ) :  -0.1117 
B(  7-C , 18-H ) :   0.1332 B(  8-N ,  9-C ) :   0.2427 B(  8-N , 11-H ) :   0.1041 
B(  8-N , 13-H ) :   0.8976 B(  8-N , 14-H ) :   1.2707 B(  9-C , 10-H ) :   0.5102 
B(  9-C , 11-H ) :   0.6456 B( 10-H , 13-H ) :   0.1863 B( 10-H , 18-H ) :  -0.1201 
B( 10-H , 19-H ) :   0.1346 B( 11-H , 12-H ) :  -0.1231 B( 12-H , 39-F ) :   0.2684 
B( 13-H , 14-H ) :  -0.2820 B( 13-H , 15-O ) :   0.1575 B( 15-O , 16-O ) :   0.1011 
B( 16-O , 39-F ) :   0.1012 B( 17-C , 18-H ) :   0.1280 B( 17-C , 26-C ) :   1.2113 
B( 17-C , 27-H ) :   0.8911 B( 17-C , 28-H ) :   0.7423 B( 17-C , 31-H ) :   0.1361 
B( 18-H , 19-H ) :  -0.2236 B( 20-C , 21-C ) :   1.2583 B( 20-C , 22-H ) :   0.1200 
B( 20-C , 23-H ) :   0.1435 B( 20-C , 29-C ) :   0.1630 B( 20-C , 32-C ) :   1.1532 
B( 20-C , 35-H ) :   0.8186 B( 20-C , 36-H ) :   0.9429 B( 20-C , 37-H ) :   0.1222 
B( 20-C , 38-H ) :   0.2310 B( 21-C , 22-H ) :   0.7020 B( 21-C , 23-H ) :   0.8235 
B( 21-C , 24-H ) :   0.1993 B( 21-C , 25-H ) :   0.1080 B( 21-C , 35-H ) :   0.1097 
B( 21-C , 36-H ) :   0.2099 B( 22-H , 23-H ) :   0.1898 B( 23-H , 34-H ) :   0.1301 
B( 26-C , 27-H ) :   0.1113 B( 26-C , 28-H ) :   0.2166 B( 26-C , 29-C ) :   1.2366 
B( 26-C , 30-H ) :   0.8516 B( 26-C , 31-H ) :   0.8939 B( 26-C , 33-H ) :   0.1508 
B( 26-C , 34-H ) :   0.1061 B( 27-H , 28-H ) :  -0.1345 B( 29-C , 30-H ) :   0.1694 
B( 29-C , 31-H ) :   0.1263 B( 29-C , 32-C ) :   1.1480 B( 29-C , 33-H ) :   1.0282 
B( 29-C , 34-H ) :   0.8057 B( 29-C , 37-H ) :   0.3035 B( 29-C , 38-H ) :   0.1440 
B( 32-C , 37-H ) :   0.6327 B( 32-C , 38-H ) :   0.6700 B( 37-H , 38-H ) :  -0.1088 


-------
TIMINGS
-------

Total SCF time: 0 days 0 hours 1 min 13 sec 

Total time                  ....      73.297 sec
Sum of individual times     ....      72.420 sec  ( 98.8%)

Fock matrix formation       ....      66.132 sec  ( 90.2%)
  Split-RI-J                ....      23.595 sec  ( 35.7% of F)
  XC integration            ....      42.112 sec  ( 63.7% of F)
    Basis function eval.    ....      11.840 sec  ( 28.1% of XC)
    Density eval.           ....      15.033 sec  ( 35.7% of XC)
    XC-Functional eval.     ....       0.875 sec  (  2.1% of XC)
    XC-Potential eval.      ....      13.113 sec  ( 31.1% of XC)
Diagonalization             ....       0.726 sec  (  1.0%)
Density matrix formation    ....       0.073 sec  (  0.1%)
Population analysis         ....       0.087 sec  (  0.1%)
Initial guess               ....       1.528 sec  (  2.1%)
Orbital Transformation      ....       0.000 sec  (  0.0%)
Orbital Orthonormalization  ....       0.000 sec  (  0.0%)
DIIS solution               ....       0.393 sec  (  0.5%)
SOSCF solution              ....       1.098 sec  (  1.5%)
Grid generation             ....       2.384 sec  (  3.3%)

Maximum memory used throughout the entire SCF-calculation: 94.5 MB


-------------------------------------------------------------------------------
                          DFT DISPERSION CORRECTION                            
                                                                               
                              DFTD3 V3.1  Rev 1                                
                          USING Becke-Johnson damping                          
-------------------------------------------------------------------------------
The PBE functional is recognized
Active option DFTDOPT                   ...         4   

molecular C6(AA) [au] = 13772.218717 


            DFT-D V3
 parameters
 s6 scaling factor         :     1.0000 
 a1 scaling factor         :     0.4289 
 s8 scaling factor         :     0.7875 
 a2 scaling factor         :     4.4407 
 ad hoc parameters k1-k3   :    16.0000     1.3333    -4.0000 

 Edisp/kcal,au: -30.346457455497  -0.048360153070 
 E6   /kcal   : -21.887830593 
 E8   /kcal   :  -8.458626863 
 % E8         :  27.873523211 

-------------------------   ----------------
Dispersion correction           -0.048360153
-------------------------   ----------------


-------------------------   --------------------
FINAL SINGLE POINT ENERGY     -1189.151041322670
-------------------------   --------------------


                            ***************************************
                            *     ORCA property calculations      *
                            ***************************************

                                    ---------------------
                                    Active property flags
                                    ---------------------
   (+) Dipole Moment


------------------------------------------------------------------------------
                       ORCA ELECTRIC PROPERTIES CALCULATION
------------------------------------------------------------------------------

Dipole Moment Calculation                       ... on
Quadrupole Moment Calculation                   ... off
Polarizability Calculation                      ... off
GBWName                                         ... 28Oct_SVPD_PBE_D9_wb97.gbw
Electron density file                           ... 28Oct_SVPD_PBE_D9_wb97.scfp
The origin for moment calculation is the CENTER OF MASS  = ( 8.539747, -1.087329 -8.832600)

-------------
DIPOLE MOMENT
-------------
                                X             Y             Z
Electronic contribution:    -18.95166       1.91770     -17.88240
Nuclear contribution   :     18.85717      -4.60195      17.96505
                        -----------------------------------------
Total Dipole Moment    :     -0.09449      -2.68425       0.08265
                        -----------------------------------------
Magnitude (a.u.)       :      2.68718
Magnitude (Debye)      :      6.83028



--------------------
Rotational spectrum 
--------------------
 
Rotational constants in cm-1:     0.014436     0.012382     0.007563 
Rotational constants in MHz :   432.785702   371.214592   226.743759 

 Dipole components along the rotational axes: 
x,y,z [a.u.] :    -0.829512     2.520891     0.421866 
x,y,z [Debye]:    -2.108453     6.407595     1.072297 

 

Timings for individual modules:

Sum of individual times         ...       74.625 sec (=   1.244 min)
GTO integral calculation        ...        0.955 sec (=   0.016 min)   1.3 %
SCF iterations                  ...       73.670 sec (=   1.228 min)  98.7 %
                             ****ORCA TERMINATED NORMALLY****
TOTAL RUN TIME: 0 days 0 hours 1 minutes 15 seconds 263 msec
