
                                        *****************
                                        * O   R   C   A *
                                        *****************

                                            #,                                       
                                            ###                                      
                                            ####                                     
                                            #####                                    
                                            ######                                   
                                           ########,                                 
                                     ,,################,,,,,                         
                               ,,#################################,,                 
                          ,,##########################################,,             
                       ,#########################################, ''#####,          
                    ,#############################################,,   '####,        
                  ,##################################################,,,,####,       
                ,###########''''           ''''###############################       
              ,#####''   ,,,,##########,,,,          '''####'''          '####       
            ,##' ,,,,###########################,,,                        '##       
           ' ,,###''''                  '''############,,,                           
         ,,##''                                '''############,,,,        ,,,,,,###''
      ,#''                                            '''#######################'''  
     '                                                          ''''####''''         
             ,#######,   #######,   ,#######,      ##                                
            ,#'     '#,  ##    ##  ,#'     '#,    #''#        ######   ,####,        
            ##       ##  ##   ,#'  ##            #'  '#       #        #'  '#        
            ##       ##  #######   ##           ,######,      #####,   #    #        
            '#,     ,#'  ##    ##  '#,     ,#' ,#      #,         ##   #,  ,#        
             '#######'   ##     ##  '#######'  #'      '#     #####' # '####'        



                  #######################################################
                  #                        -***-                        #
                  #          Department of theory and spectroscopy      #
                  #    Directorship and core code : Frank Neese         #
                  #        Max Planck Institute fuer Kohlenforschung    #
                  #                Kaiser Wilhelm Platz 1               #
                  #                 D-45470 Muelheim/Ruhr               #
                  #                      Germany                        #
                  #                                                     #
                  #                  All rights reserved                #
                  #                        -***-                        #
                  #######################################################


                         Program Version 5.0.0 -  RELEASE  -
                                (SVN: $Rev: 19529$)
                ($Date: 2021-06-28 11:36:33 +0200 (Mo, 28 Jun 2021) $)


 With contributions from (in alphabetic order):
   Daniel Aravena         : Magnetic Suceptibility
   Michael Atanasov       : Ab Initio Ligand Field Theory (pilot matlab implementation)
   Alexander A. Auer      : GIAO ZORA, VPT2 properties, NMR spectrum
   Ute Becker             : Parallelization
   Giovanni Bistoni       : ED, misc. LED, open-shell LED, HFLD
   Martin Brehm           : Molecular dynamics
   Dmytro Bykov           : SCF Hessian
   Vijay G. Chilkuri      : MRCI spin determinant printing, contributions to CSF-ICE
   Dipayan Datta          : RHF DLPNO-CCSD density
   Achintya Kumar Dutta   : EOM-CC, STEOM-CC
   Dmitry Ganyushin       : Spin-Orbit,Spin-Spin,Magnetic field MRCI
   Miquel Garcia          : C-PCM Hessian, Gaussian charge scheme
   Yang Guo               : DLPNO-NEVPT2, F12-NEVPT2, CIM, IAO-localization
   Andreas Hansen         : Spin unrestricted coupled pair/coupled cluster methods
   Benjamin Helmich-Paris : MC-RPA, TRAH-SCF, COSX integrals
   Lee Huntington         : MR-EOM, pCC
   Robert Izsak           : Overlap fitted RIJCOSX, COSX-SCS-MP3, EOM
   Marcus Kettner         : VPT2
   Christian Kollmar      : KDIIS, OOCD, Brueckner-CCSD(T), CCSD density, CASPT2, CASPT2-K
   Simone Kossmann        : Meta GGA functionals, TD-DFT gradient, OOMP2, MP2 Hessian
   Martin Krupicka        : Initial AUTO-CI
   Lucas Lang             : DCDCAS
   Marvin Lechner         : AUTO-CI (C++ implementation), FIC-MRCC
   Dagmar Lenk            : GEPOL surface, SMD
   Dimitrios Liakos       : Extrapolation schemes; Compound Job, initial MDCI parallelization
   Dimitrios Manganas     : Further ROCIS development; embedding schemes
   Dimitrios Pantazis     : SARC Basis sets
   Anastasios Papadopoulos: AUTO-CI, single reference methods and gradients
   Taras Petrenko         : DFT Hessian,TD-DFT gradient, ASA, ECA, R-Raman, ABS, FL, XAS/XES, NRVS
   Peter Pinski           : DLPNO-MP2, DLPNO-MP2 Gradient
   Christoph Reimann      : Effective Core Potentials
   Marius Retegan         : Local ZFS, SOC
   Christoph Riplinger    : Optimizer, TS searches, QM/MM, DLPNO-CCSD(T), (RO)-DLPNO pert. Triples
   Tobias Risthaus        : Range-separated hybrids, TD-DFT gradient, RPA, STAB
   Michael Roemelt        : Original ROCIS implementation
   Masaaki Saitow         : Open-shell DLPNO-CCSD energy and density
   Barbara Sandhoefer     : DKH picture change effects
   Avijit Sen             : IP-ROCIS
   Kantharuban Sivalingam : CASSCF convergence, NEVPT2, FIC-MRCI
   Bernardo de Souza      : ESD, SOC TD-DFT
   Georgi Stoychev        : AutoAux, RI-MP2 NMR
   Willem Van den Heuvel  : Paramagnetic NMR
   Boris Wezisla          : Elementary symmetry handling
   Frank Wennmohs         : Technical directorship


 We gratefully acknowledge several colleagues who have allowed us to
 interface, adapt or use parts of their codes:
   Stefan Grimme, W. Hujo, H. Kruse, P. Pracht,  : VdW corrections, initial TS optimization,
                  C. Bannwarth, S. Ehlert          DFT functionals, gCP, sTDA/sTD-DF
   Ed Valeev, F. Pavosevic, A. Kumar             : LibInt (2-el integral package), F12 methods
   Garnet Chan, S. Sharma, J. Yang, R. Olivares  : DMRG
   Ulf Ekstrom                                   : XCFun DFT Library
   Mihaly Kallay                                 : mrcc  (arbitrary order and MRCC methods)
   Jiri Pittner, Ondrej Demel                    : Mk-CCSD
   Frank Weinhold                                : gennbo (NPA and NBO analysis)
   Christopher J. Cramer and Donald G. Truhlar   : smd solvation model
   Lars Goerigk                                  : TD-DFT with DH, B97 family of functionals
   V. Asgeirsson, H. Jonsson                     : NEB implementation
   FAccTs GmbH                                   : IRC, NEB, NEB-TS, DLPNO-Multilevel, CI-OPT
                                                   MM, QMMM, 2- and 3-layer-ONIOM, Crystal-QMMM,
                                                   LR-CPCM, SF, NACMEs, symmetry and pop. for TD-DFT,
                                                   nearIR, NL-DFT gradient (VV10), updates on ESD,
                                                   ML-optimized integration grids
   S Lehtola, MJT Oliveira, MAL Marques          : LibXC Library
   Liviu Ungur et al                             : ANISO software


 Your calculation uses the libint2 library for the computation of 2-el integrals
 For citations please refer to: http://libint.valeyev.net

 Your ORCA version has been built with support for libXC version: 5.1.0
 For citations please refer to: https://tddft.org/programs/libxc/

 This ORCA versions uses:
   CBLAS   interface :  Fast vector & matrix operations
   LAPACKE interface :  Fast linear algebra routines
   SCALAPACK package :  Parallel linear algebra routines
   Shared memory     :  Shared parallel matrices
   BLAS/LAPACK       :  OpenBLAS 0.3.15  USE64BITINT DYNAMIC_ARCH NO_AFFINITY Haswell SINGLE_THREADED
        Core in use  :  Haswell
   Copyright (c) 2011-2014, The OpenBLAS Project


Your calculation utilizes the atom-pairwise dispersion correction
with the zero-damping scheme (D30)
Cite in your paper:
S.Grimme, J.Antony, S.Ehrlich and H.Krieg, J.Chem.Phys., 132, (2010), 154104 
   

XCFun DFT library Copyright 2009-2010 Ulf Ekstrom and contributors.
See http://admol.org/xcfun for more information.
This is free software; see the source code for copying conditions.
There is ABSOLUTELY NO WARRANTY; not even for MERCHANTABILITY or FITNESS FOR A PARTICULAR PURPOSE.
For details see the documentation.
Scientific users of this library should cite U. Ekstrom, L. Visscher, R. Bast, A. J. Thorvaldsen and K. Ruud;
J.Chem.Theor.Comp. 2010, DOI: 10.1021/ct100117s
XCFun Version 0.99 

================================================================================

----- Orbital basis set information -----
Your calculation utilizes the basis: def2-SVP
   F. Weigend and R. Ahlrichs, Phys. Chem. Chem. Phys. 7, 3297 (2005).

----- AuxJ basis set information -----
Your calculation utilizes the auxiliary basis: def2/J
   F. Weigend, Phys. Chem. Chem. Phys. 8, 1057 (2006).

================================================================================
                                        WARNINGS
                       Please study these warnings very carefully!
================================================================================


WARNING: Minnesota functionals are quite sensitive to the integration grid.
         see SE Wheeler, KN Houk, JCTC 2010, 6, 395,
             N Mardirossian, M Head-Gordon, JCTC 2016, 12, 4303.
         DEFGRID3 seems to be a minimum grid for reliable results with these functionals!
  ===> : Please increase the integration grid!


INFO   : the flag for use of the SHARK integral package has been found!

================================================================================
                                       INPUT FILE
================================================================================
NAME = SVP_M062X_A_wt_dlpno_neg.com
|  1> !M062X D3Zero RIJCOSX def2-SVP def2/J TightSCF
|  2> *xyz -1 1 
|  3> C         -0.05517        1.61942       -3.78858
|  4> C          1.22302        2.46987       -3.75691
|  5> H          1.11470        3.25807       -4.53300
|  6> H          1.23773        3.01124       -2.79216
|  7> O          2.35381        1.71203       -3.93448
|  8> H         -0.10198        1.08015       -4.71156
|  9> H         -0.91014        2.25726       -3.70441
| 10> H         -0.04403        0.92826       -2.97183
| 11> *
| 12> 
| 13> %MaxCore 64000
| 14> 
| 15> %pal nprocs 4
| 16> end  
| 17> 
| 18> %scf
| 19>   MaxIter 150
| 20> end
| 21> 
| 22> 
| 23>                          ****END OF INPUT****
================================================================================

                       ****************************
                       * Single Point Calculation *
                       ****************************

---------------------------------
CARTESIAN COORDINATES (ANGSTROEM)
---------------------------------
  C     -0.055170    1.619420   -3.788580
  C      1.223020    2.469870   -3.756910
  H      1.114700    3.258070   -4.533000
  H      1.237730    3.011240   -2.792160
  O      2.353810    1.712030   -3.934480
  H     -0.101980    1.080150   -4.711560
  H     -0.910140    2.257260   -3.704410
  H     -0.044030    0.928260   -2.971830

----------------------------
CARTESIAN COORDINATES (A.U.)
----------------------------
  NO LB      ZA    FRAG     MASS         X           Y           Z
   0 C     6.0000    0    12.011   -0.104256    3.060260   -7.159379
   1 C     6.0000    0    12.011    2.311173    4.667378   -7.099531
   2 H     1.0000    0     1.008    2.106478    6.156860   -8.566129
   3 H     1.0000    0     1.008    2.338971    5.690419   -5.276418
   4 O     8.0000    0    15.999    4.448056    3.235268   -7.435090
   5 H     1.0000    0     1.008   -0.192714    2.041188   -8.903558
   6 H     1.0000    0     1.008   -1.719915    4.265603   -7.000320
   7 H     1.0000    0     1.008   -0.083205    1.754157   -5.615945

--------------------------------
INTERNAL COORDINATES (ANGSTROEM)
--------------------------------
 C      0   0   0     0.000000000000     0.00000000     0.00000000
 C      1   0   0     1.535590397046     0.00000000     0.00000000
 H      2   1   0     1.111444173362   107.29141528     0.00000000
 H      2   1   3     1.106363603658   107.46069748   112.75963027
 O      2   1   3     1.372784977555   112.16284146   236.06985532
 H      1   2   3     1.069997845512   109.47093275    67.24057344
 H      1   2   3     1.069999138037   109.47136656   307.24054334
 H      1   2   3     1.070003181163   109.47107181   187.24094478

---------------------------
INTERNAL COORDINATES (A.U.)
---------------------------
 C      0   0   0     0.000000000000     0.00000000     0.00000000
 C      1   0   0     2.901845304296     0.00000000     0.00000000
 H      2   1   0     2.100325100796   107.29141528     0.00000000
 H      2   1   3     2.090724215453   107.46069748   112.75963027
 O      2   1   3     2.594187648340   112.16284146   236.06985532
 H      1   2   3     2.022002891903   109.47093275    67.24057344
 H      1   2   3     2.022005334422   109.47136656   307.24054334
 H      1   2   3     2.022012974824   109.47107181   187.24094478

---------------------
BASIS SET INFORMATION
---------------------
There are 3 groups of distinct atoms

 Group   1 Type C   : 7s4p1d contracted to 3s2p1d pattern {511/31/1}
 Group   2 Type H   : 4s1p contracted to 2s1p pattern {31/1}
 Group   3 Type O   : 7s4p1d contracted to 3s2p1d pattern {511/31/1}

Atom   0C    basis set group =>   1
Atom   1C    basis set group =>   1
Atom   2H    basis set group =>   2
Atom   3H    basis set group =>   2
Atom   4O    basis set group =>   3
Atom   5H    basis set group =>   2
Atom   6H    basis set group =>   2
Atom   7H    basis set group =>   2
---------------------------------
AUXILIARY/J BASIS SET INFORMATION
---------------------------------
There are 3 groups of distinct atoms

 Group   1 Type C   : 12s5p4d2f1g contracted to 6s4p3d1f1g pattern {711111/2111/211/2/1}
 Group   2 Type H   : 5s2p1d contracted to 3s1p1d pattern {311/2/1}
 Group   3 Type O   : 12s5p4d2f1g contracted to 6s4p3d1f1g pattern {711111/2111/211/2/1}

Atom   0C    basis set group =>   1
Atom   1C    basis set group =>   1
Atom   2H    basis set group =>   2
Atom   3H    basis set group =>   2
Atom   4O    basis set group =>   3
Atom   5H    basis set group =>   2
Atom   6H    basis set group =>   2
Atom   7H    basis set group =>   2


           ************************************************************
           *        Program running with 4 parallel MPI-processes     *
           *              working on a common directory               *
           ************************************************************
------------------------------------------------------------------------------
                           ORCA GTO INTEGRAL CALCULATION
                           -- RI-GTO INTEGRALS CHOSEN --
------------------------------------------------------------------------------
------------------------------------------------------------------------------
                   ___                                                        
                  /   \      - P O W E R E D   B Y -                         
                 /     \                                                     
                 |  |  |   _    _      __       _____    __    __             
                 |  |  |  | |  | |    /  \     |  _  \  |  |  /  |          
                  \  \/   | |  | |   /    \    | | | |  |  | /  /          
                 / \  \   | |__| |  /  /\  \   | |_| |  |  |/  /          
                |  |  |   |  __  | /  /__\  \  |    /   |      \           
                |  |  |   | |  | | |   __   |  |    \   |  |\   \          
                \     /   | |  | | |  |  |  |  | |\  \  |  | \   \       
                 \___/    |_|  |_| |__|  |__|  |_| \__\ |__|  \__/        
                                                                              
                      - O R C A' S   B I G   F R I E N D -                    
                                      &                                       
                       - I N T E G R A L  F E E D E R -                       
                                                                              
 v1 FN, 2020, v2 2021                                                         
------------------------------------------------------------------------------


Reading SHARK input file SVP_M062X_A_wt_dlpno_neg.SHARKINP.tmp ... ok
----------------------
SHARK INTEGRAL PACKAGE
----------------------

Number of atoms                             ...      8
Number of basis functions                   ...     67
Number of shells                            ...     33
Maximum angular momentum                    ...      2
Integral batch strategy                     ... SHARK/LIBINT Hybrid
RI-J (if used) integral strategy            ... SPLIT-RIJ (Revised 2003 algorithm where possible)
Printlevel                                  ...      1
Contraction scheme used                     ... SEGMENTED contraction
Coulomb Range Separation                    ... NOT USED
Exchange Range Separation                   ... NOT USED
Finite Nucleus Model                        ... NOT USED
Auxiliary Coulomb fitting basis             ... AVAILABLE
   # of basis functions in Aux-J            ...    202
   # of shells in Aux-J                     ...     70
   Maximum angular momentum in Aux-J        ...      4
Auxiliary J/K fitting basis                 ... NOT available
Auxiliary Correlation fitting basis         ... NOT available
Auxiliary 'external' fitting basis          ... NOT available
Integral threshold                          ...     2.500000e-11
Primitive cut-off                           ...     2.500000e-12
Primitive pair pre-selection threshold      ...     2.500000e-12

Calculating pre-screening integrals         ... done (  0.0 sec) Dimension = 33
Organizing shell pair data                  ... done (  0.0 sec)
Shell pair information
Total number of shell pairs                 ...       561
Shell pairs after pre-screening             ...       559
Total number of primitive shell pairs       ...      1945
Primitive shell pairs kept                  ...      1682
          la=0 lb=0:    189 shell pairs
          la=1 lb=0:    208 shell pairs
          la=1 lb=1:     66 shell pairs
          la=2 lb=0:     57 shell pairs
          la=2 lb=1:     33 shell pairs
          la=2 lb=2:      6 shell pairs

Calculating one electron integrals          ... done (  0.0 sec)
Calculating RI/J V-Matrix + Cholesky decomp.... done (  0.0 sec)
Calculating Nuclear repulsion               ... done (  0.0 sec) ENN=     74.418249709235 Eh

SHARK setup successfully completed in   0.1 seconds

Maximum memory used throughout the entire GTOINT-calculation: 8.7 MB


           ************************************************************
           *        Program running with 4 parallel MPI-processes     *
           *              working on a common directory               *
           ************************************************************
-------------------------------------------------------------------------------
                                 ORCA SCF
-------------------------------------------------------------------------------

------------
SCF SETTINGS
------------
Hamiltonian:
 Density Functional     Method          .... DFT(GTOs)
 Exchange Functional    Exchange        .... M062X
 Correlation Functional Correlation     .... M062X
 Gradients option       PostSCFGGA      .... off
 Hybrid DFT is turned on
   Fraction HF Exchange ScalHFX         ....  0.540000
   Scaling of DF-GGA-X  ScalDFX         ....  0.460000
   Scaling of DF-GGA-C  ScalDFC         ....  1.000000
   Scaling of DF-LDA-C  ScalLDAC        ....  1.000000
   Perturbative correction              ....  0.000000
   Density functional embedding theory  .... OFF
 RI-approximation to the Coulomb term is turned on
   Number of AuxJ basis functions       .... 202
   RIJ-COSX (HFX calculated with COS-X)).... on


General Settings:
 Integral files         IntName         .... SVP_M062X_A_wt_dlpno_neg
 Hartree-Fock type      HFTyp           .... RHF
 Total Charge           Charge          ....   -1
 Multiplicity           Mult            ....    1
 Number of Electrons    NEL             ....   26
 Basis Dimension        Dim             ....   67
 Nuclear Repulsion      ENuc            ....     74.4182497092 Eh

Convergence Acceleration:
 DIIS                   CNVDIIS         .... on
   Start iteration      DIISMaxIt       ....    12
   Startup error        DIISStart       ....  0.200000
   # of expansion vecs  DIISMaxEq       ....     5
   Bias factor          DIISBfac        ....   1.050
   Max. coefficient     DIISMaxC        ....  10.000
 Trust-Rad. Augm. Hess. CNVTRAH         .... auto
   Auto Start mean grad. ratio tolernc. ....  1.125000
   Auto Start start iteration           ....    20
   Auto Start num. interpolation iter.  ....    10
   Max. Number of Micro iterations      ....    16
   Max. Number of Macro iterations      .... Maxiter - #DIIS iter
   Number of Davidson start vectors     ....     2
   Converg. threshold I  (grad. norm)   ....   1.000e-05
   Converg. threshold II (energy diff.) ....   1.000e-08
   Grad. Scal. Fac. for Micro threshold ....   0.100
   Minimum threshold for Micro iter.    ....   0.010
   NR start threshold (gradient norm)   ....   0.001
   Initial trust radius                 ....   0.400
   Minimum AH scaling param. (alpha)    ....   1.000
   Maximum AH scaling param. (alpha)    .... 1000.000
   Orbital update algorithm             .... Taylor
   White noise on init. David. guess    .... on
   Maximum white noise                  ....   0.010
   Quad. conv. algorithm                .... NR
 SOSCF                  CNVSOSCF        .... on
   Start iteration      SOSCFMaxIt      ....   150
   Startup grad/error   SOSCFStart      ....  0.003300
 Level Shifting         CNVShift        .... on
   Level shift para.    LevelShift      ....    0.2500
   Turn off err/grad.   ShiftErr        ....    0.0010
 Zerner damping         CNVZerner       .... off
 Static damping         CNVDamp         .... on
   Fraction old density DampFac         ....    0.7000
   Max. Damping (<1)    DampMax         ....    0.9800
   Min. Damping (>=0)   DampMin         ....    0.0000
   Turn off err/grad.   DampErr         ....    0.1000
 Fernandez-Rico         CNVRico         .... off

SCF Procedure:
 Maximum # iterations   MaxIter         ....   150
 SCF integral mode      SCFMode         .... Direct
   Integral package                     .... SHARK and LIBINT hybrid scheme
 Reset frequency        DirectResetFreq ....    20
 Integral Threshold     Thresh          ....  2.500e-11 Eh
 Primitive CutOff       TCut            ....  2.500e-12 Eh

Convergence Tolerance:
 Convergence Check Mode ConvCheckMode   .... Total+1el-Energy
 Convergence forced     ConvForced      .... 0
 Energy Change          TolE            ....  1.000e-08 Eh
 1-El. energy change                    ....  1.000e-05 Eh
 Orbital Gradient       TolG            ....  1.000e-05
 Orbital Rotation angle TolX            ....  1.000e-05
 DIIS Error             TolErr          ....  5.000e-07


Diagonalization of the overlap matrix:
Smallest eigenvalue                        ... 3.892e-03
Time for diagonalization                   ...    0.001 sec
Threshold for overlap eigenvalues          ... 1.000e-08
Number of eigenvalues below threshold      ... 0
Time for construction of square roots      ...    0.001 sec
Total time needed                          ...    0.003 sec

Time for model grid setup =    0.031 sec

------------------------------
INITIAL GUESS: MODEL POTENTIAL
------------------------------
Loading Hartree-Fock densities                     ... done
Calculating cut-offs                               ... done
Initializing the effective Hamiltonian             ... done
Setting up the integral package (SHARK)            ... done
Starting the Coulomb interaction                   ... done (   0.0 sec)
Reading the grid                                   ... done
Mapping shells                                     ... done
Starting the XC term evaluation                    ... done (   0.0 sec)
  promolecular density results
     # of electrons  =     24.997228572
     EX              =    -19.794063364
     EC              =     -0.801388671
     EX+EC           =    -20.595452034
Transforming the Hamiltonian                       ... done (   0.0 sec)
Diagonalizing the Hamiltonian                      ... done (   0.0 sec)
Back transforming the eigenvectors                 ... done (   0.0 sec)
Now organizing SCF variables                       ... done
                      ------------------
                      INITIAL GUESS DONE (   0.1 sec)
                      ------------------
-------------------
DFT GRID GENERATION
-------------------

General Integration Accuracy     IntAcc      ... 4.388
Radial Grid Type                 RadialGrid  ... OptM3 with GC (2021)
Angular Grid (max. ang.)         AngularGrid ... 4 (Lebedev-302)
Angular grid pruning method      GridPruning ... 4 (adaptive)
Weight generation scheme         WeightScheme... Becke
Basis function cutoff            BFCut       ... 1.0000e-11
Integration weight cutoff        WCut        ... 1.0000e-14
Angular grids for H and He will be reduced by one unit
Partially contracted basis set               ... off
Rotationally invariant grid construction     ... off

Total number of grid points                  ...    34529
Total number of batches                      ...      543
Average number of points per batch           ...       63
Average number of grid points per atom       ...     4316
Time for grid setup =    0.180 sec

--------------------
COSX GRID GENERATION
--------------------

GRIDX 1
-------
General Integration Accuracy     IntAcc      ... 3.816
Radial Grid Type                 RadialGrid  ... OptM3 with GC (2021)
Angular Grid (max. ang.)         AngularGrid ... 1 (Lebedev-50)
Angular grid pruning method      GridPruning ... 4 (adaptive)
Weight generation scheme         WeightScheme... Becke
Basis function cutoff            BFCut       ... 1.0000e-11
Integration weight cutoff        WCut        ... 1.0000e-14
Angular grids for H and He will be reduced by one unit
Partially contracted basis set               ... on
Rotationally invariant grid construction     ... off

Total number of grid points                  ...     4436
Total number of batches                      ...       75
Average number of points per batch           ...       59
Average number of grid points per atom       ...      554
UseSFitting                                  ... on

GRIDX 2
-------
General Integration Accuracy     IntAcc      ... 4.020
Radial Grid Type                 RadialGrid  ... OptM3 with GC (2021)
Angular Grid (max. ang.)         AngularGrid ... 2 (Lebedev-110)
Angular grid pruning method      GridPruning ... 4 (adaptive)
Weight generation scheme         WeightScheme... Becke
Basis function cutoff            BFCut       ... 1.0000e-11
Integration weight cutoff        WCut        ... 1.0000e-14
Angular grids for H and He will be reduced by one unit
Partially contracted basis set               ... on
Rotationally invariant grid construction     ... off

Total number of grid points                  ...     9456
Total number of batches                      ...      152
Average number of points per batch           ...       62
Average number of grid points per atom       ...     1182
UseSFitting                                  ... on

GRIDX 3
-------
General Integration Accuracy     IntAcc      ... 4.338
Radial Grid Type                 RadialGrid  ... OptM3 with GC (2021)
Angular Grid (max. ang.)         AngularGrid ... 3 (Lebedev-194)
Angular grid pruning method      GridPruning ... 4 (adaptive)
Weight generation scheme         WeightScheme... Becke
Basis function cutoff            BFCut       ... 1.0000e-11
Integration weight cutoff        WCut        ... 1.0000e-14
Angular grids for H and He will be reduced by one unit
Partially contracted basis set               ... on
Rotationally invariant grid construction     ... off

Total number of grid points                  ...    20852
Total number of batches                      ...      330
Average number of points per batch           ...       63
Average number of grid points per atom       ...     2606
UseSFitting                                  ... on

Time for X-Grid setup             =    0.137 sec

--------------
SCF ITERATIONS
--------------
ITER       Energy         Delta-E        Max-DP      RMS-DP      [F,P]     Damp
               ***  Starting incremental Fock matrix formation  ***
  0   -153.9294742261   0.000000000000 0.28241039  0.00969522  0.3695565 0.7000
  1   -154.0454513789  -0.115977152816 0.25788890  0.00810212  0.1699992 0.7000
                               ***Turning on DIIS***
  2   -154.0963725770  -0.050921198099 0.34491761  0.01301475  0.0578935 0.0000
  3   -154.1749607681  -0.078588191040 0.26165875  0.00689185  0.0967417 0.0000
  4   -154.1920330143  -0.017072246247 0.06217786  0.00161796  0.0105733 0.0000
  5   -154.1925982938  -0.000565279461 0.02941112  0.00078265  0.0050791 0.0000
                      *** Initiating the SOSCF procedure ***
                           *** Shutting down DIIS ***
                      *** Re-Reading the Fockian *** 
                      *** Removing any level shift *** 
ITER      Energy       Delta-E        Grad      Rot      Max-DP    RMS-DP
  6   -154.19267298  -0.0000746847  0.001050  0.001050  0.014901  0.000390
               *** Restarting incremental Fock matrix formation ***
  7   -154.19283137  -0.0001583941  0.000583  0.002076  0.011760  0.000319
  8   -154.19283687  -0.0000054935  0.000193  0.001019  0.005121  0.000139
  9   -154.19283741  -0.0000005473  0.000062  0.000094  0.000274  0.000014
 10   -154.19283743  -0.0000000154  0.000044  0.000026  0.000106  0.000006
 11   -154.19283745  -0.0000000184  0.000011  0.000009  0.000026  0.000002
 12   -154.19283745  -0.0000000024  0.000010  0.000007  0.000029  0.000001
                 **** Energy Check signals convergence ****
              ***Rediagonalizing the Fockian in SOSCF/NRSCF***

               *****************************************************
               *                     SUCCESS                       *
               *           SCF CONVERGED AFTER  13 CYCLES          *
               *****************************************************

Old exchange energy                            =    -11.125614657 Eh
New exchange energy                            =    -11.125638723 Eh
Exchange energy change after final integration =     -0.000024066 Eh
Total energy after final integration           =   -154.192861515 Eh
Final COS-X integration done in                =     0.256 sec

----------------
TOTAL SCF ENERGY
----------------

Total Energy       :         -154.19286152 Eh           -4195.80107 eV

Components:
Nuclear Repulsion  :           74.41824971 Eh            2025.02352 eV
Electronic Energy  :         -228.61111122 Eh           -6220.82460 eV
One Electron Energy:         -363.17839445 Eh           -9882.58653 eV
Two Electron Energy:          134.56728323 Eh            3661.76194 eV
Max COSX asymmetry :            0.00000454 Eh               0.00012 eV

Virial components:
Potential Energy   :         -307.16786075 Eh           -8358.46243 eV
Kinetic Energy     :          152.97499924 Eh            4162.66135 eV
Virial Ratio       :            2.00796119


DFT components:
N(Alpha)           :       13.000018974817 electrons
N(Beta)            :       13.000018974817 electrons
N(Total)           :       26.000037949634 electrons
E(XC)              :      -10.370396890005 Eh       
DFET-embed. en.    :        0.000000000000 Eh       

---------------
SCF CONVERGENCE
---------------

  Last Energy change         ...    4.7692e-10  Tolerance :   1.0000e-08
  Last MAX-Density change    ...    2.2204e-15  Tolerance :   1.0000e-07
  Last RMS-Density change    ...    5.8020e-17  Tolerance :   5.0000e-09
  Last Orbital Gradient      ...    3.6109e-07  Tolerance :   1.0000e-05
  Last Orbital Rotation      ...    1.1350e-06  Tolerance :   1.0000e-05

             **** THE GBW FILE WAS UPDATED (SVP_M062X_A_wt_dlpno_neg.gbw) ****
             **** DENSITY SVP_M062X_A_wt_dlpno_neg.scfp WAS UPDATED ****
             **** ENERGY FILE WAS UPDATED (SVP_M062X_A_wt_dlpno_neg.en.tmp) ****
             **** THE GBW FILE WAS UPDATED (SVP_M062X_A_wt_dlpno_neg.gbw) ****
             **** DENSITY SVP_M062X_A_wt_dlpno_neg.scfp WAS UPDATED ****
----------------
ORBITAL ENERGIES
----------------

  NO   OCC          E(Eh)            E(eV) 
   0   2.0000     -19.237941      -523.4910 
   1   2.0000     -10.338965      -281.3376 
   2   2.0000     -10.327091      -281.0144 
   3   2.0000      -0.735090       -20.0028 
   4   2.0000      -0.592103       -16.1120 
   5   2.0000      -0.427394       -11.6300 
   6   2.0000      -0.302560        -8.2331 
   7   2.0000      -0.278013        -7.5651 
   8   2.0000      -0.217669        -5.9231 
   9   2.0000      -0.201425        -5.4810 
  10   2.0000      -0.134628        -3.6634 
  11   2.0000       0.011231         0.3056 
  12   2.0000       0.012437         0.3384 
  13   0.0000       0.291938         7.9440 
  14   0.0000       0.337014         9.1706 
  15   0.0000       0.349745         9.5171 
  16   0.0000       0.357992         9.7415 
  17   0.0000       0.399858        10.8807 
  18   0.0000       0.487910        13.2767 
  19   0.0000       0.506198        13.7744 
  20   0.0000       0.679444        18.4886 
  21   0.0000       0.697339        18.9756 
  22   0.0000       0.751257        20.4427 
  23   0.0000       0.840158        22.8619 
  24   0.0000       0.869788        23.6681 
  25   0.0000       0.887732        24.1564 
  26   0.0000       0.904494        24.6125 
  27   0.0000       0.933106        25.3911 
  28   0.0000       0.949592        25.8397 
  29   0.0000       0.962022        26.1779 
  30   0.0000       0.964126        26.2352 
  31   0.0000       1.004170        27.3248 
  32   0.0000       1.154026        31.4026 
  33   0.0000       1.330643        36.2086 
  34   0.0000       1.368649        37.2428 
  35   0.0000       1.370823        37.3020 
  36   0.0000       1.525198        41.5028 
  37   0.0000       1.552369        42.2421 
  38   0.0000       1.647351        44.8267 
  39   0.0000       1.734690        47.2033 
  40   0.0000       1.789083        48.6834 
  41   0.0000       1.843392        50.1612 
  42   0.0000       2.000933        54.4481 
  43   0.0000       2.014356        54.8134 
  44   0.0000       2.036197        55.4077 
  45   0.0000       2.052368        55.8478 
  46   0.0000       2.115428        57.5637 
  47   0.0000       2.117486        57.6197 
  48   0.0000       2.159433        58.7612 
  49   0.0000       2.171763        59.0967 
  50   0.0000       2.296701        62.4964 
  51   0.0000       2.438389        66.3519 
  52   0.0000       2.457711        66.8777 
  53   0.0000       2.614523        71.1448 
  54   0.0000       2.651166        72.1419 
  55   0.0000       2.762420        75.1693 
  56   0.0000       2.804728        76.3205 
  57   0.0000       2.949081        80.2486 
  58   0.0000       3.035841        82.6094 
  59   0.0000       3.051791        83.0434 
  60   0.0000       3.121018        84.9272 
  61   0.0000       3.194878        86.9371 
  62   0.0000       3.230460        87.9053 
  63   0.0000       3.246851        88.3513 
  64   0.0000       3.485900        94.8562 
  65   0.0000       3.495009        95.1040 
  66   0.0000       3.805125       103.5427 

                    ********************************
                    * MULLIKEN POPULATION ANALYSIS *
                    ********************************

-----------------------
MULLIKEN ATOMIC CHARGES
-----------------------
   0 C :   -0.021890
   1 C :    0.238401
   2 H :   -0.151927
   3 H :   -0.149877
   4 O :   -0.751152
   5 H :   -0.035909
   6 H :   -0.091441
   7 H :   -0.036206
Sum of atomic charges:   -1.0000000

--------------------------------
MULLIKEN REDUCED ORBITAL CHARGES
--------------------------------
  0 C s       :     2.942870  s :     2.942870
      pz      :     1.013908  p :     3.050648
      px      :     1.014164
      py      :     1.022576
      dz2     :     0.005439  d :     0.028372
      dxz     :     0.001791
      dyz     :     0.009690
      dx2y2   :     0.003963
      dxy     :     0.007490
  1 C s       :     2.975726  s :     2.975726
      pz      :     0.911284  p :     2.710136
      px      :     0.883087
      py      :     0.915765
      dz2     :     0.008641  d :     0.075737
      dxz     :     0.011871
      dyz     :     0.017824
      dx2y2   :     0.020820
      dxy     :     0.016580
  2 H s       :     1.133231  s :     1.133231
      pz      :     0.008534  p :     0.018695
      px      :     0.002796
      py      :     0.007365
  3 H s       :     1.131033  s :     1.131033
      pz      :     0.010721  p :     0.018843
      px      :     0.002879
      py      :     0.005244
  4 O s       :     3.849444  s :     3.849444
      pz      :     1.816721  p :     4.891101
      px      :     1.458376
      py      :     1.616004
      dz2     :     0.001485  d :     0.010607
      dxz     :     0.001694
      dyz     :     0.000810
      dx2y2   :     0.002462
      dxy     :     0.004156
  5 H s       :     1.013469  s :     1.013469
      pz      :     0.011670  p :     0.022440
      px      :     0.004290
      py      :     0.006480
  6 H s       :     1.068830  s :     1.068830
      pz      :     0.004789  p :     0.022611
      px      :     0.009921
      py      :     0.007900
  7 H s       :     1.013607  s :     1.013607
      pz      :     0.010060  p :     0.022599
      px      :     0.004478
      py      :     0.008061


                     *******************************
                     * LOEWDIN POPULATION ANALYSIS *
                     *******************************

----------------------
LOEWDIN ATOMIC CHARGES
----------------------
   0 C :   -0.116408
   1 C :    0.012333
   2 H :   -0.078247
   3 H :   -0.075943
   4 O :   -0.693731
   5 H :   -0.008907
   6 H :   -0.030008
   7 H :   -0.009089

-------------------------------
LOEWDIN REDUCED ORBITAL CHARGES
-------------------------------
  0 C s       :     2.851205  s :     2.851205
      pz      :     1.061780  p :     3.189514
      px      :     1.059540
      py      :     1.068194
      dz2     :     0.016040  d :     0.075690
      dxz     :     0.003146
      dyz     :     0.025199
      dx2y2   :     0.009944
      dxy     :     0.021361
  1 C s       :     2.840054  s :     2.840054
      pz      :     1.016471  p :     2.960790
      px      :     0.960727
      py      :     0.983592
      dz2     :     0.023930  d :     0.186823
      dxz     :     0.023430
      dyz     :     0.048523
      dx2y2   :     0.045307
      dxy     :     0.045632
  2 H s       :     1.017472  s :     1.017472
      pz      :     0.023656  p :     0.060775
      px      :     0.011993
      py      :     0.025127
  3 H s       :     1.014403  s :     1.014403
      pz      :     0.031624  p :     0.061540
      px      :     0.011923
      py      :     0.017993
  4 O s       :     3.643977  s :     3.643977
      pz      :     1.840185  p :     5.031643
      px      :     1.520069
      py      :     1.671388
      dz2     :     0.002840  d :     0.018110
      dxz     :     0.002325
      dyz     :     0.001222
      dx2y2   :     0.003806
      dxy     :     0.007918
  5 H s       :     0.939790  s :     0.939790
      pz      :     0.032293  p :     0.069117
      px      :     0.014773
      py      :     0.022051
  6 H s       :     0.958844  s :     0.958844
      pz      :     0.014276  p :     0.071164
      px      :     0.034285
      py      :     0.022603
  7 H s       :     0.940101  s :     0.940101
      pz      :     0.027600  p :     0.068988
      px      :     0.015079
      py      :     0.026309


                      *****************************
                      * MAYER POPULATION ANALYSIS *
                      *****************************

  NA   - Mulliken gross atomic population
  ZA   - Total nuclear charge
  QA   - Mulliken gross atomic charge
  VA   - Mayer's total valence
  BVA  - Mayer's bonded valence
  FA   - Mayer's free valence

  ATOM       NA         ZA         QA         VA         BVA        FA
  0 C      6.0219     6.0000    -0.0219     3.7949     3.7949    -0.0000
  1 C      5.7616     6.0000     0.2384     4.2567     4.2567     0.0000
  2 H      1.1519     1.0000    -0.1519     0.9076     0.9076    -0.0000
  3 H      1.1499     1.0000    -0.1499     0.9080     0.9080    -0.0000
  4 O      8.7512     8.0000    -0.7512     1.6023     1.6023    -0.0000
  5 H      1.0359     1.0000    -0.0359     1.0138     1.0138     0.0000
  6 H      1.0914     1.0000    -0.0914     0.9894     0.9894     0.0000
  7 H      1.0362     1.0000    -0.0362     1.0060     1.0060     0.0000

  Mayer bond orders larger than 0.100000
B(  0-C ,  1-C ) :   1.0008 B(  0-C ,  5-H ) :   0.9639 B(  0-C ,  6-H ) :   0.9334 
B(  0-C ,  7-H ) :   0.9657 B(  1-C ,  2-H ) :   0.8830 B(  1-C ,  3-H ) :   0.8846 
B(  1-C ,  4-O ) :   1.4645 

-------
TIMINGS
-------

Total SCF time: 0 days 0 hours 0 min 3 sec 

Total time                  ....       3.860 sec
Sum of individual times     ....       3.743 sec  ( 97.0%)

Fock matrix formation       ....       3.330 sec  ( 86.3%)
  Split-RI-J                ....       0.320 sec  (  9.6% of F)
  Chain of spheres X        ....       1.704 sec  ( 51.2% of F)
  XC integration            ....       1.288 sec  ( 38.7% of F)
    Basis function eval.    ....       0.293 sec  ( 22.7% of XC)
    Density eval.           ....       0.332 sec  ( 25.7% of XC)
    XC-Functional eval.     ....       0.265 sec  ( 20.6% of XC)
    XC-Potential eval.      ....       0.322 sec  ( 25.0% of XC)
Diagonalization             ....       0.013 sec  (  0.3%)
Density matrix formation    ....       0.001 sec  (  0.0%)
Population analysis         ....       0.003 sec  (  0.1%)
Initial guess               ....       0.025 sec  (  0.7%)
Orbital Transformation      ....       0.000 sec  (  0.0%)
Orbital Orthonormalization  ....       0.000 sec  (  0.0%)
DIIS solution               ....       0.012 sec  (  0.3%)
SOSCF solution              ....       0.010 sec  (  0.3%)
Grid generation             ....       0.347 sec  (  9.0%)

Maximum memory used throughout the entire SCF-calculation: 45.1 MB


-------------------------------------------------------------------------------
                          DFT DISPERSION CORRECTION                            
                                                                               
                              DFTD3 V3.1  Rev 1                                
                              USING zero damping                               
-------------------------------------------------------------------------------
The M062X functional is recognized
Active option DFTDOPT                   ...         3   

molecular C6(AA) [au] = 434.676054 


            DFT-D V3
 parameters
 s6 scaling factor         :     1.0000 
 rs6 scaling factor        :     1.6190 
 s8 scaling factor         :     0.0000 
 rs8 scaling factor        :     1.0000 
 Damping factor alpha6     :    14.0000 
 Damping factor alpha8     :    16.0000 
 ad hoc parameters k1-k3   :    16.0000     1.3333    -4.0000 

 Edisp/kcal,au: -0.009244203265  -0.000014731574 
 E6   /kcal   :  -0.009244203 
 E8   /kcal   :  -0.000000000 
 % E8         :   0.000000000 

-------------------------   ----------------
Dispersion correction           -0.000014732
-------------------------   ----------------


-------------------------   --------------------
FINAL SINGLE POINT ENERGY      -154.192876246691
-------------------------   --------------------


                            ***************************************
                            *     ORCA property calculations      *
                            ***************************************

                                    ---------------------
                                    Active property flags
                                    ---------------------
   (+) Dipole Moment


------------------------------------------------------------------------------
                       ORCA ELECTRIC PROPERTIES CALCULATION
------------------------------------------------------------------------------

Dipole Moment Calculation                       ... on
Quadrupole Moment Calculation                   ... off
Polarizability Calculation                      ... off
GBWName                                         ... SVP_M062X_A_wt_dlpno_neg.gbw
Electron density file                           ... SVP_M062X_A_wt_dlpno_neg.scfp
The origin for moment calculation is the CENTER OF MASS  = ( 2.222342,  3.653829 -7.231598)

-------------
DIPOLE MOMENT
-------------
                                X             Y             Z
Electronic contribution:      2.98077      -0.69903      -0.28046
Nuclear contribution   :     -4.28298       0.81046       0.39340
                        -----------------------------------------
Total Dipole Moment    :     -1.30221       0.11144       0.11294
                        -----------------------------------------
Magnitude (a.u.)       :      1.31184
Magnitude (Debye)      :      3.33443



--------------------
Rotational spectrum 
--------------------
 
Rotational constants in cm-1:     1.266793     0.328147     0.288309 
Rotational constants in MHz : 37977.512300  9837.594308  8643.275638 

 Dipole components along the rotational axes: 
x,y,z [a.u.] :    -1.297103     0.195672    -0.012356 
x,y,z [Debye]:    -3.296975     0.497358    -0.031407 

 

Timings for individual modules:

Sum of individual times         ...        8.127 sec (=   0.135 min)
GTO integral calculation        ...        2.313 sec (=   0.039 min)  28.5 %
SCF iterations                  ...        5.813 sec (=   0.097 min)  71.5 %
                             ****ORCA TERMINATED NORMALLY****
TOTAL RUN TIME: 0 days 0 hours 0 minutes 8 seconds 684 msec
