
                                        *****************
                                        * O   R   C   A *
                                        *****************

                                            #,                                       
                                            ###                                      
                                            ####                                     
                                            #####                                    
                                            ######                                   
                                           ########,                                 
                                     ,,################,,,,,                         
                               ,,#################################,,                 
                          ,,##########################################,,             
                       ,#########################################, ''#####,          
                    ,#############################################,,   '####,        
                  ,##################################################,,,,####,       
                ,###########''''           ''''###############################       
              ,#####''   ,,,,##########,,,,          '''####'''          '####       
            ,##' ,,,,###########################,,,                        '##       
           ' ,,###''''                  '''############,,,                           
         ,,##''                                '''############,,,,        ,,,,,,###''
      ,#''                                            '''#######################'''  
     '                                                          ''''####''''         
             ,#######,   #######,   ,#######,      ##                                
            ,#'     '#,  ##    ##  ,#'     '#,    #''#        ######   ,####,        
            ##       ##  ##   ,#'  ##            #'  '#       #        #'  '#        
            ##       ##  #######   ##           ,######,      #####,   #    #        
            '#,     ,#'  ##    ##  '#,     ,#' ,#      #,         ##   #,  ,#        
             '#######'   ##     ##  '#######'  #'      '#     #####' # '####'        



                  #######################################################
                  #                        -***-                        #
                  #          Department of theory and spectroscopy      #
                  #    Directorship and core code : Frank Neese         #
                  #        Max Planck Institute fuer Kohlenforschung    #
                  #                Kaiser Wilhelm Platz 1               #
                  #                 D-45470 Muelheim/Ruhr               #
                  #                      Germany                        #
                  #                                                     #
                  #                  All rights reserved                #
                  #                        -***-                        #
                  #######################################################


                         Program Version 5.0.0 -  RELEASE  -
                                (SVN: $Rev: 19529$)
                ($Date: 2021-06-28 11:36:33 +0200 (Mo, 28 Jun 2021) $)


 With contributions from (in alphabetic order):
   Daniel Aravena         : Magnetic Suceptibility
   Michael Atanasov       : Ab Initio Ligand Field Theory (pilot matlab implementation)
   Alexander A. Auer      : GIAO ZORA, VPT2 properties, NMR spectrum
   Ute Becker             : Parallelization
   Giovanni Bistoni       : ED, misc. LED, open-shell LED, HFLD
   Martin Brehm           : Molecular dynamics
   Dmytro Bykov           : SCF Hessian
   Vijay G. Chilkuri      : MRCI spin determinant printing, contributions to CSF-ICE
   Dipayan Datta          : RHF DLPNO-CCSD density
   Achintya Kumar Dutta   : EOM-CC, STEOM-CC
   Dmitry Ganyushin       : Spin-Orbit,Spin-Spin,Magnetic field MRCI
   Miquel Garcia          : C-PCM Hessian, Gaussian charge scheme
   Yang Guo               : DLPNO-NEVPT2, F12-NEVPT2, CIM, IAO-localization
   Andreas Hansen         : Spin unrestricted coupled pair/coupled cluster methods
   Benjamin Helmich-Paris : MC-RPA, TRAH-SCF, COSX integrals
   Lee Huntington         : MR-EOM, pCC
   Robert Izsak           : Overlap fitted RIJCOSX, COSX-SCS-MP3, EOM
   Marcus Kettner         : VPT2
   Christian Kollmar      : KDIIS, OOCD, Brueckner-CCSD(T), CCSD density, CASPT2, CASPT2-K
   Simone Kossmann        : Meta GGA functionals, TD-DFT gradient, OOMP2, MP2 Hessian
   Martin Krupicka        : Initial AUTO-CI
   Lucas Lang             : DCDCAS
   Marvin Lechner         : AUTO-CI (C++ implementation), FIC-MRCC
   Dagmar Lenk            : GEPOL surface, SMD
   Dimitrios Liakos       : Extrapolation schemes; Compound Job, initial MDCI parallelization
   Dimitrios Manganas     : Further ROCIS development; embedding schemes
   Dimitrios Pantazis     : SARC Basis sets
   Anastasios Papadopoulos: AUTO-CI, single reference methods and gradients
   Taras Petrenko         : DFT Hessian,TD-DFT gradient, ASA, ECA, R-Raman, ABS, FL, XAS/XES, NRVS
   Peter Pinski           : DLPNO-MP2, DLPNO-MP2 Gradient
   Christoph Reimann      : Effective Core Potentials
   Marius Retegan         : Local ZFS, SOC
   Christoph Riplinger    : Optimizer, TS searches, QM/MM, DLPNO-CCSD(T), (RO)-DLPNO pert. Triples
   Tobias Risthaus        : Range-separated hybrids, TD-DFT gradient, RPA, STAB
   Michael Roemelt        : Original ROCIS implementation
   Masaaki Saitow         : Open-shell DLPNO-CCSD energy and density
   Barbara Sandhoefer     : DKH picture change effects
   Avijit Sen             : IP-ROCIS
   Kantharuban Sivalingam : CASSCF convergence, NEVPT2, FIC-MRCI
   Bernardo de Souza      : ESD, SOC TD-DFT
   Georgi Stoychev        : AutoAux, RI-MP2 NMR
   Willem Van den Heuvel  : Paramagnetic NMR
   Boris Wezisla          : Elementary symmetry handling
   Frank Wennmohs         : Technical directorship


 We gratefully acknowledge several colleagues who have allowed us to
 interface, adapt or use parts of their codes:
   Stefan Grimme, W. Hujo, H. Kruse, P. Pracht,  : VdW corrections, initial TS optimization,
                  C. Bannwarth, S. Ehlert          DFT functionals, gCP, sTDA/sTD-DF
   Ed Valeev, F. Pavosevic, A. Kumar             : LibInt (2-el integral package), F12 methods
   Garnet Chan, S. Sharma, J. Yang, R. Olivares  : DMRG
   Ulf Ekstrom                                   : XCFun DFT Library
   Mihaly Kallay                                 : mrcc  (arbitrary order and MRCC methods)
   Jiri Pittner, Ondrej Demel                    : Mk-CCSD
   Frank Weinhold                                : gennbo (NPA and NBO analysis)
   Christopher J. Cramer and Donald G. Truhlar   : smd solvation model
   Lars Goerigk                                  : TD-DFT with DH, B97 family of functionals
   V. Asgeirsson, H. Jonsson                     : NEB implementation
   FAccTs GmbH                                   : IRC, NEB, NEB-TS, DLPNO-Multilevel, CI-OPT
                                                   MM, QMMM, 2- and 3-layer-ONIOM, Crystal-QMMM,
                                                   LR-CPCM, SF, NACMEs, symmetry and pop. for TD-DFT,
                                                   nearIR, NL-DFT gradient (VV10), updates on ESD,
                                                   ML-optimized integration grids
   S Lehtola, MJT Oliveira, MAL Marques          : LibXC Library
   Liviu Ungur et al                             : ANISO software


 Your calculation uses the libint2 library for the computation of 2-el integrals
 For citations please refer to: http://libint.valeyev.net

 Your ORCA version has been built with support for libXC version: 5.1.0
 For citations please refer to: https://tddft.org/programs/libxc/

 This ORCA versions uses:
   CBLAS   interface :  Fast vector & matrix operations
   LAPACKE interface :  Fast linear algebra routines
   SCALAPACK package :  Parallel linear algebra routines
   Shared memory     :  Shared parallel matrices
   BLAS/LAPACK       :  OpenBLAS 0.3.15  USE64BITINT DYNAMIC_ARCH NO_AFFINITY Haswell SINGLE_THREADED
        Core in use  :  Haswell
   Copyright (c) 2011-2014, The OpenBLAS Project




***************************************
The coordinates will be read from file: D.xyz
***************************************


Your calculation utilizes the atom-pairwise dispersion correction
with the Becke-Johnson damping scheme (D3BJ)
Cite in your paper:
S.Grimme, S.Ehrlich, L.Goerigk, J Comput Chem, (2011), 32, 1456–1465 
S.Grimme, J.Antony, S.Ehrlich and H.Krieg, J.Chem.Phys., 132, (2010), 154104 
   

================================================================================

----- Orbital basis set information -----
Your calculation utilizes the basis: def2-SVPD
   F. Weigend and R. Ahlrichs, Phys. Chem. Chem. Phys. 7, 3297 (2005).
   D. Rappoport and F. Furche, J. Chem. Phys. 133 134105 (2010).

----- AuxJ basis set information -----
Your calculation utilizes the auxiliary basis: def2/J
   F. Weigend, Phys. Chem. Chem. Phys. 8, 1057 (2006).

================================================================================
                                        WARNINGS
                       Please study these warnings very carefully!
================================================================================


INFO   : the flag for use of the SHARK integral package has been found!

================================================================================
                                       INPUT FILE
================================================================================
NAME = 28Oct_SVPD_PBE0_D_wt_wb97.com
|  1> !PBE0 D3BJ RIJCOSX def2-SVPD def2/J TightSCF xyzfile                                                                                         
|  2> 
|  3> *xyzfile 0 1 D.xyz
|  4> 
|  5> %MaxCore 64000
|  6> 
|  7> %pal nprocs 4  
|  8> end  
|  9> 
| 10> %scf
| 11>   MaxIter 150
| 12> end
| 13> 
| 14> 
| 15>                          ****END OF INPUT****
================================================================================

                       ****************************
                       * Single Point Calculation *
                       ****************************

---------------------------------
CARTESIAN COORDINATES (ANGSTROEM)
---------------------------------
  C     -2.120502    0.885196    1.789506
  C     -0.778939    0.171966    1.804965
  H     -2.324193    1.472649    2.686078
  H     -2.187698    1.541272    0.919482
  C     -3.176900   -0.159484    1.610700
  H      0.015695    0.910767    1.939153
  H     -0.743553   -0.506827    2.665420
  C     -0.602493   -0.630712    0.492240
  H      0.313894   -1.240346    0.603498
  H     -0.363829    0.113322   -0.301169
  F     -1.712061   -1.376836    0.202535
  H     -4.064736    0.231272    1.286754
  H     -3.344073   -0.671511    2.484928
  H     -2.716861   -0.781886    0.935880

----------------------------
CARTESIAN COORDINATES (A.U.)
----------------------------
  NO LB      ZA    FRAG     MASS         X           Y           Z
   0 C     6.0000    0    12.011   -4.007169    1.672777    3.381676
   1 C     6.0000    0    12.011   -1.471982    0.324969    3.410889
   2 H     1.0000    0     1.008   -4.392089    2.782903    5.075951
   3 H     1.0000    0     1.008   -4.134150    2.912581    1.737568
   4 C     6.0000    0    12.011   -6.003470   -0.301381    3.043781
   5 H     1.0000    0     1.008    0.029659    1.721101    3.664469
   6 H     1.0000    0     1.008   -1.405112   -0.957764    5.036915
   7 C     6.0000    0    12.011   -1.138546   -1.191873    0.930199
   8 H     1.0000    0     1.008    0.593174   -2.343914    1.140446
   9 H     1.0000    0     1.008   -0.687536    0.214148   -0.569127
  10 F     9.0000    0    18.998   -3.235325   -2.601843    0.382735
  11 H     1.0000    0     1.008   -7.681238    0.437041    2.431613
  12 H     1.0000    0     1.008   -6.319383   -1.268971    4.695833
  13 H     1.0000    0     1.008   -5.134123   -1.477551    1.768557

--------------------------------
INTERNAL COORDINATES (ANGSTROEM)
--------------------------------
 C      0   0   0     0.000000000000     0.00000000     0.00000000
 C      1   0   0     1.519449644450     0.00000000     0.00000000
 H      1   2   0     1.091069523679   114.15500392     0.00000000
 H      1   2   3     1.091738488962   110.15344070   122.54378605
 C      1   2   3     1.496429790892   107.26662724   237.84444195
 H      2   1   3     1.093287446389   109.01309694   302.40678057
 H      2   1   3     1.096538255331   109.08982085    59.36929242
 C      2   1   3     1.548764524221   109.58724637   179.74801984
 H      8   2   1     1.106253537470   107.14181190   187.64352253
 H      8   2   1     1.113573478149   106.38180806    75.50765501
 F      8   2   1     1.368126402258   111.69890898   312.03849074
 H      5   1   2     1.022684613029   112.57972907   198.71528345
 H      5   1   2     1.026836283400   111.18080867    76.60847439
 H      5   1   2     1.026840791569   100.68461984   320.91959228

---------------------------
INTERNAL COORDINATES (A.U.)
---------------------------
 C      0   0   0     0.000000000000     0.00000000     0.00000000
 C      1   0   0     2.871343702294     0.00000000     0.00000000
 H      1   2   0     2.061822592821   114.15500392     0.00000000
 H      1   2   3     2.063086753999   110.15344070   122.54378605
 C      1   2   3     2.827842483428   107.26662724   237.84444195
 H      2   1   3     2.066013859330   109.01309694   302.40678057
 H      2   1   3     2.072156997943   109.08982085    59.36929242
 C      2   1   3     2.926740796711   109.58724637   179.74801984
 H      8   2   1     2.090516220501   107.14181190   187.64352253
 H      8   2   1     2.104348903699   106.38180806    75.50765501
 F      8   2   1     2.585384216855   111.69890898   312.03849074
 H      5   1   2     1.932593840000   112.57972907   198.71528345
 H      5   1   2     1.940439360000   111.18080867    76.60847439
 H      5   1   2     1.940447879204   100.68461984   320.91959228

---------------------
BASIS SET INFORMATION
---------------------
There are 3 groups of distinct atoms

 Group   1 Type C   : 8s4p2d contracted to 4s2p2d pattern {5111/31/11}
 Group   2 Type H   : 4s2p contracted to 2s2p pattern {31/11}
 Group   3 Type F   : 8s5p2d contracted to 4s3p2d pattern {5111/311/11}

Atom   0C    basis set group =>   1
Atom   1C    basis set group =>   1
Atom   2H    basis set group =>   2
Atom   3H    basis set group =>   2
Atom   4C    basis set group =>   1
Atom   5H    basis set group =>   2
Atom   6H    basis set group =>   2
Atom   7C    basis set group =>   1
Atom   8H    basis set group =>   2
Atom   9H    basis set group =>   2
Atom  10F    basis set group =>   3
Atom  11H    basis set group =>   2
Atom  12H    basis set group =>   2
Atom  13H    basis set group =>   2
---------------------------------
AUXILIARY/J BASIS SET INFORMATION
---------------------------------
There are 3 groups of distinct atoms

 Group   1 Type C   : 12s5p4d2f1g contracted to 6s4p3d1f1g pattern {711111/2111/211/2/1}
 Group   2 Type H   : 5s2p1d contracted to 3s1p1d pattern {311/2/1}
 Group   3 Type F   : 12s5p4d2f1g contracted to 6s4p3d1f1g pattern {711111/2111/211/2/1}

Atom   0C    basis set group =>   1
Atom   1C    basis set group =>   1
Atom   2H    basis set group =>   2
Atom   3H    basis set group =>   2
Atom   4C    basis set group =>   1
Atom   5H    basis set group =>   2
Atom   6H    basis set group =>   2
Atom   7C    basis set group =>   1
Atom   8H    basis set group =>   2
Atom   9H    basis set group =>   2
Atom  10F    basis set group =>   3
Atom  11H    basis set group =>   2
Atom  12H    basis set group =>   2
Atom  13H    basis set group =>   2


           ************************************************************
           *        Program running with 4 parallel MPI-processes     *
           *              working on a common directory               *
           ************************************************************
------------------------------------------------------------------------------
                           ORCA GTO INTEGRAL CALCULATION
                           -- RI-GTO INTEGRALS CHOSEN --
------------------------------------------------------------------------------
------------------------------------------------------------------------------
                   ___                                                        
                  /   \      - P O W E R E D   B Y -                         
                 /     \                                                     
                 |  |  |   _    _      __       _____    __    __             
                 |  |  |  | |  | |    /  \     |  _  \  |  |  /  |          
                  \  \/   | |  | |   /    \    | | | |  |  | /  /          
                 / \  \   | |__| |  /  /\  \   | |_| |  |  |/  /          
                |  |  |   |  __  | /  /__\  \  |    /   |      \           
                |  |  |   | |  | | |   __   |  |    \   |  |\   \          
                \     /   | |  | | |  |  |  |  | |\  \  |  | \   \       
                 \___/    |_|  |_| |__|  |__|  |_| \__\ |__|  \__/        
                                                                              
                      - O R C A' S   B I G   F R I E N D -                    
                                      &                                       
                       - I N T E G R A L  F E E D E R -                       
                                                                              
 v1 FN, 2020, v2 2021                                                         
------------------------------------------------------------------------------


Reading SHARK input file 28Oct_SVPD_PBE0_D_wt_wb97.SHARKINP.tmp ... ok
----------------------
SHARK INTEGRAL PACKAGE
----------------------

Number of atoms                             ...     14
Number of basis functions                   ...    175
Number of shells                            ...     77
Maximum angular momentum                    ...      2
Integral batch strategy                     ... SHARK/LIBINT Hybrid
RI-J (if used) integral strategy            ... SPLIT-RIJ (Revised 2003 algorithm where possible)
Printlevel                                  ...      1
Contraction scheme used                     ... SEGMENTED contraction
Coulomb Range Separation                    ... NOT USED
Exchange Range Separation                   ... NOT USED
Finite Nucleus Model                        ... NOT USED
Auxiliary Coulomb fitting basis             ... AVAILABLE
   # of basis functions in Aux-J            ...    344
   # of shells in Aux-J                     ...    120
   Maximum angular momentum in Aux-J        ...      4
Auxiliary J/K fitting basis                 ... NOT available
Auxiliary Correlation fitting basis         ... NOT available
Auxiliary 'external' fitting basis          ... NOT available
Integral threshold                          ...     2.500000e-11
Primitive cut-off                           ...     2.500000e-12
Primitive pair pre-selection threshold      ...     2.500000e-12

Calculating pre-screening integrals         ... done (  0.0 sec) Dimension = 77
Organizing shell pair data                  ... done (  0.0 sec)
Shell pair information
Total number of shell pairs                 ...      3003
Shell pairs after pre-screening             ...      2991
Total number of primitive shell pairs       ...      7967
Primitive shell pairs kept                  ...      6852
          la=0 lb=0:    735 shell pairs
          la=1 lb=0:   1097 shell pairs
          la=1 lb=1:    434 shell pairs
          la=2 lb=0:    380 shell pairs
          la=2 lb=1:    290 shell pairs
          la=2 lb=2:     55 shell pairs

Calculating one electron integrals          ... done (  0.0 sec)
Calculating RI/J V-Matrix + Cholesky decomp.... done (  0.0 sec)
Calculating Nuclear repulsion               ... done (  0.0 sec) ENN=    199.793214318789 Eh

SHARK setup successfully completed in   0.2 seconds

Maximum memory used throughout the entire GTOINT-calculation: 8.9 MB


           ************************************************************
           *        Program running with 4 parallel MPI-processes     *
           *              working on a common directory               *
           ************************************************************
-------------------------------------------------------------------------------
                                 ORCA SCF
-------------------------------------------------------------------------------

------------
SCF SETTINGS
------------
Hamiltonian:
 Density Functional     Method          .... DFT(GTOs)
 Exchange Functional    Exchange        .... PBE
   PBE kappa parameter   XKappa         ....  0.804000
   PBE mue parameter    XMuePBE         ....  0.219520
 Correlation Functional Correlation     .... PBE
   PBE beta parameter  CBetaPBE         ....  0.066725
 LDA part of GGA corr.  LDAOpt          .... PW91-LDA
 Gradients option       PostSCFGGA      .... off
 Hybrid DFT is turned on
   Fraction HF Exchange ScalHFX         ....  0.250000
   Scaling of DF-GGA-X  ScalDFX         ....  0.750000
   Scaling of DF-GGA-C  ScalDFC         ....  1.000000
   Scaling of DF-LDA-C  ScalLDAC        ....  1.000000
   Perturbative correction              ....  0.000000
   Density functional embedding theory  .... OFF
   NL short-range parameter             ....  6.900000
 RI-approximation to the Coulomb term is turned on
   Number of AuxJ basis functions       .... 344
   RIJ-COSX (HFX calculated with COS-X)).... on


General Settings:
 Integral files         IntName         .... 28Oct_SVPD_PBE0_D_wt_wb97
 Hartree-Fock type      HFTyp           .... RHF
 Total Charge           Charge          ....    0
 Multiplicity           Mult            ....    1
 Number of Electrons    NEL             ....   42
 Basis Dimension        Dim             ....  175
 Nuclear Repulsion      ENuc            ....    199.7932143188 Eh

Convergence Acceleration:
 DIIS                   CNVDIIS         .... on
   Start iteration      DIISMaxIt       ....    12
   Startup error        DIISStart       ....  0.200000
   # of expansion vecs  DIISMaxEq       ....     5
   Bias factor          DIISBfac        ....   1.050
   Max. coefficient     DIISMaxC        ....  10.000
 Trust-Rad. Augm. Hess. CNVTRAH         .... auto
   Auto Start mean grad. ratio tolernc. ....  1.125000
   Auto Start start iteration           ....    20
   Auto Start num. interpolation iter.  ....    10
   Max. Number of Micro iterations      ....    16
   Max. Number of Macro iterations      .... Maxiter - #DIIS iter
   Number of Davidson start vectors     ....     2
   Converg. threshold I  (grad. norm)   ....   1.000e-05
   Converg. threshold II (energy diff.) ....   1.000e-08
   Grad. Scal. Fac. for Micro threshold ....   0.100
   Minimum threshold for Micro iter.    ....   0.010
   NR start threshold (gradient norm)   ....   0.001
   Initial trust radius                 ....   0.400
   Minimum AH scaling param. (alpha)    ....   1.000
   Maximum AH scaling param. (alpha)    .... 1000.000
   Orbital update algorithm             .... Taylor
   White noise on init. David. guess    .... on
   Maximum white noise                  ....   0.010
   Quad. conv. algorithm                .... NR
 SOSCF                  CNVSOSCF        .... on
   Start iteration      SOSCFMaxIt      ....   150
   Startup grad/error   SOSCFStart      ....  0.003300
 Level Shifting         CNVShift        .... on
   Level shift para.    LevelShift      ....    0.2500
   Turn off err/grad.   ShiftErr        ....    0.0010
 Zerner damping         CNVZerner       .... off
 Static damping         CNVDamp         .... on
   Fraction old density DampFac         ....    0.7000
   Max. Damping (<1)    DampMax         ....    0.9800
   Min. Damping (>=0)   DampMin         ....    0.0000
   Turn off err/grad.   DampErr         ....    0.1000
 Fernandez-Rico         CNVRico         .... off

SCF Procedure:
 Maximum # iterations   MaxIter         ....   150
 SCF integral mode      SCFMode         .... Direct
   Integral package                     .... SHARK and LIBINT hybrid scheme
 Reset frequency        DirectResetFreq ....    20
 Integral Threshold     Thresh          ....  2.500e-11 Eh
 Primitive CutOff       TCut            ....  2.500e-12 Eh

Convergence Tolerance:
 Convergence Check Mode ConvCheckMode   .... Total+1el-Energy
 Convergence forced     ConvForced      .... 0
 Energy Change          TolE            ....  1.000e-08 Eh
 1-El. energy change                    ....  1.000e-05 Eh
 Orbital Gradient       TolG            ....  1.000e-05
 Orbital Rotation angle TolX            ....  1.000e-05
 DIIS Error             TolErr          ....  5.000e-07


Diagonalization of the overlap matrix:
Smallest eigenvalue                        ... 6.404e-05
Time for diagonalization                   ...    0.009 sec
Threshold for overlap eigenvalues          ... 1.000e-08
Number of eigenvalues below threshold      ... 0
Time for construction of square roots      ...    0.006 sec
Total time needed                          ...    0.016 sec

Time for model grid setup =    0.080 sec

------------------------------
INITIAL GUESS: MODEL POTENTIAL
------------------------------
Loading Hartree-Fock densities                     ... done
Calculating cut-offs                               ... done
Initializing the effective Hamiltonian             ... done
Setting up the integral package (SHARK)            ... done
Starting the Coulomb interaction                   ... done (   0.0 sec)
Reading the grid                                   ... done
Mapping shells                                     ... done
Starting the XC term evaluation                    ... done (   0.1 sec)
  promolecular density results
     # of electrons  =     41.995778690
     EX              =    -33.180433496
     EC              =     -1.392180442
     EX+EC           =    -34.572613938
Transforming the Hamiltonian                       ... done (   0.0 sec)
Diagonalizing the Hamiltonian                      ... done (   0.0 sec)
Back transforming the eigenvectors                 ... done (   0.0 sec)
Now organizing SCF variables                       ... done
                      ------------------
                      INITIAL GUESS DONE (   0.2 sec)
                      ------------------
-------------------
DFT GRID GENERATION
-------------------

General Integration Accuracy     IntAcc      ... 4.388
Radial Grid Type                 RadialGrid  ... OptM3 with GC (2021)
Angular Grid (max. ang.)         AngularGrid ... 4 (Lebedev-302)
Angular grid pruning method      GridPruning ... 4 (adaptive)
Weight generation scheme         WeightScheme... Becke
Basis function cutoff            BFCut       ... 1.0000e-11
Integration weight cutoff        WCut        ... 1.0000e-14
Angular grids for H and He will be reduced by one unit
Partially contracted basis set               ... off
Rotationally invariant grid construction     ... off

Total number of grid points                  ...    61010
Total number of batches                      ...      961
Average number of points per batch           ...       63
Average number of grid points per atom       ...     4358
Time for grid setup =    0.397 sec

--------------------
COSX GRID GENERATION
--------------------

GRIDX 1
-------
General Integration Accuracy     IntAcc      ... 3.816
Radial Grid Type                 RadialGrid  ... OptM3 with GC (2021)
Angular Grid (max. ang.)         AngularGrid ... 1 (Lebedev-50)
Angular grid pruning method      GridPruning ... 4 (adaptive)
Weight generation scheme         WeightScheme... Becke
Basis function cutoff            BFCut       ... 1.0000e-11
Integration weight cutoff        WCut        ... 1.0000e-14
Angular grids for H and He will be reduced by one unit
Partially contracted basis set               ... on
Rotationally invariant grid construction     ... off

Total number of grid points                  ...     7635
Total number of batches                      ...      130
Average number of points per batch           ...       58
Average number of grid points per atom       ...      545
UseSFitting                                  ... on

GRIDX 2
-------
General Integration Accuracy     IntAcc      ... 4.020
Radial Grid Type                 RadialGrid  ... OptM3 with GC (2021)
Angular Grid (max. ang.)         AngularGrid ... 2 (Lebedev-110)
Angular grid pruning method      GridPruning ... 4 (adaptive)
Weight generation scheme         WeightScheme... Becke
Basis function cutoff            BFCut       ... 1.0000e-11
Integration weight cutoff        WCut        ... 1.0000e-14
Angular grids for H and He will be reduced by one unit
Partially contracted basis set               ... on
Rotationally invariant grid construction     ... off

Total number of grid points                  ...    16951
Total number of batches                      ...      272
Average number of points per batch           ...       62
Average number of grid points per atom       ...     1211
UseSFitting                                  ... on

GRIDX 3
-------
General Integration Accuracy     IntAcc      ... 4.338
Radial Grid Type                 RadialGrid  ... OptM3 with GC (2021)
Angular Grid (max. ang.)         AngularGrid ... 3 (Lebedev-194)
Angular grid pruning method      GridPruning ... 4 (adaptive)
Weight generation scheme         WeightScheme... Becke
Basis function cutoff            BFCut       ... 1.0000e-11
Integration weight cutoff        WCut        ... 1.0000e-14
Angular grids for H and He will be reduced by one unit
Partially contracted basis set               ... on
Rotationally invariant grid construction     ... off

Total number of grid points                  ...    38716
Total number of batches                      ...      614
Average number of points per batch           ...       63
Average number of grid points per atom       ...     2765
UseSFitting                                  ... on

Time for X-Grid setup             =    0.359 sec

--------------
SCF ITERATIONS
--------------
ITER       Energy         Delta-E        Max-DP      RMS-DP      [F,P]     Damp
               ***  Starting incremental Fock matrix formation  ***
  0   -256.9969136208   0.000000000000 0.54660497  0.00539807  0.2036278 0.7000
  1   -257.0681503425  -0.071236721699 0.34161088  0.00343006  0.1094146 0.7000
                               ***Turning on DIIS***
  2   -257.0992134159  -0.031063073453 0.63549701  0.00652302  0.0443216 0.0000
  3   -257.1434872061  -0.044273790124 0.12997585  0.00154926  0.0578195 0.0000
  4   -257.1551947419  -0.011707535875 0.00724365  0.00029564  0.0106179 0.0000
                      *** Initiating the SOSCF procedure ***
                           *** Shutting down DIIS ***
                      *** Re-Reading the Fockian *** 
                      *** Removing any level shift *** 
ITER      Energy       Delta-E        Grad      Rot      Max-DP    RMS-DP
  5   -257.15563800  -0.0004432602  0.000521  0.000521  0.006474  0.000106
               *** Restarting incremental Fock matrix formation ***
  6   -257.15571653  -0.0000785258  0.000240  0.000636  0.007760  0.000127
  7   -257.15571754  -0.0000010150  0.000203  0.000148  0.002519  0.000031
  8   -257.15572087  -0.0000033298  0.000030  0.000041  0.000775  0.000011
  9   -257.15572087   0.0000000066  0.000029  0.000019  0.000460  0.000005
 10   -257.15572094  -0.0000000706  0.000003  0.000004  0.000061  0.000001
                  ***Gradient check signals convergence***
              ***Rediagonalizing the Fockian in SOSCF/NRSCF***

               *****************************************************
               *                     SUCCESS                       *
               *           SCF CONVERGED AFTER  11 CYCLES          *
               *****************************************************

Old exchange energy                            =     -8.513438196 Eh
New exchange energy                            =     -8.513514833 Eh
Exchange energy change after final integration =     -0.000076637 Eh
Total energy after final integration           =   -257.155797575 Eh
Final COS-X integration done in                =     1.981 sec

----------------
TOTAL SCF ENERGY
----------------

Total Energy       :         -257.15579758 Eh           -6997.56500 eV

Components:
Nuclear Repulsion  :          199.79321432 Eh            5436.64976 eV
Electronic Energy  :         -456.94901189 Eh          -12434.21476 eV
One Electron Energy:         -745.88587459 Eh          -20296.58651 eV
Two Electron Energy:          288.93686270 Eh            7862.37175 eV
Max COSX asymmetry :            0.00000444 Eh               0.00012 eV

Virial components:
Potential Energy   :         -512.41516459 Eh          -13943.52550 eV
Kinetic Energy     :          255.25936702 Eh            6945.96050 eV
Virial Ratio       :            2.00742943


DFT components:
N(Alpha)           :       21.000025083429 electrons
N(Beta)            :       21.000025083429 electrons
N(Total)           :       42.000050166859 electrons
E(X)               :      -25.427341820625 Eh       
E(C)               :       -1.395843933180 Eh       
E(XC)              :      -26.823185753805 Eh       
DFET-embed. en.    :        0.000000000000 Eh       

---------------
SCF CONVERGENCE
---------------

  Last Energy change         ...   -8.0479e-10  Tolerance :   1.0000e-08
  Last MAX-Density change    ...    2.6645e-15  Tolerance :   1.0000e-07
  Last RMS-Density change    ...    3.9087e-17  Tolerance :   5.0000e-09
  Last Orbital Gradient      ...    1.9874e-06  Tolerance :   1.0000e-05
  Last Orbital Rotation      ...    1.5721e-06  Tolerance :   1.0000e-05

             **** THE GBW FILE WAS UPDATED (28Oct_SVPD_PBE0_D_wt_wb97.gbw) ****
             **** DENSITY 28Oct_SVPD_PBE0_D_wt_wb97.scfp WAS UPDATED ****
             **** ENERGY FILE WAS UPDATED (28Oct_SVPD_PBE0_D_wt_wb97.en.tmp) ****
             **** THE GBW FILE WAS UPDATED (28Oct_SVPD_PBE0_D_wt_wb97.gbw) ****
             **** DENSITY 28Oct_SVPD_PBE0_D_wt_wb97.scfp WAS UPDATED ****
----------------
ORBITAL ENERGIES
----------------

  NO   OCC          E(Eh)            E(eV) 
   0   2.0000     -24.792164      -674.6291 
   1   2.0000     -10.322191      -280.8811 
   2   2.0000     -10.239041      -278.6185 
   3   2.0000     -10.218667      -278.0641 
   4   2.0000     -10.156562      -276.3741 
   5   2.0000      -1.250267       -34.0215 
   6   2.0000      -0.824879       -22.4461 
   7   2.0000      -0.751777       -20.4569 
   8   2.0000      -0.652580       -17.7576 
   9   2.0000      -0.608145       -16.5485 
  10   2.0000      -0.548654       -14.9296 
  11   2.0000      -0.545314       -14.8387 
  12   2.0000      -0.506467       -13.7817 
  13   2.0000      -0.454619       -12.3708 
  14   2.0000      -0.429400       -11.6846 
  15   2.0000      -0.419423       -11.4131 
  16   2.0000      -0.392959       -10.6930 
  17   2.0000      -0.359792        -9.7904 
  18   2.0000      -0.341416        -9.2904 
  19   2.0000      -0.335067        -9.1176 
  20   2.0000      -0.288708        -7.8562 
  21   0.0000       0.027925         0.7599 
  22   0.0000       0.054712         1.4888 
  23   0.0000       0.058524         1.5925 
  24   0.0000       0.062525         1.7014 
  25   0.0000       0.088518         2.4087 
  26   0.0000       0.097539         2.6542 
  27   0.0000       0.107553         2.9267 
  28   0.0000       0.117596         3.1999 
  29   0.0000       0.122129         3.3233 
  30   0.0000       0.148975         4.0538 
  31   0.0000       0.156006         4.2451 
  32   0.0000       0.163515         4.4495 
  33   0.0000       0.178925         4.8688 
  34   0.0000       0.184546         5.0217 
  35   0.0000       0.187030         5.0894 
  36   0.0000       0.195117         5.3094 
  37   0.0000       0.207717         5.6523 
  38   0.0000       0.220278         5.9941 
  39   0.0000       0.248655         6.7662 
  40   0.0000       0.253669         6.9027 
  41   0.0000       0.263999         7.1838 
  42   0.0000       0.270536         7.3617 
  43   0.0000       0.279418         7.6034 
  44   0.0000       0.299209         8.1419 
  45   0.0000       0.300547         8.1783 
  46   0.0000       0.317133         8.6296 
  47   0.0000       0.325266         8.8509 
  48   0.0000       0.329976         8.9791 
  49   0.0000       0.336777         9.1642 
  50   0.0000       0.344694         9.3796 
  51   0.0000       0.348262         9.4767 
  52   0.0000       0.357963         9.7407 
  53   0.0000       0.367273         9.9940 
  54   0.0000       0.373261        10.1570 
  55   0.0000       0.381371        10.3776 
  56   0.0000       0.397184        10.8079 
  57   0.0000       0.405541        11.0353 
  58   0.0000       0.413247        11.2450 
  59   0.0000       0.415367        11.3027 
  60   0.0000       0.437335        11.9005 
  61   0.0000       0.444330        12.0908 
  62   0.0000       0.451354        12.2820 
  63   0.0000       0.462250        12.5785 
  64   0.0000       0.466513        12.6945 
  65   0.0000       0.470708        12.8086 
  66   0.0000       0.476415        12.9639 
  67   0.0000       0.481785        13.1100 
  68   0.0000       0.498678        13.5697 
  69   0.0000       0.501857        13.6562 
  70   0.0000       0.507638        13.8135 
  71   0.0000       0.510266        13.8850 
  72   0.0000       0.531728        14.4691 
  73   0.0000       0.538674        14.6581 
  74   0.0000       0.542072        14.7505 
  75   0.0000       0.546937        14.8829 
  76   0.0000       0.556829        15.1521 
  77   0.0000       0.566336        15.4108 
  78   0.0000       0.568712        15.4754 
  79   0.0000       0.585099        15.9214 
  80   0.0000       0.599944        16.3253 
  81   0.0000       0.612651        16.6711 
  82   0.0000       0.632138        17.2013 
  83   0.0000       0.643322        17.5057 
  84   0.0000       0.647745        17.6260 
  85   0.0000       0.659162        17.9367 
  86   0.0000       0.669509        18.2183 
  87   0.0000       0.703164        19.1341 
  88   0.0000       0.726536        19.7701 
  89   0.0000       0.793797        21.6003 
  90   0.0000       0.805352        21.9148 
  91   0.0000       0.812284        22.1034 
  92   0.0000       0.870233        23.6802 
  93   0.0000       0.899964        24.4893 
  94   0.0000       0.904074        24.6011 
  95   0.0000       0.972590        26.4655 
  96   0.0000       0.985083        26.8055 
  97   0.0000       0.990221        26.9453 
  98   0.0000       1.005581        27.3633 
  99   0.0000       1.019354        27.7380 
 100   0.0000       1.033818        28.1316 
 101   0.0000       1.059138        28.8206 
 102   0.0000       1.072042        29.1717 
 103   0.0000       1.076247        29.2862 
 104   0.0000       1.084763        29.5179 
 105   0.0000       1.087731        29.5987 
 106   0.0000       1.105416        30.0799 
 107   0.0000       1.175449        31.9856 
 108   0.0000       1.179970        32.1086 
 109   0.0000       1.195260        32.5247 
 110   0.0000       1.229250        33.4496 
 111   0.0000       1.269210        34.5370 
 112   0.0000       1.290441        35.1147 
 113   0.0000       1.317246        35.8441 
 114   0.0000       1.363835        37.1118 
 115   0.0000       1.371190        37.3120 
 116   0.0000       1.411018        38.3958 
 117   0.0000       1.430051        38.9137 
 118   0.0000       1.460868        39.7522 
 119   0.0000       1.574671        42.8490 
 120   0.0000       1.601047        43.5667 
 121   0.0000       1.652621        44.9701 
 122   0.0000       1.671685        45.4889 
 123   0.0000       1.691830        46.0370 
 124   0.0000       1.713388        46.6237 
 125   0.0000       1.751166        47.6516 
 126   0.0000       1.791226        48.7417 
 127   0.0000       1.806424        49.1553 
 128   0.0000       1.840300        50.0771 
 129   0.0000       1.881487        51.1979 
 130   0.0000       1.914604        52.0990 
 131   0.0000       1.932196        52.5777 
 132   0.0000       1.942030        52.8453 
 133   0.0000       1.954792        53.1926 
 134   0.0000       1.981770        53.9267 
 135   0.0000       2.027665        55.1756 
 136   0.0000       2.045275        55.6548 
 137   0.0000       2.050174        55.7881 
 138   0.0000       2.071743        56.3750 
 139   0.0000       2.090044        56.8730 
 140   0.0000       2.111742        57.4634 
 141   0.0000       2.161727        58.8236 
 142   0.0000       2.182013        59.3756 
 143   0.0000       2.215899        60.2977 
 144   0.0000       2.235591        60.8335 
 145   0.0000       2.299907        62.5836 
 146   0.0000       2.324274        63.2467 
 147   0.0000       2.365300        64.3631 
 148   0.0000       2.396801        65.2203 
 149   0.0000       2.405336        65.4525 
 150   0.0000       2.470711        67.2315 
 151   0.0000       2.499995        68.0283 
 152   0.0000       2.534939        68.9792 
 153   0.0000       2.559555        69.6490 
 154   0.0000       2.618674        71.2578 
 155   0.0000       2.662985        72.4635 
 156   0.0000       2.671678        72.7001 
 157   0.0000       2.761415        75.1419 
 158   0.0000       2.795636        76.0731 
 159   0.0000       2.833494        77.1033 
 160   0.0000       2.884731        78.4975 
 161   0.0000       2.947985        80.2188 
 162   0.0000       3.006411        81.8086 
 163   0.0000       3.067708        83.4766 
 164   0.0000       3.103249        84.4437 
 165   0.0000       3.110228        84.6336 
 166   0.0000       3.184388        86.6516 
 167   0.0000       3.205956        87.2385 
 168   0.0000       3.281299        89.2887 
 169   0.0000       3.321786        90.3904 
 170   0.0000       3.467015        94.3423 
 171   0.0000       3.530464        96.0688 
 172   0.0000       3.539554        96.3162 
 173   0.0000       3.885045       105.7175 
 174   0.0000       4.117580       112.0450 

                    ********************************
                    * MULLIKEN POPULATION ANALYSIS *
                    ********************************

-----------------------
MULLIKEN ATOMIC CHARGES
-----------------------
   0 C :   -0.356389
   1 C :   -0.140701
   2 H :   -0.196827
   3 H :    0.051992
   4 C :    1.599735
   5 H :   -0.080410
   6 H :    0.068248
   7 C :    0.727040
   8 H :   -0.017906
   9 H :    0.038901
  10 F :   -0.669189
  11 H :   -0.103529
  12 H :   -0.042623
  13 H :   -0.878343
Sum of atomic charges:    0.0000000

--------------------------------
MULLIKEN REDUCED ORBITAL CHARGES
--------------------------------
  0 C s       :     2.975336  s :     2.975336
      pz      :     0.916009  p :     2.935330
      px      :     0.981861
      py      :     1.037460
      dz2     :     0.010167  d :     0.445723
      dxz     :     0.084597
      dyz     :     0.121308
      dx2y2   :     0.182599
      dxy     :     0.047052
  1 C s       :     2.912822  s :     2.912822
      pz      :     0.990735  p :     2.924385
      px      :     0.965812
      py      :     0.967838
      dz2     :     0.060062  d :     0.303495
      dxz     :     0.082505
      dyz     :     0.039704
      dx2y2   :     0.023554
      dxy     :     0.097671
  2 H s       :     1.163986  s :     1.163986
      pz      :     0.023432  p :     0.032841
      px      :    -0.005658
      py      :     0.015067
  3 H s       :     0.961745  s :     0.961745
      pz      :    -0.020879  p :    -0.013737
      px      :    -0.013497
      py      :     0.020639
  4 C s       :     1.560346  s :     1.560346
      pz      :     0.955387  p :     2.721475
      px      :     0.837413
      py      :     0.928676
      dz2     :    -0.004596  d :     0.118443
      dxz     :    -0.017249
      dyz     :     0.055413
      dx2y2   :     0.063464
      dxy     :     0.021410
  5 H s       :     1.049465  s :     1.049465
      pz      :    -0.019604  p :     0.030945
      px      :     0.027853
      py      :     0.022696
  6 H s       :     0.926336  s :     0.926336
      pz      :     0.028477  p :     0.005416
      px      :    -0.014900
      py      :    -0.008162
  7 C s       :     2.684990  s :     2.684990
      pz      :     0.968489  p :     2.424866
      px      :     0.649356
      py      :     0.807020
      dz2     :     0.062202  d :     0.163104
      dxz     :     0.023461
      dyz     :     0.024233
      dx2y2   :     0.028687
      dxy     :     0.024521
  8 H s       :     0.990727  s :     0.990727
      pz      :    -0.016451  p :     0.027178
      px      :     0.038898
      py      :     0.004731
  9 H s       :     0.919233  s :     0.919233
      pz      :     0.024546  p :     0.041866
      px      :     0.000675
      py      :     0.016645
 10 F s       :     4.180034  s :     4.180034
      pz      :     1.957253  p :     5.448695
      px      :     1.653916
      py      :     1.837526
      dz2     :     0.005045  d :     0.040460
      dxz     :     0.003931
      dyz     :     0.006426
      dx2y2   :     0.017736
      dxy     :     0.007322
 11 H s       :     1.120731  s :     1.120731
      pz      :    -0.023280  p :    -0.017202
      px      :     0.002888
      py      :     0.003190
 12 H s       :     1.051034  s :     1.051034
      pz      :     0.031236  p :    -0.008411
      px      :    -0.026872
      py      :    -0.012774
 13 H s       :     1.467962  s :     1.467962
      pz      :     0.198060  p :     0.410381
      px      :     0.164756
      py      :     0.047564


                     *******************************
                     * LOEWDIN POPULATION ANALYSIS *
                     *******************************

----------------------
LOEWDIN ATOMIC CHARGES
----------------------
   0 C :   -0.065169
   1 C :   -0.022944
   2 H :    0.018785
   3 H :    0.027740
   4 C :    0.143298
   5 H :    0.026524
   6 H :    0.032823
   7 C :    0.159661
   8 H :    0.035166
   9 H :    0.044550
  10 F :   -0.194278
  11 H :   -0.028721
  12 H :   -0.021073
  13 H :   -0.156363

-------------------------------
LOEWDIN REDUCED ORBITAL CHARGES
-------------------------------
  0 C s       :     2.683530  s :     2.683530
      pz      :     0.909726  p :     2.708272
      px      :     0.888815
      py      :     0.909730
      dz2     :     0.071572  d :     0.673367
      dxz     :     0.104249
      dyz     :     0.165488
      dx2y2   :     0.178825
      dxy     :     0.153234
  1 C s       :     2.693340  s :     2.693340
      pz      :     0.887483  p :     2.701874
      px      :     0.911886
      py      :     0.902505
      dz2     :     0.139165  d :     0.627729
      dxz     :     0.102540
      dyz     :     0.141007
      dx2y2   :     0.089331
      dxy     :     0.155685
  2 H s       :     0.737783  s :     0.737783
      pz      :     0.105984  p :     0.243432
      px      :     0.057935
      py      :     0.079514
  3 H s       :     0.724261  s :     0.724261
      pz      :     0.107303  p :     0.247999
      px      :     0.060435
      py      :     0.080261
  4 C s       :     2.656256  s :     2.656256
      pz      :     0.941110  p :     2.758462
      px      :     0.902558
      py      :     0.914793
      dz2     :     0.048778  d :     0.441984
      dxz     :     0.071651
      dyz     :     0.110484
      dx2y2   :     0.108096
      dxy     :     0.102975
  5 H s       :     0.728306  s :     0.728306
      pz      :     0.060821  p :     0.245170
      px      :     0.094839
      py      :     0.089510
  6 H s       :     0.722578  s :     0.722578
      pz      :     0.092914  p :     0.244599
      px      :     0.064361
      py      :     0.087324
  7 C s       :     2.670740  s :     2.670740
      pz      :     0.904106  p :     2.482400
      px      :     0.738705
      py      :     0.839589
      dz2     :     0.144592  d :     0.687198
      dxz     :     0.110616
      dyz     :     0.147899
      dx2y2   :     0.115112
      dxy     :     0.168980
  8 H s       :     0.734756  s :     0.734756
      pz      :     0.064465  p :     0.230078
      px      :     0.088659
      py      :     0.076953
  9 H s       :     0.727850  s :     0.727850
      pz      :     0.090468  p :     0.227600
      px      :     0.047497
      py      :     0.089635
 10 F s       :     3.613809  s :     3.613809
      pz      :     1.852125  p :     5.269344
      px      :     1.639008
      py      :     1.778211
      dz2     :     0.024680  d :     0.311125
      dxz     :     0.083051
      dyz     :     0.045016
      dx2y2   :     0.073438
      dxy     :     0.084939
 11 H s       :     0.749892  s :     0.749892
      pz      :     0.087045  p :     0.278829
      px      :     0.109903
      py      :     0.081881
 12 H s       :     0.741308  s :     0.741308
      pz      :     0.116461  p :     0.279764
      px      :     0.074634
      py      :     0.088669
 13 H s       :     0.637079  s :     0.637079
      pz      :     0.176995  p :     0.519284
      px      :     0.190158
      py      :     0.152130


                      *****************************
                      * MAYER POPULATION ANALYSIS *
                      *****************************

  NA   - Mulliken gross atomic population
  ZA   - Total nuclear charge
  QA   - Mulliken gross atomic charge
  VA   - Mayer's total valence
  BVA  - Mayer's bonded valence
  FA   - Mayer's free valence

  ATOM       NA         ZA         QA         VA         BVA        FA
  0 C      6.3564     6.0000    -0.3564     5.1393     5.1393     0.0000
  1 C      6.1407     6.0000    -0.1407     4.6248     4.6248     0.0000
  2 H      1.1968     1.0000    -0.1968     1.1110     1.1110     0.0000
  3 H      0.9480     1.0000     0.0520     0.9580     0.9580     0.0000
  4 C      4.4003     6.0000     1.5997     2.0648     2.0648    -0.0000
  5 H      1.0804     1.0000    -0.0804     1.1214     1.1214     0.0000
  6 H      0.9318     1.0000     0.0682     0.9881     0.9881     0.0000
  7 C      5.2730     6.0000     0.7270     3.7951     3.7951     0.0000
  8 H      1.0179     1.0000    -0.0179     1.0688     1.0688     0.0000
  9 H      0.9611     1.0000     0.0389     1.0672     1.0672     0.0000
 10 F      9.6692     9.0000    -0.6692     1.1246     1.1246     0.0000
 11 H      1.1035     1.0000    -0.1035     0.8463     0.8463     0.0000
 12 H      1.0426     1.0000    -0.0426     0.9067     0.9067    -0.0000
 13 H      1.8783     1.0000    -0.8783     1.1734     1.1734     0.0000

  Mayer bond orders larger than 0.100000
B(  0-C ,  1-C ) :   1.1163 B(  0-C ,  2-H ) :   1.0645 B(  0-C ,  3-H ) :   0.8916 
B(  0-C ,  4-C ) :   1.0361 B(  0-C , 11-H ) :   0.1542 B(  0-C , 12-H ) :   0.2113 
B(  0-C , 13-H ) :   0.3959 B(  1-C ,  5-H ) :   0.9764 B(  1-C ,  6-H ) :   0.9042 
B(  1-C ,  7-C ) :   1.2148 B(  1-C ,  8-H ) :   0.1061 B(  1-C ,  9-H ) :   0.1034 
B(  1-C , 10-F ) :   0.1350 B(  4-C , 10-F ) :  -0.1455 B(  4-C , 11-H ) :   0.5854 
B(  4-C , 12-H ) :   0.4291 B(  5-H ,  7-C ) :   0.1008 B(  7-C ,  8-H ) :   0.8928 
B(  7-C ,  9-H ) :   0.8920 B(  7-C , 10-F ) :   0.6350 B( 10-F , 13-H ) :   0.2698 
B( 11-H , 13-H ) :   0.2339 B( 12-H , 13-H ) :   0.4091 

-------
TIMINGS
-------

Total SCF time: 0 days 0 hours 0 min 16 sec 

Total time                  ....      16.328 sec
Sum of individual times     ....      15.885 sec  ( 97.3%)

Fock matrix formation       ....      14.783 sec  ( 90.5%)
  Split-RI-J                ....       1.019 sec  (  6.9% of F)
  Chain of spheres X        ....      10.484 sec  ( 70.9% of F)
  XC integration            ....       3.247 sec  ( 22.0% of F)
    Basis function eval.    ....       1.064 sec  ( 32.8% of XC)
    Density eval.           ....       0.772 sec  ( 23.8% of XC)
    XC-Functional eval.     ....       0.179 sec  (  5.5% of XC)
    XC-Potential eval.      ....       1.099 sec  ( 33.9% of XC)
Diagonalization             ....       0.049 sec  (  0.3%)
Density matrix formation    ....       0.005 sec  (  0.0%)
Population analysis         ....       0.013 sec  (  0.1%)
Initial guess               ....       0.140 sec  (  0.9%)
Orbital Transformation      ....       0.000 sec  (  0.0%)
Orbital Orthonormalization  ....       0.000 sec  (  0.0%)
DIIS solution               ....       0.026 sec  (  0.2%)
SOSCF solution              ....       0.033 sec  (  0.2%)
Grid generation             ....       0.836 sec  (  5.1%)

Maximum memory used throughout the entire SCF-calculation: 52.4 MB


-------------------------------------------------------------------------------
                          DFT DISPERSION CORRECTION                            
                                                                               
                              DFTD3 V3.1  Rev 1                                
                          USING Becke-Johnson damping                          
-------------------------------------------------------------------------------
The PBE0 functional is recognized
Active option DFTDOPT                   ...         4   

molecular C6(AA) [au] = 1250.901446 


            DFT-D V3
 parameters
 s6 scaling factor         :     1.0000 
 a1 scaling factor         :     0.4145 
 s8 scaling factor         :     1.2177 
 a2 scaling factor         :     4.8593 
 ad hoc parameters k1-k3   :    16.0000     1.3333    -4.0000 

 Edisp/kcal,au: -5.189932442170  -0.008270682919 
 E6   /kcal   :  -3.406076933 
 E8   /kcal   :  -1.783855510 
 % E8         :  34.371459156 

-------------------------   ----------------
Dispersion correction           -0.008270683
-------------------------   ----------------


-------------------------   --------------------
FINAL SINGLE POINT ENERGY      -257.164068257983
-------------------------   --------------------


                            ***************************************
                            *     ORCA property calculations      *
                            ***************************************

                                    ---------------------
                                    Active property flags
                                    ---------------------
   (+) Dipole Moment


------------------------------------------------------------------------------
                       ORCA ELECTRIC PROPERTIES CALCULATION
------------------------------------------------------------------------------

Dipole Moment Calculation                       ... on
Quadrupole Moment Calculation                   ... off
Polarizability Calculation                      ... off
GBWName                                         ... 28Oct_SVPD_PBE0_D_wt_wb97.gbw
Electron density file                           ... 28Oct_SVPD_PBE0_D_wt_wb97.scfp
The origin for moment calculation is the CENTER OF MASS  = (-3.184978, -0.543062  2.125368)

-------------
DIPOLE MOMENT
-------------
                                X             Y             Z
Electronic contribution:      0.89968      -4.19429      -3.73494
Nuclear contribution   :     -0.20666       4.43855       3.76066
                        -----------------------------------------
Total Dipole Moment    :      0.69302       0.24425       0.02571
                        -----------------------------------------
Magnitude (a.u.)       :      0.73525
Magnitude (Debye)      :      1.86886



--------------------
Rotational spectrum 
--------------------
 
Rotational constants in cm-1:     0.236353     0.155239     0.105045 
Rotational constants in MHz :  7085.692869  4653.957069  3149.180346 

 Dipole components along the rotational axes: 
x,y,z [a.u.] :    -0.228578     0.695322    -0.069819 
x,y,z [Debye]:    -0.580999     1.767369    -0.177466 

 

Timings for individual modules:

Sum of individual times         ...       20.409 sec (=   0.340 min)
GTO integral calculation        ...        2.328 sec (=   0.039 min)  11.4 %
SCF iterations                  ...       18.081 sec (=   0.301 min)  88.6 %
                             ****ORCA TERMINATED NORMALLY****
TOTAL RUN TIME: 0 days 0 hours 0 minutes 20 seconds 906 msec
