
                                        *****************
                                        * O   R   C   A *
                                        *****************

                                            #,                                       
                                            ###                                      
                                            ####                                     
                                            #####                                    
                                            ######                                   
                                           ########,                                 
                                     ,,################,,,,,                         
                               ,,#################################,,                 
                          ,,##########################################,,             
                       ,#########################################, ''#####,          
                    ,#############################################,,   '####,        
                  ,##################################################,,,,####,       
                ,###########''''           ''''###############################       
              ,#####''   ,,,,##########,,,,          '''####'''          '####       
            ,##' ,,,,###########################,,,                        '##       
           ' ,,###''''                  '''############,,,                           
         ,,##''                                '''############,,,,        ,,,,,,###''
      ,#''                                            '''#######################'''  
     '                                                          ''''####''''         
             ,#######,   #######,   ,#######,      ##                                
            ,#'     '#,  ##    ##  ,#'     '#,    #''#        ######   ,####,        
            ##       ##  ##   ,#'  ##            #'  '#       #        #'  '#        
            ##       ##  #######   ##           ,######,      #####,   #    #        
            '#,     ,#'  ##    ##  '#,     ,#' ,#      #,         ##   #,  ,#        
             '#######'   ##     ##  '#######'  #'      '#     #####' # '####'        



                  #######################################################
                  #                        -***-                        #
                  #          Department of theory and spectroscopy      #
                  #    Directorship and core code : Frank Neese         #
                  #        Max Planck Institute fuer Kohlenforschung    #
                  #                Kaiser Wilhelm Platz 1               #
                  #                 D-45470 Muelheim/Ruhr               #
                  #                      Germany                        #
                  #                                                     #
                  #                  All rights reserved                #
                  #                        -***-                        #
                  #######################################################


                         Program Version 5.0.0 -  RELEASE  -
                                (SVN: $Rev: 19529$)
                ($Date: 2021-06-28 11:36:33 +0200 (Mo, 28 Jun 2021) $)


 With contributions from (in alphabetic order):
   Daniel Aravena         : Magnetic Suceptibility
   Michael Atanasov       : Ab Initio Ligand Field Theory (pilot matlab implementation)
   Alexander A. Auer      : GIAO ZORA, VPT2 properties, NMR spectrum
   Ute Becker             : Parallelization
   Giovanni Bistoni       : ED, misc. LED, open-shell LED, HFLD
   Martin Brehm           : Molecular dynamics
   Dmytro Bykov           : SCF Hessian
   Vijay G. Chilkuri      : MRCI spin determinant printing, contributions to CSF-ICE
   Dipayan Datta          : RHF DLPNO-CCSD density
   Achintya Kumar Dutta   : EOM-CC, STEOM-CC
   Dmitry Ganyushin       : Spin-Orbit,Spin-Spin,Magnetic field MRCI
   Miquel Garcia          : C-PCM Hessian, Gaussian charge scheme
   Yang Guo               : DLPNO-NEVPT2, F12-NEVPT2, CIM, IAO-localization
   Andreas Hansen         : Spin unrestricted coupled pair/coupled cluster methods
   Benjamin Helmich-Paris : MC-RPA, TRAH-SCF, COSX integrals
   Lee Huntington         : MR-EOM, pCC
   Robert Izsak           : Overlap fitted RIJCOSX, COSX-SCS-MP3, EOM
   Marcus Kettner         : VPT2
   Christian Kollmar      : KDIIS, OOCD, Brueckner-CCSD(T), CCSD density, CASPT2, CASPT2-K
   Simone Kossmann        : Meta GGA functionals, TD-DFT gradient, OOMP2, MP2 Hessian
   Martin Krupicka        : Initial AUTO-CI
   Lucas Lang             : DCDCAS
   Marvin Lechner         : AUTO-CI (C++ implementation), FIC-MRCC
   Dagmar Lenk            : GEPOL surface, SMD
   Dimitrios Liakos       : Extrapolation schemes; Compound Job, initial MDCI parallelization
   Dimitrios Manganas     : Further ROCIS development; embedding schemes
   Dimitrios Pantazis     : SARC Basis sets
   Anastasios Papadopoulos: AUTO-CI, single reference methods and gradients
   Taras Petrenko         : DFT Hessian,TD-DFT gradient, ASA, ECA, R-Raman, ABS, FL, XAS/XES, NRVS
   Peter Pinski           : DLPNO-MP2, DLPNO-MP2 Gradient
   Christoph Reimann      : Effective Core Potentials
   Marius Retegan         : Local ZFS, SOC
   Christoph Riplinger    : Optimizer, TS searches, QM/MM, DLPNO-CCSD(T), (RO)-DLPNO pert. Triples
   Tobias Risthaus        : Range-separated hybrids, TD-DFT gradient, RPA, STAB
   Michael Roemelt        : Original ROCIS implementation
   Masaaki Saitow         : Open-shell DLPNO-CCSD energy and density
   Barbara Sandhoefer     : DKH picture change effects
   Avijit Sen             : IP-ROCIS
   Kantharuban Sivalingam : CASSCF convergence, NEVPT2, FIC-MRCI
   Bernardo de Souza      : ESD, SOC TD-DFT
   Georgi Stoychev        : AutoAux, RI-MP2 NMR
   Willem Van den Heuvel  : Paramagnetic NMR
   Boris Wezisla          : Elementary symmetry handling
   Frank Wennmohs         : Technical directorship


 We gratefully acknowledge several colleagues who have allowed us to
 interface, adapt or use parts of their codes:
   Stefan Grimme, W. Hujo, H. Kruse, P. Pracht,  : VdW corrections, initial TS optimization,
                  C. Bannwarth, S. Ehlert          DFT functionals, gCP, sTDA/sTD-DF
   Ed Valeev, F. Pavosevic, A. Kumar             : LibInt (2-el integral package), F12 methods
   Garnet Chan, S. Sharma, J. Yang, R. Olivares  : DMRG
   Ulf Ekstrom                                   : XCFun DFT Library
   Mihaly Kallay                                 : mrcc  (arbitrary order and MRCC methods)
   Jiri Pittner, Ondrej Demel                    : Mk-CCSD
   Frank Weinhold                                : gennbo (NPA and NBO analysis)
   Christopher J. Cramer and Donald G. Truhlar   : smd solvation model
   Lars Goerigk                                  : TD-DFT with DH, B97 family of functionals
   V. Asgeirsson, H. Jonsson                     : NEB implementation
   FAccTs GmbH                                   : IRC, NEB, NEB-TS, DLPNO-Multilevel, CI-OPT
                                                   MM, QMMM, 2- and 3-layer-ONIOM, Crystal-QMMM,
                                                   LR-CPCM, SF, NACMEs, symmetry and pop. for TD-DFT,
                                                   nearIR, NL-DFT gradient (VV10), updates on ESD,
                                                   ML-optimized integration grids
   S Lehtola, MJT Oliveira, MAL Marques          : LibXC Library
   Liviu Ungur et al                             : ANISO software


 Your calculation uses the libint2 library for the computation of 2-el integrals
 For citations please refer to: http://libint.valeyev.net

 Your ORCA version has been built with support for libXC version: 5.1.0
 For citations please refer to: https://tddft.org/programs/libxc/

 This ORCA versions uses:
   CBLAS   interface :  Fast vector & matrix operations
   LAPACKE interface :  Fast linear algebra routines
   SCALAPACK package :  Parallel linear algebra routines
   Shared memory     :  Shared parallel matrices
   BLAS/LAPACK       :  OpenBLAS 0.3.15  USE64BITINT DYNAMIC_ARCH NO_AFFINITY Haswell SINGLE_THREADED
        Core in use  :  Haswell
   Copyright (c) 2011-2014, The OpenBLAS Project




***************************************
The coordinates will be read from file: D2.xyz
***************************************


XCFun DFT library Copyright 2009-2010 Ulf Ekstrom and contributors.
See http://admol.org/xcfun for more information.
This is free software; see the source code for copying conditions.
There is ABSOLUTELY NO WARRANTY; not even for MERCHANTABILITY or FITNESS FOR A PARTICULAR PURPOSE.
For details see the documentation.
Scientific users of this library should cite U. Ekstrom, L. Visscher, R. Bast, A. J. Thorvaldsen and K. Ruud;
J.Chem.Theor.Comp. 2010, DOI: 10.1021/ct100117s
XCFun Version 0.99 

================================================================================

----- Orbital basis set information -----
Your calculation utilizes the basis: def2-TZVPD
   F. Weigend and R. Ahlrichs, Phys. Chem. Chem. Phys. 7, 3297 (2005).
   D. Rappoport and F. Furche, J. Chem. Phys. 133 134105 (2010).

----- AuxJ basis set information -----
Your calculation utilizes the auxiliary basis: def2/J
   F. Weigend, Phys. Chem. Chem. Phys. 8, 1057 (2006).

================================================================================
                                        WARNINGS
                       Please study these warnings very carefully!
================================================================================


INFO   : the flag for use of the SHARK integral package has been found!

================================================================================
                                       INPUT FILE
================================================================================
NAME = 28Oct_TZVPD_CAMB3LYP_D2_wb97.com
|  1> !CAM-B3LYP RIJCOSX def2-TZVPD def2/J TightSCF xyzfile                                                                                         
|  2> 
|  3> *xyzfile 0 1 D2.xyz
|  4> 
|  5> %MaxCore 64000
|  6> 
|  7> %pal nprocs 4                                                                                                                                                  
|  8> end  
|  9> 
| 10> %scf
| 11>   MaxIter 150
| 12> end
| 13> 
| 14> 
| 15>                          ****END OF INPUT****
================================================================================

                       ****************************
                       * Single Point Calculation *
                       ****************************

---------------------------------
CARTESIAN COORDINATES (ANGSTROEM)
---------------------------------
  C      3.343500    3.354571   -3.591998
  C      2.952633    1.863077   -3.574849
  C      4.129209    0.898394   -3.418950
  H      3.733687   -0.100605   -3.237633
  H      4.719095    0.862556   -4.339005
  C      5.017344    1.315212   -2.221305
  C      4.255868    3.703851   -4.726054
  N      3.734032    4.293783   -5.800770
  C      5.515039    3.407255   -4.637185
  H      6.149187    3.601203   -5.399053
  H      5.813584    2.899504   -3.808785
  H      2.741380    4.513109   -5.824701
  H      4.287548    4.521260   -6.614341
  H      2.278938    1.735250   -2.725496
  H      2.377466    1.625787   -4.475869
  F      4.737055    0.854112   -1.122825
  O      5.928146    2.168108   -2.491365
  H      3.861246    3.597252   -2.662979
  H      2.446493    3.973461   -3.656556

----------------------------
CARTESIAN COORDINATES (A.U.)
----------------------------
  NO LB      ZA    FRAG     MASS         X           Y           Z
   0 C     6.0000    0    12.011    6.318299    6.339220   -6.787892
   1 C     6.0000    0    12.011    5.579668    3.520705   -6.755485
   2 C     6.0000    0    12.011    7.803074    1.697719   -6.460880
   3 H     1.0000    0     1.008    7.055645   -0.190115   -6.118240
   4 H     1.0000    0     1.008    8.917798    1.629994   -8.199532
   5 C     6.0000    0    12.011    9.481405    2.485390   -4.197658
   6 C     6.0000    0    12.011    8.042425    6.999265   -8.930948
   7 N     7.0000    0    14.007    7.056298    8.114075  -10.961867
   8 C     6.0000    0    12.011   10.421913    6.438778   -8.763009
   9 H     1.0000    0     1.008   11.620279    6.805287  -10.202732
  10 H     1.0000    0     1.008   10.986082    5.479268   -7.197561
  11 H     1.0000    0     1.008    5.180457    8.528540  -11.007090
  12 H     1.0000    0     1.008    8.102292    8.543944  -12.499293
  13 H     1.0000    0     1.008    4.306568    3.279147   -5.150441
  14 H     1.0000    0     1.008    4.492760    3.072291   -8.458167
  15 F     9.0000    0    18.998    8.951737    1.614038   -2.121832
  16 O     8.0000    0    15.999   11.202573    4.097131   -4.707997
  17 H     1.0000    0     1.008    7.296698    6.797822   -5.032300
  18 H     1.0000    0     1.008    4.623202    7.508754   -6.909890

--------------------------------
INTERNAL COORDINATES (ANGSTROEM)
--------------------------------
 C      0   0   0     0.000000000000     0.00000000     0.00000000
 C      1   0   0     1.541955024880     0.00000000     0.00000000
 C      2   1   0     1.529459731877   114.59647875     0.00000000
 H      3   2   1     1.089638404615   108.42080280   169.84269645
 H      3   2   1     1.093504202718   110.48067446   287.77495084
 C      3   2   1     1.548184316806   110.50829043    50.38237693
 C      1   2   3     1.496828833341   112.87029798    60.99277320
 N      7   1   2     1.332421496251   118.40475339   100.88730349
 C      7   1   2     1.296679672360   119.11744996   281.82651921
 H      9   7   1     1.010051189819   120.93457194   177.85654102
 H      9   7   1     1.016457414395   117.08628344     3.23408230
 H      8   7   1     1.016874596539   119.78805900     1.33715241
 H      8   7   1     1.009962060502   122.33188892   182.52589138
 H      2   1   3     1.091606836098   106.16254242   120.06039675
 H      2   1   3     1.094970931493   109.48850295   235.12365012
 F      6   3   2     1.223859674100   117.48492925    89.39693928
 O      6   3   2     1.276685429462   115.18110245   272.92014429
 H      1   2   3     1.090885930422   109.02734392   301.35657719
 H      1   2   3     1.091702678778   109.92131780   182.76836174

---------------------------
INTERNAL COORDINATES (A.U.)
---------------------------
 C      0   0   0     0.000000000000     0.00000000     0.00000000
 C      1   0   0     2.913872707847     0.00000000     0.00000000
 C      2   1   0     2.890260026108   114.59647875     0.00000000
 H      3   2   1     2.059118169725   108.42080280   169.84269645
 H      3   2   1     2.066423469429   110.48067446   287.77495084
 C      3   2   1     2.925644363596   110.50829043    50.38237693
 C      1   2   3     2.828596564372   112.87029798    60.99277320
 N      7   1   2     2.517911722863   118.40475339   100.88730349
 C      7   1   2     2.450369464184   119.11744996   281.82651921
 H      9   7   1     1.908720130000   120.93457194   177.85654102
 H      9   7   1     1.920826140000   117.08628344     3.23408230
 H      8   7   1     1.921614500000   119.78805900     1.33715241
 H      8   7   1     1.908551700000   122.33188892   182.52589138
 H      2   1   3     2.062837966141   106.16254242   120.06039675
 H      2   1   3     2.069195185126   109.48850295   235.12365012
 F      6   3   2     2.312759610399   117.48492925    89.39693928
 O      6   3   2     2.412585820850   115.18110245   272.92014429
 H      1   2   3     2.061475651846   109.02734392   301.35657719
 H      1   2   3     2.063019082559   109.92131780   182.76836174

---------------------
BASIS SET INFORMATION
---------------------
There are 5 groups of distinct atoms

 Group   1 Type C   : 12s6p3d1f contracted to 6s3p3d1f pattern {621111/411/111/1}
 Group   2 Type H   : 5s2p contracted to 3s2p pattern {311/11}
 Group   3 Type N   : 12s6p3d1f contracted to 6s3p3d1f pattern {621111/411/111/1}
 Group   4 Type F   : 12s7p3d1f contracted to 6s4p3d1f pattern {621111/4111/111/1}
 Group   5 Type O   : 12s7p3d1f contracted to 6s4p3d1f pattern {621111/4111/111/1}

Atom   0C    basis set group =>   1
Atom   1C    basis set group =>   1
Atom   2C    basis set group =>   1
Atom   3H    basis set group =>   2
Atom   4H    basis set group =>   2
Atom   5C    basis set group =>   1
Atom   6C    basis set group =>   1
Atom   7N    basis set group =>   3
Atom   8C    basis set group =>   1
Atom   9H    basis set group =>   2
Atom  10H    basis set group =>   2
Atom  11H    basis set group =>   2
Atom  12H    basis set group =>   2
Atom  13H    basis set group =>   2
Atom  14H    basis set group =>   2
Atom  15F    basis set group =>   4
Atom  16O    basis set group =>   5
Atom  17H    basis set group =>   2
Atom  18H    basis set group =>   2
---------------------------------
AUXILIARY/J BASIS SET INFORMATION
---------------------------------
There are 5 groups of distinct atoms

 Group   1 Type C   : 12s5p4d2f1g contracted to 6s4p3d1f1g pattern {711111/2111/211/2/1}
 Group   2 Type H   : 5s2p1d contracted to 3s1p1d pattern {311/2/1}
 Group   3 Type N   : 12s5p4d2f1g contracted to 6s4p3d1f1g pattern {711111/2111/211/2/1}
 Group   4 Type F   : 12s5p4d2f1g contracted to 6s4p3d1f1g pattern {711111/2111/211/2/1}
 Group   5 Type O   : 12s5p4d2f1g contracted to 6s4p3d1f1g pattern {711111/2111/211/2/1}

Atom   0C    basis set group =>   1
Atom   1C    basis set group =>   1
Atom   2C    basis set group =>   1
Atom   3H    basis set group =>   2
Atom   4H    basis set group =>   2
Atom   5C    basis set group =>   1
Atom   6C    basis set group =>   1
Atom   7N    basis set group =>   3
Atom   8C    basis set group =>   1
Atom   9H    basis set group =>   2
Atom  10H    basis set group =>   2
Atom  11H    basis set group =>   2
Atom  12H    basis set group =>   2
Atom  13H    basis set group =>   2
Atom  14H    basis set group =>   2
Atom  15F    basis set group =>   4
Atom  16O    basis set group =>   5
Atom  17H    basis set group =>   2
Atom  18H    basis set group =>   2


           ************************************************************
           *        Program running with 4 parallel MPI-processes     *
           *              working on a common directory               *
           ************************************************************
------------------------------------------------------------------------------
                           ORCA GTO INTEGRAL CALCULATION
                           -- RI-GTO INTEGRALS CHOSEN --
------------------------------------------------------------------------------
------------------------------------------------------------------------------
                   ___                                                        
                  /   \      - P O W E R E D   B Y -                         
                 /     \                                                     
                 |  |  |   _    _      __       _____    __    __             
                 |  |  |  | |  | |    /  \     |  _  \  |  |  /  |          
                  \  \/   | |  | |   /    \    | | | |  |  | /  /          
                 / \  \   | |__| |  /  /\  \   | |_| |  |  |/  /          
                |  |  |   |  __  | /  /__\  \  |    /   |      \           
                |  |  |   | |  | | |   __   |  |    \   |  |\   \          
                \     /   | |  | | |  |  |  |  | |\  \  |  | \   \       
                 \___/    |_|  |_| |__|  |__|  |_| \__\ |__|  \__/        
                                                                              
                      - O R C A' S   B I G   F R I E N D -                    
                                      &                                       
                       - I N T E G R A L  F E E D E R -                       
                                                                              
 v1 FN, 2020, v2 2021                                                         
------------------------------------------------------------------------------


Reading SHARK input file 28Oct_TZVPD_CAMB3LYP_D2_wb97.SHARKINP.tmp ... ok
----------------------
SHARK INTEGRAL PACKAGE
----------------------

Number of atoms                             ...     19
Number of basis functions                   ...    429
Number of shells                            ...    169
Maximum angular momentum                    ...      3
Integral batch strategy                     ... SHARK/LIBINT Hybrid
RI-J (if used) integral strategy            ... SPLIT-RIJ (Revised 2003 algorithm where possible)
Printlevel                                  ...      1
Contraction scheme used                     ... SEGMENTED contraction
Coulomb Range Separation                    ... NOT USED
Exchange Range Separation                   ... Long Range
   Mu parameter                             ...  0.330000
   Scaling (regular/separated)              ...  0.190000  0.460000
Finite Nucleus Model                        ... NOT USED
Auxiliary Coulomb fitting basis             ... AVAILABLE
   # of basis functions in Aux-J            ...    551
   # of shells in Aux-J                     ...    185
   Maximum angular momentum in Aux-J        ...      4
Auxiliary J/K fitting basis                 ... NOT available
Auxiliary Correlation fitting basis         ... NOT available
Auxiliary 'external' fitting basis          ... NOT available
Integral threshold                          ...     2.500000e-11
Primitive cut-off                           ...     2.500000e-12
Primitive pair pre-selection threshold      ...     2.500000e-12

Calculating pre-screening integrals         ... done (  0.1 sec) Dimension = 169
Organizing shell pair data                  ... done (  0.1 sec)
Shell pair information
Total number of shell pairs                 ...     14365
Shell pairs after pre-screening             ...     13438
Total number of primitive shell pairs       ...     36813
Primitive shell pairs kept                  ...     27262
          la=0 lb=0:   3214 shell pairs
          la=1 lb=0:   3888 shell pairs
          la=1 lb=1:   1192 shell pairs
          la=2 lb=0:   2123 shell pairs
          la=2 lb=1:   1281 shell pairs
          la=2 lb=2:    366 shell pairs
          la=3 lb=0:    685 shell pairs
          la=3 lb=1:    419 shell pairs
          la=3 lb=2:    230 shell pairs
          la=3 lb=3:     40 shell pairs

Calculating one electron integrals          ... done (  0.0 sec)
Calculating RI/J V-Matrix + Cholesky decomp.... done (  0.0 sec)
Calculating Nuclear repulsion               ... done (  0.0 sec) ENN=    473.588833612731 Eh

SHARK setup successfully completed in   0.4 seconds

Maximum memory used throughout the entire GTOINT-calculation: 21.7 MB


           ************************************************************
           *        Program running with 4 parallel MPI-processes     *
           *              working on a common directory               *
           ************************************************************
-------------------------------------------------------------------------------
                                 ORCA SCF
-------------------------------------------------------------------------------

------------
SCF SETTINGS
------------
Hamiltonian:
 Density Functional     Method          .... DFT(GTOs)
 Exchange Functional    Exchange        .... WB88
 Correlation Functional Correlation     .... LYP
 LDA part of GGA corr.  LDAOpt          .... VWN-5
 Gradients option       PostSCFGGA      .... off
 Hybrid DFT is turned on
   Fraction HF Exchange ScalHFX         ....  0.190000
   Scaling of DF-GGA-X  ScalDFX         ....  0.350000
   Scaling of DF-GGA-C  ScalDFC         ....  0.810000
   Scaling of DF-LDA-C  ScalLDAC        ....  1.000000
   Perturbative correction              ....  0.000000
   Density functional embedding theory  .... OFF
 Long-range corrected/Screened/Range-Separated Hybrid DFT is turned on
   Amount of maximum screened exact exchange              ....  0.460000
   Range separation parameter mu (erf(mu*r12)/r12)        ....  0.330000
 RI-approximation to the Coulomb term is turned on
   Number of AuxJ basis functions       .... 551
   RIJ-COSX (HFX calculated with COS-X)).... on


General Settings:
 Integral files         IntName         .... 28Oct_TZVPD_CAMB3LYP_D2_wb97
 Hartree-Fock type      HFTyp           .... RHF
 Total Charge           Charge          ....    0
 Multiplicity           Mult            ....    1
 Number of Electrons    NEL             ....   70
 Basis Dimension        Dim             ....  429
 Nuclear Repulsion      ENuc            ....    473.5888336127 Eh

Convergence Acceleration:
 DIIS                   CNVDIIS         .... on
   Start iteration      DIISMaxIt       ....    12
   Startup error        DIISStart       ....  0.200000
   # of expansion vecs  DIISMaxEq       ....     5
   Bias factor          DIISBfac        ....   1.050
   Max. coefficient     DIISMaxC        ....  10.000
 Trust-Rad. Augm. Hess. CNVTRAH         .... auto
   Auto Start mean grad. ratio tolernc. ....  1.125000
   Auto Start start iteration           ....    20
   Auto Start num. interpolation iter.  ....    10
   Max. Number of Micro iterations      ....    16
   Max. Number of Macro iterations      .... Maxiter - #DIIS iter
   Number of Davidson start vectors     ....     2
   Converg. threshold I  (grad. norm)   ....   1.000e-05
   Converg. threshold II (energy diff.) ....   1.000e-08
   Grad. Scal. Fac. for Micro threshold ....   0.100
   Minimum threshold for Micro iter.    ....   0.010
   NR start threshold (gradient norm)   ....   0.001
   Initial trust radius                 ....   0.400
   Minimum AH scaling param. (alpha)    ....   1.000
   Maximum AH scaling param. (alpha)    .... 1000.000
   Orbital update algorithm             .... Taylor
   White noise on init. David. guess    .... on
   Maximum white noise                  ....   0.010
   Quad. conv. algorithm                .... NR
 SOSCF                  CNVSOSCF        .... on
   Start iteration      SOSCFMaxIt      ....   150
   Startup grad/error   SOSCFStart      ....  0.003300
 Level Shifting         CNVShift        .... on
   Level shift para.    LevelShift      ....    0.2500
   Turn off err/grad.   ShiftErr        ....    0.0010
 Zerner damping         CNVZerner       .... off
 Static damping         CNVDamp         .... on
   Fraction old density DampFac         ....    0.7000
   Max. Damping (<1)    DampMax         ....    0.9800
   Min. Damping (>=0)   DampMin         ....    0.0000
   Turn off err/grad.   DampErr         ....    0.1000
 Fernandez-Rico         CNVRico         .... off

SCF Procedure:
 Maximum # iterations   MaxIter         ....   150
 SCF integral mode      SCFMode         .... Direct
   Integral package                     .... SHARK and LIBINT hybrid scheme
 Reset frequency        DirectResetFreq ....    20
 Integral Threshold     Thresh          ....  2.500e-11 Eh
 Primitive CutOff       TCut            ....  2.500e-12 Eh

Convergence Tolerance:
 Convergence Check Mode ConvCheckMode   .... Total+1el-Energy
 Convergence forced     ConvForced      .... 0
 Energy Change          TolE            ....  1.000e-08 Eh
 1-El. energy change                    ....  1.000e-05 Eh
 Orbital Gradient       TolG            ....  1.000e-05
 Orbital Rotation angle TolX            ....  1.000e-05
 DIIS Error             TolErr          ....  5.000e-07


Diagonalization of the overlap matrix:
Smallest eigenvalue                        ... 2.028e-06
Time for diagonalization                   ...    0.047 sec
Threshold for overlap eigenvalues          ... 1.000e-08
Number of eigenvalues below threshold      ... 0
Time for construction of square roots      ...    0.032 sec
Total time needed                          ...    0.082 sec

Time for model grid setup =    0.208 sec

------------------------------
INITIAL GUESS: MODEL POTENTIAL
------------------------------
Loading Hartree-Fock densities                     ... done
Calculating cut-offs                               ... done
Initializing the effective Hamiltonian             ... done
Setting up the integral package (SHARK)            ... done
Starting the Coulomb interaction                   ... done (   0.3 sec)
Reading the grid                                   ... done
Mapping shells                                     ... done
Starting the XC term evaluation                    ... done (   0.4 sec)
  promolecular density results
     # of electrons  =     69.989650221
     EX              =    -58.416949090
     EC              =     -2.349922700
     EX+EC           =    -60.766871789
Transforming the Hamiltonian                       ... done (   0.0 sec)
Diagonalizing the Hamiltonian                      ... done (   0.0 sec)
Back transforming the eigenvectors                 ... done (   0.0 sec)
Now organizing SCF variables                       ... done
                      ------------------
                      INITIAL GUESS DONE (   1.0 sec)
                      ------------------
-------------------
DFT GRID GENERATION
-------------------

General Integration Accuracy     IntAcc      ... 4.388
Radial Grid Type                 RadialGrid  ... OptM3 with GC (2021)
Angular Grid (max. ang.)         AngularGrid ... 4 (Lebedev-302)
Angular grid pruning method      GridPruning ... 4 (adaptive)
Weight generation scheme         WeightScheme... Becke
Basis function cutoff            BFCut       ... 1.0000e-11
Integration weight cutoff        WCut        ... 1.0000e-14
Angular grids for H and He will be reduced by one unit
Partially contracted basis set               ... off
Rotationally invariant grid construction     ... off

Total number of grid points                  ...    90138
Total number of batches                      ...     1419
Average number of points per batch           ...       63
Average number of grid points per atom       ...     4744
Time for grid setup =    0.745 sec

--------------------
COSX GRID GENERATION
--------------------

GRIDX 1
-------
General Integration Accuracy     IntAcc      ... 3.816
Radial Grid Type                 RadialGrid  ... OptM3 with GC (2021)
Angular Grid (max. ang.)         AngularGrid ... 1 (Lebedev-50)
Angular grid pruning method      GridPruning ... 4 (adaptive)
Weight generation scheme         WeightScheme... Becke
Basis function cutoff            BFCut       ... 1.0000e-11
Integration weight cutoff        WCut        ... 1.0000e-14
Angular grids for H and He will be reduced by one unit
Partially contracted basis set               ... on
Rotationally invariant grid construction     ... off

Total number of grid points                  ...    11329
Total number of batches                      ...      187
Average number of points per batch           ...       60
Average number of grid points per atom       ...      596
UseSFitting                                  ... on

GRIDX 2
-------
General Integration Accuracy     IntAcc      ... 4.020
Radial Grid Type                 RadialGrid  ... OptM3 with GC (2021)
Angular Grid (max. ang.)         AngularGrid ... 2 (Lebedev-110)
Angular grid pruning method      GridPruning ... 4 (adaptive)
Weight generation scheme         WeightScheme... Becke
Basis function cutoff            BFCut       ... 1.0000e-11
Integration weight cutoff        WCut        ... 1.0000e-14
Angular grids for H and He will be reduced by one unit
Partially contracted basis set               ... on
Rotationally invariant grid construction     ... off

Total number of grid points                  ...    27022
Total number of batches                      ...      432
Average number of points per batch           ...       62
Average number of grid points per atom       ...     1422
UseSFitting                                  ... on

GRIDX 3
-------
General Integration Accuracy     IntAcc      ... 4.338
Radial Grid Type                 RadialGrid  ... OptM3 with GC (2021)
Angular Grid (max. ang.)         AngularGrid ... 3 (Lebedev-194)
Angular grid pruning method      GridPruning ... 4 (adaptive)
Weight generation scheme         WeightScheme... Becke
Basis function cutoff            BFCut       ... 1.0000e-11
Integration weight cutoff        WCut        ... 1.0000e-14
Angular grids for H and He will be reduced by one unit
Partially contracted basis set               ... on
Rotationally invariant grid construction     ... off

Total number of grid points                  ...    60049
Total number of batches                      ...      948
Average number of points per batch           ...       63
Average number of grid points per atom       ...     3160
UseSFitting                                  ... on

Time for X-Grid setup             =    1.122 sec

--------------
SCF ITERATIONS
--------------
ITER       Energy         Delta-E        Max-DP      RMS-DP      [F,P]     Damp
               ***  Starting incremental Fock matrix formation  ***
  0   -463.9915321740   0.000000000000 0.14808620  0.00262962  0.2562073 0.7000
  1   -464.1684878211  -0.176955647178 0.11161290  0.00196534  0.1264154 0.7000
                               ***Turning on DIIS***
  2   -464.2418105893  -0.073322768168 0.24504081  0.00404112  0.0578680 0.0000
  3   -464.3602158711  -0.118405281762 0.09759377  0.00119948  0.0651799 0.0000
  4   -464.3832613967  -0.023045525607 0.01997554  0.00033231  0.0186800 0.0000
  5   -464.3844959267  -0.001234530049 0.00903558  0.00014215  0.0103147 0.0000
                      *** Initiating the SOSCF procedure ***
                           *** Shutting down DIIS ***
                      *** Re-Reading the Fockian *** 
                      *** Removing any level shift *** 
ITER      Energy       Delta-E        Grad      Rot      Max-DP    RMS-DP
  6   -464.38466308  -0.0001671489  0.000587  0.000587  0.011365  0.000137
               *** Restarting incremental Fock matrix formation ***
  7   -464.38466712  -0.0000040493  0.000096  0.000312  0.008074  0.000092
  8   -464.38466789  -0.0000007610  0.000201  0.000369  0.002706  0.000023
  9   -464.38466959  -0.0000017012  0.000032  0.000068  0.002462  0.000017
 10   -464.38466958   0.0000000058  0.000059  0.000060  0.000723  0.000006
 11   -464.38466965  -0.0000000645  0.000007  0.000011  0.001770  0.000012
 12   -464.38466965  -0.0000000028  0.000005  0.000005  0.002297  0.000013
                  ***Gradient check signals convergence***
              ***Rediagonalizing the Fockian in SOSCF/NRSCF***

               *****************************************************
               *                     SUCCESS                       *
               *           SCF CONVERGED AFTER  13 CYCLES          *
               *****************************************************

Old exchange energy                            =    -16.847296668 Eh
New exchange energy                            =    -16.847307792 Eh
Exchange energy change after final integration =     -0.000011124 Eh
Total energy after final integration           =   -464.384680778 Eh
Final COS-X integration done in                =    30.491 sec

----------------
TOTAL SCF ENERGY
----------------

Total Energy       :         -464.38468078 Eh          -12636.54959 eV

Components:
Nuclear Repulsion  :          473.58883361 Eh           12887.00733 eV
Electronic Energy  :         -937.97351439 Eh          -25523.55692 eV
One Electron Energy:        -1572.34109644 Eh          -42785.57641 eV
Two Electron Energy:          634.36758205 Eh           17262.01949 eV
Max COSX asymmetry :            0.00000168 Eh               0.00005 eV

Virial components:
Potential Energy   :         -927.46827049 Eh          -25237.69470 eV
Kinetic Energy     :          463.08358972 Eh           12601.14511 eV
Virial Ratio       :            2.00280962


DFT components:
N(Alpha)           :       34.999860610809 electrons
N(Beta)            :       34.999860610809 electrons
N(Total)           :       69.999721221618 electrons
E(XC)              :      -45.428820467260 Eh       
DFET-embed. en.    :        0.000000000000 Eh       

---------------
SCF CONVERGENCE
---------------

  Last Energy change         ...   -5.5524e-09  Tolerance :   1.0000e-08
  Last MAX-Density change    ...    1.9984e-15  Tolerance :   1.0000e-07
  Last RMS-Density change    ...    1.8447e-17  Tolerance :   5.0000e-09
  Last Orbital Gradient      ...    7.4107e-07  Tolerance :   1.0000e-05
  Last Orbital Rotation      ...    1.6439e-06  Tolerance :   1.0000e-05

             **** THE GBW FILE WAS UPDATED (28Oct_TZVPD_CAMB3LYP_D2_wb97.gbw) ****
             **** DENSITY 28Oct_TZVPD_CAMB3LYP_D2_wb97.scfp WAS UPDATED ****
             **** ENERGY FILE WAS UPDATED (28Oct_TZVPD_CAMB3LYP_D2_wb97.en.tmp) ****
             **** THE GBW FILE WAS UPDATED (28Oct_TZVPD_CAMB3LYP_D2_wb97.gbw) ****
             **** DENSITY 28Oct_TZVPD_CAMB3LYP_D2_wb97.scfp WAS UPDATED ****
----------------
ORBITAL ENERGIES
----------------

  NO   OCC          E(Eh)            E(eV) 
   0   2.0000     -24.847121      -676.1245 
   1   2.0000     -19.206236      -522.6282 
   2   2.0000     -14.378767      -391.2661 
   3   2.0000     -10.437517      -284.0193 
   4   2.0000     -10.272822      -279.5377 
   5   2.0000     -10.263394      -279.2812 
   6   2.0000     -10.248660      -278.8802 
   7   2.0000     -10.244978      -278.7800 
   8   2.0000     -10.140906      -275.9481 
   9   2.0000      -1.433863       -39.0174 
  10   2.0000      -1.118616       -30.4391 
  11   2.0000      -0.997677       -27.1482 
  12   2.0000      -0.901836       -24.5402 
  13   2.0000      -0.831778       -22.6338 
  14   2.0000      -0.782506       -21.2931 
  15   2.0000      -0.758793       -20.6478 
  16   2.0000      -0.699763       -19.0415 
  17   2.0000      -0.651115       -17.7177 
  18   2.0000      -0.639796       -17.4097 
  19   2.0000      -0.620825       -16.8935 
  20   2.0000      -0.602718       -16.4008 
  21   2.0000      -0.571093       -15.5402 
  22   2.0000      -0.550489       -14.9796 
  23   2.0000      -0.536701       -14.6044 
  24   2.0000      -0.519028       -14.1235 
  25   2.0000      -0.487156       -13.2562 
  26   2.0000      -0.459661       -12.5080 
  27   2.0000      -0.458929       -12.4881 
  28   2.0000      -0.430215       -11.7067 
  29   2.0000      -0.421952       -11.4819 
  30   2.0000      -0.416998       -11.3471 
  31   2.0000      -0.392007       -10.6670 
  32   2.0000      -0.385129       -10.4799 
  33   2.0000      -0.334887        -9.1127 
  34   2.0000      -0.237594        -6.4653 
  35   0.0000       0.008748         0.2381 
  36   0.0000       0.027015         0.7351 
  37   0.0000       0.041852         1.1388 
  38   0.0000       0.050082         1.3628 
  39   0.0000       0.054584         1.4853 
  40   0.0000       0.076865         2.0916 
  41   0.0000       0.077251         2.1021 
  42   0.0000       0.084559         2.3010 
  43   0.0000       0.092603         2.5199 
  44   0.0000       0.094315         2.5664 
  45   0.0000       0.111111         3.0235 
  46   0.0000       0.114660         3.1201 
  47   0.0000       0.117798         3.2054 
  48   0.0000       0.123307         3.3554 
  49   0.0000       0.135334         3.6826 
  50   0.0000       0.148658         4.0452 
  51   0.0000       0.153418         4.1747 
  52   0.0000       0.157848         4.2953 
  53   0.0000       0.165269         4.4972 
  54   0.0000       0.173646         4.7252 
  55   0.0000       0.185791         5.0556 
  56   0.0000       0.191377         5.2076 
  57   0.0000       0.194112         5.2821 
  58   0.0000       0.203027         5.5247 
  59   0.0000       0.210636         5.7317 
  60   0.0000       0.215612         5.8671 
  61   0.0000       0.223549         6.0831 
  62   0.0000       0.230345         6.2680 
  63   0.0000       0.238634         6.4936 
  64   0.0000       0.244352         6.6492 
  65   0.0000       0.248205         6.7540 
  66   0.0000       0.249091         6.7781 
  67   0.0000       0.259912         7.0726 
  68   0.0000       0.261783         7.1235 
  69   0.0000       0.268278         7.3002 
  70   0.0000       0.270675         7.3654 
  71   0.0000       0.279485         7.6052 
  72   0.0000       0.282914         7.6985 
  73   0.0000       0.290678         7.9098 
  74   0.0000       0.293641         7.9904 
  75   0.0000       0.296415         8.0659 
  76   0.0000       0.303126         8.2485 
  77   0.0000       0.309399         8.4192 
  78   0.0000       0.310059         8.4371 
  79   0.0000       0.318926         8.6784 
  80   0.0000       0.321682         8.7534 
  81   0.0000       0.324182         8.8214 
  82   0.0000       0.333786         9.0828 
  83   0.0000       0.338469         9.2102 
  84   0.0000       0.342525         9.3206 
  85   0.0000       0.349922         9.5219 
  86   0.0000       0.363506         9.8915 
  87   0.0000       0.365991         9.9591 
  88   0.0000       0.367025         9.9873 
  89   0.0000       0.375055        10.2058 
  90   0.0000       0.376626        10.2485 
  91   0.0000       0.384030        10.4500 
  92   0.0000       0.385528        10.4908 
  93   0.0000       0.394315        10.7298 
  94   0.0000       0.395820        10.7708 
  95   0.0000       0.404810        11.0154 
  96   0.0000       0.409932        11.1548 
  97   0.0000       0.421681        11.4745 
  98   0.0000       0.428272        11.6539 
  99   0.0000       0.431718        11.7477 
 100   0.0000       0.433974        11.8090 
 101   0.0000       0.440311        11.9815 
 102   0.0000       0.446998        12.1634 
 103   0.0000       0.450358        12.2549 
 104   0.0000       0.459158        12.4943 
 105   0.0000       0.460308        12.5256 
 106   0.0000       0.464271        12.6334 
 107   0.0000       0.471892        12.8408 
 108   0.0000       0.480502        13.0751 
 109   0.0000       0.486417        13.2361 
 110   0.0000       0.490262        13.3407 
 111   0.0000       0.494364        13.4523 
 112   0.0000       0.498495        13.5648 
 113   0.0000       0.504833        13.7372 
 114   0.0000       0.510215        13.8836 
 115   0.0000       0.517329        14.0772 
 116   0.0000       0.526520        14.3273 
 117   0.0000       0.532005        14.4766 
 118   0.0000       0.535052        14.5595 
 119   0.0000       0.544565        14.8184 
 120   0.0000       0.555653        15.1201 
 121   0.0000       0.558008        15.1842 
 122   0.0000       0.562304        15.3011 
 123   0.0000       0.569662        15.5013 
 124   0.0000       0.577265        15.7082 
 125   0.0000       0.581114        15.8129 
 126   0.0000       0.587228        15.9793 
 127   0.0000       0.591712        16.1013 
 128   0.0000       0.597301        16.2534 
 129   0.0000       0.610876        16.6228 
 130   0.0000       0.617834        16.8121 
 131   0.0000       0.625775        17.0282 
 132   0.0000       0.638781        17.3821 
 133   0.0000       0.646712        17.5979 
 134   0.0000       0.648719        17.6525 
 135   0.0000       0.655284        17.8312 
 136   0.0000       0.667007        18.1502 
 137   0.0000       0.670327        18.2405 
 138   0.0000       0.675582        18.3835 
 139   0.0000       0.687506        18.7080 
 140   0.0000       0.693542        18.8722 
 141   0.0000       0.698779        19.0147 
 142   0.0000       0.704164        19.1613 
 143   0.0000       0.707776        19.2596 
 144   0.0000       0.713440        19.4137 
 145   0.0000       0.722575        19.6623 
 146   0.0000       0.730100        19.8670 
 147   0.0000       0.738508        20.0958 
 148   0.0000       0.742579        20.2066 
 149   0.0000       0.748268        20.3614 
 150   0.0000       0.758485        20.6394 
 151   0.0000       0.766361        20.8537 
 152   0.0000       0.776985        21.1428 
 153   0.0000       0.780254        21.2318 
 154   0.0000       0.788585        21.4585 
 155   0.0000       0.794572        21.6214 
 156   0.0000       0.807982        21.9863 
 157   0.0000       0.814470        22.1629 
 158   0.0000       0.819181        22.2910 
 159   0.0000       0.821786        22.3619 
 160   0.0000       0.826895        22.5010 
 161   0.0000       0.836674        22.7671 
 162   0.0000       0.841606        22.9013 
 163   0.0000       0.859301        23.3828 
 164   0.0000       0.861618        23.4458 
 165   0.0000       0.870532        23.6884 
 166   0.0000       0.883297        24.0357 
 167   0.0000       0.891535        24.2599 
 168   0.0000       0.902303        24.5529 
 169   0.0000       0.905051        24.6277 
 170   0.0000       0.914065        24.8730 
 171   0.0000       0.922965        25.1152 
 172   0.0000       0.925995        25.1976 
 173   0.0000       0.941539        25.6206 
 174   0.0000       0.948487        25.8096 
 175   0.0000       0.967621        26.3303 
 176   0.0000       0.988927        26.9101 
 177   0.0000       0.992520        27.0078 
 178   0.0000       1.003853        27.3162 
 179   0.0000       1.014296        27.6004 
 180   0.0000       1.020572        27.7712 
 181   0.0000       1.041173        28.3318 
 182   0.0000       1.046113        28.4662 
 183   0.0000       1.054093        28.6833 
 184   0.0000       1.083864        29.4934 
 185   0.0000       1.095583        29.8123 
 186   0.0000       1.113491        30.2996 
 187   0.0000       1.117807        30.4171 
 188   0.0000       1.124427        30.5972 
 189   0.0000       1.127996        30.6943 
 190   0.0000       1.160638        31.5826 
 191   0.0000       1.185003        32.2456 
 192   0.0000       1.192498        32.4495 
 193   0.0000       1.209799        32.9203 
 194   0.0000       1.246418        33.9168 
 195   0.0000       1.253181        34.1008 
 196   0.0000       1.263207        34.3736 
 197   0.0000       1.286842        35.0167 
 198   0.0000       1.299822        35.3700 
 199   0.0000       1.311693        35.6930 
 200   0.0000       1.332901        36.2701 
 201   0.0000       1.351526        36.7769 
 202   0.0000       1.369851        37.2755 
 203   0.0000       1.383002        37.6334 
 204   0.0000       1.391669        37.8692 
 205   0.0000       1.404302        38.2130 
 206   0.0000       1.409390        38.3515 
 207   0.0000       1.414802        38.4987 
 208   0.0000       1.424060        38.7506 
 209   0.0000       1.445939        39.3460 
 210   0.0000       1.474019        40.1101 
 211   0.0000       1.477425        40.2028 
 212   0.0000       1.487352        40.4729 
 213   0.0000       1.506134        40.9840 
 214   0.0000       1.523410        41.4541 
 215   0.0000       1.535924        41.7946 
 216   0.0000       1.569908        42.7194 
 217   0.0000       1.581226        43.0273 
 218   0.0000       1.599154        43.5152 
 219   0.0000       1.613720        43.9116 
 220   0.0000       1.649606        44.8881 
 221   0.0000       1.684200        45.8294 
 222   0.0000       1.724116        46.9156 
 223   0.0000       1.758985        47.8644 
 224   0.0000       1.815311        49.3971 
 225   0.0000       1.838995        50.0416 
 226   0.0000       1.841109        50.0991 
 227   0.0000       1.862599        50.6839 
 228   0.0000       1.869893        50.8824 
 229   0.0000       1.881548        51.1995 
 230   0.0000       1.890901        51.4540 
 231   0.0000       1.906324        51.8737 
 232   0.0000       1.924583        52.3706 
 233   0.0000       1.931047        52.5464 
 234   0.0000       1.939587        52.7789 
 235   0.0000       1.960178        53.3392 
 236   0.0000       1.979960        53.8775 
 237   0.0000       1.984678        54.0058 
 238   0.0000       2.003016        54.5048 
 239   0.0000       2.025116        55.1062 
 240   0.0000       2.036937        55.4279 
 241   0.0000       2.045169        55.6519 
 242   0.0000       2.068964        56.2994 
 243   0.0000       2.090031        56.8726 
 244   0.0000       2.091631        56.9162 
 245   0.0000       2.100965        57.1702 
 246   0.0000       2.132171        58.0193 
 247   0.0000       2.145907        58.3931 
 248   0.0000       2.166407        58.9509 
 249   0.0000       2.203498        59.9602 
 250   0.0000       2.205262        60.0082 
 251   0.0000       2.229119        60.6574 
 252   0.0000       2.236893        60.8689 
 253   0.0000       2.264509        61.6204 
 254   0.0000       2.276084        61.9354 
 255   0.0000       2.286724        62.2249 
 256   0.0000       2.306708        62.7687 
 257   0.0000       2.326007        63.2939 
 258   0.0000       2.345204        63.8162 
 259   0.0000       2.348909        63.9171 
 260   0.0000       2.364273        64.3351 
 261   0.0000       2.389306        65.0163 
 262   0.0000       2.409134        65.5559 
 263   0.0000       2.433134        66.2089 
 264   0.0000       2.454672        66.7950 
 265   0.0000       2.465783        67.0974 
 266   0.0000       2.480192        67.4894 
 267   0.0000       2.516755        68.4844 
 268   0.0000       2.518933        68.5436 
 269   0.0000       2.522708        68.6464 
 270   0.0000       2.553065        69.4724 
 271   0.0000       2.598980        70.7218 
 272   0.0000       2.605301        70.8938 
 273   0.0000       2.627462        71.4969 
 274   0.0000       2.632464        71.6330 
 275   0.0000       2.677236        72.8513 
 276   0.0000       2.697261        73.3962 
 277   0.0000       2.705449        73.6190 
 278   0.0000       2.710248        73.7496 
 279   0.0000       2.749427        74.8157 
 280   0.0000       2.752912        74.9105 
 281   0.0000       2.772920        75.4550 
 282   0.0000       2.778638        75.6106 
 283   0.0000       2.787498        75.8517 
 284   0.0000       2.803680        76.2920 
 285   0.0000       2.828824        76.9762 
 286   0.0000       2.832855        77.0859 
 287   0.0000       2.845175        77.4212 
 288   0.0000       2.877805        78.3090 
 289   0.0000       2.886284        78.5398 
 290   0.0000       2.905868        79.0727 
 291   0.0000       2.931676        79.7750 
 292   0.0000       2.939869        79.9979 
 293   0.0000       2.953472        80.3681 
 294   0.0000       2.974047        80.9279 
 295   0.0000       2.999443        81.6190 
 296   0.0000       3.026291        82.3496 
 297   0.0000       3.043623        82.8212 
 298   0.0000       3.062296        83.3293 
 299   0.0000       3.081863        83.8618 
 300   0.0000       3.102855        84.4330 
 301   0.0000       3.118547        84.8600 
 302   0.0000       3.140584        85.4596 
 303   0.0000       3.153974        85.8240 
 304   0.0000       3.170407        86.2712 
 305   0.0000       3.176422        86.4348 
 306   0.0000       3.203953        87.1840 
 307   0.0000       3.261914        88.7612 
 308   0.0000       3.265713        88.8646 
 309   0.0000       3.278074        89.2009 
 310   0.0000       3.292841        89.6028 
 311   0.0000       3.306635        89.9781 
 312   0.0000       3.316965        90.2592 
 313   0.0000       3.337357        90.8141 
 314   0.0000       3.354782        91.2883 
 315   0.0000       3.364101        91.5418 
 316   0.0000       3.383669        92.0743 
 317   0.0000       3.416517        92.9682 
 318   0.0000       3.442642        93.6790 
 319   0.0000       3.443451        93.7011 
 320   0.0000       3.458738        94.1170 
 321   0.0000       3.472911        94.5027 
 322   0.0000       3.484115        94.8076 
 323   0.0000       3.487575        94.9017 
 324   0.0000       3.508181        95.4625 
 325   0.0000       3.513645        95.6111 
 326   0.0000       3.544210        96.4429 
 327   0.0000       3.564800        97.0031 
 328   0.0000       3.575339        97.2899 
 329   0.0000       3.594456        97.8101 
 330   0.0000       3.599590        97.9498 
 331   0.0000       3.617491        98.4369 
 332   0.0000       3.624344        98.6234 
 333   0.0000       3.632649        98.8494 
 334   0.0000       3.645632        99.2027 
 335   0.0000       3.652278        99.3835 
 336   0.0000       3.667044        99.7853 
 337   0.0000       3.695527       100.5604 
 338   0.0000       3.711443       100.9935 
 339   0.0000       3.737069       101.6908 
 340   0.0000       3.747949       101.9869 
 341   0.0000       3.764665       102.4417 
 342   0.0000       3.789720       103.1235 
 343   0.0000       3.813807       103.7790 
 344   0.0000       3.849989       104.7635 
 345   0.0000       3.868919       105.2786 
 346   0.0000       3.894245       105.9678 
 347   0.0000       3.919158       106.6457 
 348   0.0000       3.946864       107.3996 
 349   0.0000       4.000975       108.8721 
 350   0.0000       4.018855       109.3586 
 351   0.0000       4.030815       109.6840 
 352   0.0000       4.081993       111.0767 
 353   0.0000       4.093755       111.3967 
 354   0.0000       4.123185       112.1976 
 355   0.0000       4.146136       112.8221 
 356   0.0000       4.163890       113.3052 
 357   0.0000       4.184325       113.8613 
 358   0.0000       4.226139       114.9991 
 359   0.0000       4.245732       115.5323 
 360   0.0000       4.248762       115.6147 
 361   0.0000       4.292740       116.8114 
 362   0.0000       4.329079       117.8002 
 363   0.0000       4.363914       118.7481 
 364   0.0000       4.374382       119.0330 
 365   0.0000       4.415277       120.1458 
 366   0.0000       4.467054       121.5547 
 367   0.0000       4.522966       123.0762 
 368   0.0000       4.538337       123.4944 
 369   0.0000       4.572294       124.4184 
 370   0.0000       4.605976       125.3350 
 371   0.0000       4.622215       125.7769 
 372   0.0000       4.707099       128.0867 
 373   0.0000       4.713324       128.2561 
 374   0.0000       4.760009       129.5264 
 375   0.0000       4.781981       130.1243 
 376   0.0000       4.844847       131.8350 
 377   0.0000       4.849130       131.9515 
 378   0.0000       4.885715       132.9471 
 379   0.0000       4.919647       133.8704 
 380   0.0000       4.970236       135.2470 
 381   0.0000       4.982661       135.5851 
 382   0.0000       5.029404       136.8570 
 383   0.0000       5.066066       137.8547 
 384   0.0000       5.124019       139.4316 
 385   0.0000       5.181676       141.0006 
 386   0.0000       5.218494       142.0024 
 387   0.0000       5.290972       143.9747 
 388   0.0000       5.300982       144.2471 
 389   0.0000       5.360610       145.8696 
 390   0.0000       5.387406       146.5988 
 391   0.0000       5.405595       147.0937 
 392   0.0000       5.524795       150.3373 
 393   0.0000       5.556009       151.1867 
 394   0.0000       5.619305       152.9091 
 395   0.0000       5.646687       153.6542 
 396   0.0000       5.702623       155.1763 
 397   0.0000       5.775571       157.1613 
 398   0.0000       5.953107       161.9923 
 399   0.0000       6.041641       164.4014 
 400   0.0000       6.217792       169.1947 
 401   0.0000       6.265353       170.4889 
 402   0.0000       6.373440       173.4301 
 403   0.0000       6.650557       180.9708 
 404   0.0000       6.826493       185.7583 
 405   0.0000       6.839863       186.1221 
 406   0.0000       6.875285       187.0860 
 407   0.0000       6.951262       189.1535 
 408   0.0000       7.073221       192.4721 
 409   0.0000       7.171844       195.1558 
 410   0.0000       7.261294       197.5899 
 411   0.0000       7.337094       199.6525 
 412   0.0000       7.502064       204.1415 
 413   0.0000       7.684138       209.0960 
 414   0.0000       7.949618       216.3201 
 415   0.0000       8.560803       232.9513 
 416   0.0000       8.619742       234.5551 
 417   0.0000       8.925818       242.8839 
 418   0.0000       9.101247       247.6575 
 419   0.0000       9.275121       252.3889 
 420   0.0000      22.758593       619.2928 
 421   0.0000      22.766601       619.5107 
 422   0.0000      22.873985       622.4328 
 423   0.0000      22.999516       625.8486 
 424   0.0000      23.523991       640.1203 
 425   0.0000      23.583340       641.7353 
 426   0.0000      32.513707       884.7429 
 427   0.0000      44.374503      1207.4916 
 428   0.0000      57.649826      1568.7315 

                    ********************************
                    * MULLIKEN POPULATION ANALYSIS *
                    ********************************

-----------------------
MULLIKEN ATOMIC CHARGES
-----------------------
   0 C :   -0.720396
   1 C :   -0.540063
   2 C :   -0.468977
   3 H :    0.306199
   4 H :    0.382863
   5 C :    0.471496
   6 C :    0.704104
   7 N :   -0.375909
   8 C :   -1.293772
   9 H :    0.237273
  10 H :    0.551423
  11 H :    0.162613
  12 H :    0.145164
  13 H :    0.276377
  14 H :    0.274254
  15 F :   -0.214660
  16 O :   -0.527732
  17 H :    0.293128
  18 H :    0.336613
Sum of atomic charges:    0.0000000

--------------------------------
MULLIKEN REDUCED ORBITAL CHARGES
--------------------------------
  0 C s       :     3.372484  s :     3.372484
      pz      :     1.110927  p :     3.247759
      px      :     1.102288
      py      :     1.034544
      dz2     :     0.034152  d :     0.094576
      dxz     :     0.027465
      dyz     :     0.018440
      dx2y2   :     0.001071
      dxy     :     0.013447
      f0      :     0.000722  f :     0.005577
      f+1     :     0.001321
      f-1     :     0.000494
      f+2     :     0.000719
      f-2     :     0.000447
      f+3     :     0.000692
      f-3     :     0.001182
  1 C s       :     3.297733  s :     3.297733
      pz      :     1.270723  p :     3.273998
      px      :     1.093887
      py      :     0.909388
      dz2     :     0.031941  d :    -0.037312
      dxz     :     0.006633
      dyz     :    -0.067029
      dx2y2   :    -0.013134
      dxy     :     0.004277
      f0      :     0.000600  f :     0.005644
      f+1     :     0.001069
      f-1     :     0.000238
      f+2     :     0.000437
      f-2     :     0.000652
      f+3     :     0.001378
      f-3     :     0.001269
  2 C s       :     3.247818  s :     3.247818
      pz      :     1.035287  p :     3.149469
      px      :     1.026646
      py      :     1.087536
      dz2     :     0.028282  d :     0.066319
      dxz     :     0.011280
      dyz     :     0.013966
      dx2y2   :     0.004746
      dxy     :     0.008044
      f0      :     0.000673  f :     0.005371
      f+1     :     0.001461
      f-1     :     0.000236
      f+2     :     0.000272
      f-2     :     0.000954
      f+3     :     0.001107
      f-3     :     0.000667
  3 H s       :     0.648169  s :     0.648169
      pz      :    -0.002932  p :     0.045632
      px      :     0.015245
      py      :     0.033319
  4 H s       :     0.570775  s :     0.570775
      pz      :     0.042653  p :     0.046362
      px      :     0.016887
      py      :    -0.013179
  5 C s       :     3.250232  s :     3.250232
      pz      :     0.573154  p :     1.942287
      px      :     0.700809
      py      :     0.668324
      dz2     :     0.043083  d :     0.306480
      dxz     :     0.111642
      dyz     :     0.059005
      dx2y2   :     0.068363
      dxy     :     0.024387
      f0      :     0.007642  f :     0.029505
      f+1     :     0.004865
      f-1     :     0.004169
      f+2     :     0.002797
      f-2     :     0.005129
      f+3     :     0.002645
      f-3     :     0.002258
  6 C s       :     3.422957  s :     3.422957
      pz      :     0.596956  p :     1.874364
      px      :     0.517654
      py      :     0.759755
      dz2     :     0.030321  d :    -0.015858
      dxz     :    -0.080469
      dyz     :     0.018480
      dx2y2   :     0.041583
      dxy     :    -0.025773
      f0      :     0.003206  f :     0.014432
      f+1     :     0.001901
      f-1     :     0.001600
      f+2     :     0.003103
      f-2     :     0.001914
      f+3     :     0.001227
      f-3     :     0.001482
  7 N s       :     3.453082  s :     3.453082
      pz      :     1.144373  p :     3.871909
      px      :     1.117131
      py      :     1.610405
      dz2     :     0.014239  d :     0.047538
      dxz     :     0.002278
      dyz     :     0.008131
      dx2y2   :     0.011568
      dxy     :     0.011322
      f0      :     0.000453  f :     0.003380
      f+1     :     0.000646
      f-1     :     0.000538
      f+2     :     0.000589
      f-2     :     0.000399
      f+3     :     0.000449
      f-3     :     0.000305
  8 C s       :     3.733120  s :     3.733120
      pz      :     1.410767  p :     3.498099
      px      :     0.947845
      py      :     1.139486
      dz2     :     0.030883  d :     0.057598
      dxz     :     0.000881
      dyz     :     0.021277
      dx2y2   :    -0.005865
      dxy     :     0.010422
      f0      :     0.000297  f :     0.004955
      f+1     :     0.000629
      f-1     :     0.000569
      f+2     :     0.001109
      f-2     :     0.000538
      f+3     :     0.000750
      f-3     :     0.001062
  9 H s       :     0.673736  s :     0.673736
      pz      :     0.033720  p :     0.088991
      px      :     0.020384
      py      :     0.034887
 10 H s       :     0.477288  s :     0.477288
      pz      :    -0.029126  p :    -0.028711
      px      :    -0.031899
      py      :     0.032315
 11 H s       :     0.781163  s :     0.781163
      pz      :     0.000340  p :     0.056224
      px      :     0.019290
      py      :     0.036594
 12 H s       :     0.798576  s :     0.798576
      pz      :     0.022697  p :     0.056260
      px      :    -0.002573
      py      :     0.036136
 13 H s       :     0.665102  s :     0.665102
      pz      :     0.016398  p :     0.058521
      px      :     0.023235
      py      :     0.018888
 14 H s       :     0.655544  s :     0.655544
      pz      :     0.030542  p :     0.070202
      px      :     0.020207
      py      :     0.019453
 15 F s       :     4.017105  s :     4.017105
      pz      :     1.540791  p :     5.177960
      px      :     1.847388
      py      :     1.789781
      dz2     :     0.006505  d :     0.018616
      dxz     :     0.005194
      dyz     :     0.004838
      dx2y2   :     0.001038
      dxy     :     0.001041
      f0      :     0.000258  f :     0.000979
      f+1     :     0.000201
      f-1     :     0.000270
      f+2     :     0.000115
      f-2     :     0.000116
      f+3     :     0.000010
      f-3     :     0.000010
 16 O s       :     3.993811  s :     3.993811
      pz      :     1.764172  p :     4.514055
      px      :     1.380919
      py      :     1.368965
      dz2     :     0.000800  d :     0.018240
      dxz     :    -0.001005
      dyz     :    -0.003077
      dx2y2   :     0.013623
      dxy     :     0.007899
      f0      :     0.000192  f :     0.001626
      f+1     :     0.000164
      f-1     :     0.000208
      f+2     :     0.000095
      f-2     :     0.000295
      f+3     :     0.000357
      f-3     :     0.000317
 17 H s       :     0.639740  s :     0.639740
      pz      :     0.029621  p :     0.067131
      px      :     0.015107
      py      :     0.022403
 18 H s       :     0.621294  s :     0.621294
      pz      :     0.008233  p :     0.042093
      px      :     0.024235
      py      :     0.009625


                     *******************************
                     * LOEWDIN POPULATION ANALYSIS *
                     *******************************

----------------------
LOEWDIN ATOMIC CHARGES
----------------------
   0 C :   -0.141359
   1 C :   -0.175932
   2 C :   -0.092805
   3 H :    0.114045
   4 H :    0.123774
   5 C :   -0.448568
   6 C :   -0.470786
   7 N :    0.093113
   8 C :    0.028721
   9 H :    0.037624
  10 H :   -0.040189
  11 H :    0.097398
  12 H :    0.104292
  13 H :    0.111828
  14 H :    0.120304
  15 F :    0.262724
  16 O :    0.045433
  17 H :    0.117005
  18 H :    0.113376

-------------------------------
LOEWDIN REDUCED ORBITAL CHARGES
-------------------------------
  0 C s       :     2.654817  s :     2.654817
      pz      :     0.913718  p :     2.722690
      px      :     0.909732
      py      :     0.899240
      dz2     :     0.146996  d :     0.724043
      dxz     :     0.119489
      dyz     :     0.144918
      dx2y2   :     0.122449
      dxy     :     0.190191
      f0      :     0.004575  f :     0.039809
      f+1     :     0.006911
      f-1     :     0.005306
      f+2     :     0.006664
      f-2     :     0.004401
      f+3     :     0.004540
      f-3     :     0.007411
  1 C s       :     2.671473  s :     2.671473
      pz      :     0.927159  p :     2.742935
      px      :     0.906107
      py      :     0.909669
      dz2     :     0.081149  d :     0.722514
      dxz     :     0.165185
      dyz     :     0.114513
      dx2y2   :     0.183568
      dxy     :     0.178099
      f0      :     0.003882  f :     0.039011
      f+1     :     0.005253
      f-1     :     0.003733
      f+2     :     0.005168
      f-2     :     0.004747
      f+3     :     0.008543
      f-3     :     0.007686
  2 C s       :     2.668779  s :     2.668779
      pz      :     0.895597  p :     2.728841
      px      :     0.912454
      py      :     0.920790
      dz2     :     0.117911  d :     0.658429
      dxz     :     0.180882
      dyz     :     0.075623
      dx2y2   :     0.150740
      dxy     :     0.133273
      f0      :     0.004308  f :     0.036755
      f+1     :     0.007009
      f-1     :     0.004006
      f+2     :     0.003664
      f-2     :     0.006012
      f+3     :     0.007161
      f-3     :     0.004596
  3 H s       :     0.682417  s :     0.682417
      pz      :     0.054727  p :     0.203538
      px      :     0.058085
      py      :     0.090726
  4 H s       :     0.657777  s :     0.657777
      pz      :     0.087065  p :     0.218449
      px      :     0.066761
      py      :     0.064623
  5 C s       :     2.636860  s :     2.636860
      pz      :     0.802554  p :     2.292592
      px      :     0.778819
      py      :     0.711219
      dz2     :     0.310547  d :     1.335064
      dxz     :     0.317730
      dyz     :     0.296941
      dx2y2   :     0.204893
      dxy     :     0.204954
      f0      :     0.048001  f :     0.184051
      f+1     :     0.030724
      f-1     :     0.029229
      f+2     :     0.016165
      f-2     :     0.031970
      f+3     :     0.014059
      f-3     :     0.013903
  6 C s       :     2.604966  s :     2.604966
      pz      :     0.835953  p :     2.581966
      px      :     0.995657
      py      :     0.750356
      dz2     :     0.250189  d :     1.190321
      dxz     :     0.338332
      dyz     :     0.163709
      dx2y2   :     0.210373
      dxy     :     0.227718
      f0      :     0.021992  f :     0.093532
      f+1     :     0.013602
      f-1     :     0.010646
      f+2     :     0.017088
      f-2     :     0.011791
      f+3     :     0.008623
      f-3     :     0.009790
  7 N s       :     2.898489  s :     2.898489
      pz      :     1.156846  p :     3.594656
      px      :     1.084258
      py      :     1.353552
      dz2     :     0.118089  d :     0.401895
      dxz     :     0.104232
      dyz     :     0.064153
      dx2y2   :     0.063524
      dxy     :     0.051896
      f0      :     0.001945  f :     0.011847
      f+1     :     0.002044
      f-1     :     0.002107
      f+2     :     0.002197
      f-2     :     0.001569
      f+3     :     0.001270
      f-3     :     0.000715
  8 C s       :     2.697847  s :     2.697847
      pz      :     0.930140  p :     2.794524
      px      :     0.991305
      py      :     0.873079
      dz2     :     0.063862  d :     0.444946
      dxz     :     0.161044
      dyz     :     0.047308
      dx2y2   :     0.091414
      dxy     :     0.081318
      f0      :     0.003702  f :     0.033962
      f+1     :     0.005896
      f-1     :     0.003239
      f+2     :     0.005388
      f-2     :     0.002536
      f+3     :     0.006694
      f-3     :     0.006506
  9 H s       :     0.725452  s :     0.725452
      pz      :     0.090926  p :     0.236924
      px      :     0.070149
      py      :     0.075850
 10 H s       :     0.629989  s :     0.629989
      pz      :     0.200678  p :     0.410200
      px      :     0.078114
      py      :     0.131408
 11 H s       :     0.629331  s :     0.629331
      pz      :     0.067100  p :     0.273271
      px      :     0.115859
      py      :     0.090312
 12 H s       :     0.629942  s :     0.629942
      pz      :     0.097869  p :     0.265766
      px      :     0.081748
      py      :     0.086149
 13 H s       :     0.682103  s :     0.682103
      pz      :     0.084984  p :     0.206070
      px      :     0.067452
      py      :     0.053633
 14 H s       :     0.681381  s :     0.681381
      pz      :     0.086887  p :     0.198315
      px      :     0.060255
      py      :     0.051173
 15 F s       :     3.484896  s :     3.484896
      pz      :     1.631019  p :     5.030242
      px      :     1.714718
      py      :     1.684505
      dz2     :     0.081622  d :     0.219671
      dxz     :     0.053842
      dyz     :     0.052018
      dx2y2   :     0.013621
      dxy     :     0.018568
      f0      :     0.000751  f :     0.002466
      f+1     :     0.000455
      f-1     :     0.000591
      f+2     :     0.000260
      f-2     :     0.000343
      f+3     :     0.000035
      f-3     :     0.000031
 16 O s       :     3.345990  s :     3.345990
      pz      :     1.591540  p :     4.316512
      px      :     1.389038
      py      :     1.335934
      dz2     :     0.057587  d :     0.286739
      dxz     :     0.040190
      dyz     :     0.072600
      dx2y2   :     0.041887
      dxy     :     0.074476
      f0      :     0.000657  f :     0.005325
      f+1     :     0.000548
      f-1     :     0.000826
      f+2     :     0.000184
      f-2     :     0.001129
      f+3     :     0.000938
      f-3     :     0.001043
 17 H s       :     0.658890  s :     0.658890
      pz      :     0.086283  p :     0.224104
      px      :     0.079029
      py      :     0.058792
 18 H s       :     0.682011  s :     0.682011
      pz      :     0.058302  p :     0.204613
      px      :     0.081155
      py      :     0.065156


                      *****************************
                      * MAYER POPULATION ANALYSIS *
                      *****************************

  NA   - Mulliken gross atomic population
  ZA   - Total nuclear charge
  QA   - Mulliken gross atomic charge
  VA   - Mayer's total valence
  BVA  - Mayer's bonded valence
  FA   - Mayer's free valence

  ATOM       NA         ZA         QA         VA         BVA        FA
  0 C      6.7204     6.0000    -0.7204     3.3315     3.3315     0.0000
  1 C      6.5401     6.0000    -0.5401     3.3690     3.3690     0.0000
  2 C      6.4690     6.0000    -0.4690     3.6159     3.6159     0.0000
  3 H      0.6938     1.0000     0.3062     0.9966     0.9966     0.0000
  4 H      0.6171     1.0000     0.3829     0.8545     0.8545    -0.0000
  5 C      5.5285     6.0000     0.4715     3.8257     3.8257     0.0000
  6 C      5.2959     6.0000     0.7041     2.2427     2.2427    -0.0000
  7 N      7.3759     7.0000    -0.3759     3.1170     3.1170     0.0000
  8 C      7.2938     6.0000    -1.2938     3.4338     3.4338    -0.0000
  9 H      0.7627     1.0000     0.2373     1.0866     1.0866    -0.0000
 10 H      0.4486     1.0000     0.5514     0.4665     0.4665    -0.0000
 11 H      0.8374     1.0000     0.1626     1.0072     1.0072    -0.0000
 12 H      0.8548     1.0000     0.1452     1.0219     1.0219     0.0000
 13 H      0.7236     1.0000     0.2764     0.9899     0.9899    -0.0000
 14 H      0.7257     1.0000     0.2743     1.0421     1.0421     0.0000
 15 F      9.2147     9.0000    -0.2147     1.0844     1.0844    -0.0000
 16 O      8.5277     8.0000    -0.5277     1.6101     1.6101     0.0000
 17 H      0.7069     1.0000     0.2931     1.0196     1.0196    -0.0000
 18 H      0.6634     1.0000     0.3366     0.9502     0.9502     0.0000

  Mayer bond orders larger than 0.100000
B(  0-C ,  1-C ) :   0.7341 B(  0-C ,  2-C ) :  -0.1161 B(  0-C ,  6-C ) :   0.5908 
B(  0-C ,  7-N ) :   0.1085 B(  0-C , 17-H ) :   0.9556 B(  0-C , 18-H ) :   1.0084 
B(  1-C ,  2-C ) :   0.7537 B(  1-C ,  5-C ) :   0.1178 B(  1-C , 13-H ) :   0.9491 
B(  1-C , 14-H ) :   0.9576 B(  2-C ,  3-H ) :   0.9681 B(  2-C ,  4-H ) :   0.9375 
B(  2-C ,  5-C ) :   0.8561 B(  2-C ,  8-C ) :   0.1338 B(  5-C , 15-F ) :   1.0372 
B(  5-C , 16-O ) :   1.7329 B(  6-C ,  7-N ) :   0.8256 B(  6-C ,  8-C ) :   1.0443 
B(  6-C ,  9-H ) :  -0.1636 B(  6-C , 18-H ) :  -0.1043 B(  7-N , 11-H ) :   1.0423 
B(  7-N , 12-H ) :   1.0477 B(  8-C ,  9-H ) :   1.2079 B(  8-C , 10-H ) :   0.9115 
B( 10-H , 16-O ) :  -0.3559 

-------
TIMINGS
-------

Total SCF time: 0 days 0 hours 3 min 12 sec 

Total time                  ....     192.814 sec
Sum of individual times     ....     192.201 sec  ( 99.7%)

Fock matrix formation       ....     188.107 sec  ( 97.6%)
  Split-RI-J                ....       7.316 sec  (  3.9% of F)
  Chain of spheres X        ....     164.261 sec  ( 87.3% of F)
  XC integration            ....      16.232 sec  (  8.6% of F)
    Basis function eval.    ....       3.659 sec  ( 22.5% of XC)
    Density eval.           ....       4.934 sec  ( 30.4% of XC)
    XC-Functional eval.     ....       0.941 sec  (  5.8% of XC)
    XC-Potential eval.      ....       6.179 sec  ( 38.1% of XC)
Diagonalization             ....       0.638 sec  (  0.3%)
Density matrix formation    ....       0.029 sec  (  0.0%)
Population analysis         ....       0.050 sec  (  0.0%)
Initial guess               ....       0.762 sec  (  0.4%)
Orbital Transformation      ....       0.000 sec  (  0.0%)
Orbital Orthonormalization  ....       0.000 sec  (  0.0%)
DIIS solution               ....       0.229 sec  (  0.1%)
SOSCF solution              ....       0.311 sec  (  0.2%)
Grid generation             ....       2.076 sec  (  1.1%)

Maximum memory used throughout the entire SCF-calculation: 98.3 MB

-------------------------   --------------------
FINAL SINGLE POINT ENERGY      -464.384680778479
-------------------------   --------------------


                            ***************************************
                            *     ORCA property calculations      *
                            ***************************************

                                    ---------------------
                                    Active property flags
                                    ---------------------
   (+) Dipole Moment


------------------------------------------------------------------------------
                       ORCA ELECTRIC PROPERTIES CALCULATION
------------------------------------------------------------------------------

Dipole Moment Calculation                       ... on
Quadrupole Moment Calculation                   ... off
Polarizability Calculation                      ... off
GBWName                                         ... 28Oct_TZVPD_CAMB3LYP_D2_wb97.gbw
Electron density file                           ... 28Oct_TZVPD_CAMB3LYP_D2_wb97.scfp
The origin for moment calculation is the CENTER OF MASS  = ( 8.338396,  4.512460 -6.510175)

-------------
DIPOLE MOMENT
-------------
                                X             Y             Z
Electronic contribution:      4.29649      -5.16749       9.57144
Nuclear contribution   :     -5.64491       4.57111      -9.93176
                        -----------------------------------------
Total Dipole Moment    :     -1.34842      -0.59638      -0.36033
                        -----------------------------------------
Magnitude (a.u.)       :      1.51781
Magnitude (Debye)      :      3.85796



--------------------
Rotational spectrum 
--------------------
 
Rotational constants in cm-1:     0.109825     0.034347     0.029470 
Rotational constants in MHz :  3292.465653  1029.684117   883.494260 

 Dipole components along the rotational axes: 
x,y,z [a.u.] :    -0.153876     1.460691     0.382678 
x,y,z [Debye]:    -0.391123     3.712782     0.972690 

 

Timings for individual modules:

Sum of individual times         ...      193.959 sec (=   3.233 min)
GTO integral calculation        ...        0.784 sec (=   0.013 min)   0.4 %
SCF iterations                  ...      193.174 sec (=   3.220 min)  99.6 %
                             ****ORCA TERMINATED NORMALLY****
TOTAL RUN TIME: 0 days 0 hours 3 minutes 14 seconds 533 msec
