
                                        *****************
                                        * O   R   C   A *
                                        *****************

                                            #,                                       
                                            ###                                      
                                            ####                                     
                                            #####                                    
                                            ######                                   
                                           ########,                                 
                                     ,,################,,,,,                         
                               ,,#################################,,                 
                          ,,##########################################,,             
                       ,#########################################, ''#####,          
                    ,#############################################,,   '####,        
                  ,##################################################,,,,####,       
                ,###########''''           ''''###############################       
              ,#####''   ,,,,##########,,,,          '''####'''          '####       
            ,##' ,,,,###########################,,,                        '##       
           ' ,,###''''                  '''############,,,                           
         ,,##''                                '''############,,,,        ,,,,,,###''
      ,#''                                            '''#######################'''  
     '                                                          ''''####''''         
             ,#######,   #######,   ,#######,      ##                                
            ,#'     '#,  ##    ##  ,#'     '#,    #''#        ######   ,####,        
            ##       ##  ##   ,#'  ##            #'  '#       #        #'  '#        
            ##       ##  #######   ##           ,######,      #####,   #    #        
            '#,     ,#'  ##    ##  '#,     ,#' ,#      #,         ##   #,  ,#        
             '#######'   ##     ##  '#######'  #'      '#     #####' # '####'        



                  #######################################################
                  #                        -***-                        #
                  #          Department of theory and spectroscopy      #
                  #    Directorship and core code : Frank Neese         #
                  #        Max Planck Institute fuer Kohlenforschung    #
                  #                Kaiser Wilhelm Platz 1               #
                  #                 D-45470 Muelheim/Ruhr               #
                  #                      Germany                        #
                  #                                                     #
                  #                  All rights reserved                #
                  #                        -***-                        #
                  #######################################################


                         Program Version 5.0.0 -  RELEASE  -
                                (SVN: $Rev: 19529$)
                ($Date: 2021-06-28 11:36:33 +0200 (Mo, 28 Jun 2021) $)


 With contributions from (in alphabetic order):
   Daniel Aravena         : Magnetic Suceptibility
   Michael Atanasov       : Ab Initio Ligand Field Theory (pilot matlab implementation)
   Alexander A. Auer      : GIAO ZORA, VPT2 properties, NMR spectrum
   Ute Becker             : Parallelization
   Giovanni Bistoni       : ED, misc. LED, open-shell LED, HFLD
   Martin Brehm           : Molecular dynamics
   Dmytro Bykov           : SCF Hessian
   Vijay G. Chilkuri      : MRCI spin determinant printing, contributions to CSF-ICE
   Dipayan Datta          : RHF DLPNO-CCSD density
   Achintya Kumar Dutta   : EOM-CC, STEOM-CC
   Dmitry Ganyushin       : Spin-Orbit,Spin-Spin,Magnetic field MRCI
   Miquel Garcia          : C-PCM Hessian, Gaussian charge scheme
   Yang Guo               : DLPNO-NEVPT2, F12-NEVPT2, CIM, IAO-localization
   Andreas Hansen         : Spin unrestricted coupled pair/coupled cluster methods
   Benjamin Helmich-Paris : MC-RPA, TRAH-SCF, COSX integrals
   Lee Huntington         : MR-EOM, pCC
   Robert Izsak           : Overlap fitted RIJCOSX, COSX-SCS-MP3, EOM
   Marcus Kettner         : VPT2
   Christian Kollmar      : KDIIS, OOCD, Brueckner-CCSD(T), CCSD density, CASPT2, CASPT2-K
   Simone Kossmann        : Meta GGA functionals, TD-DFT gradient, OOMP2, MP2 Hessian
   Martin Krupicka        : Initial AUTO-CI
   Lucas Lang             : DCDCAS
   Marvin Lechner         : AUTO-CI (C++ implementation), FIC-MRCC
   Dagmar Lenk            : GEPOL surface, SMD
   Dimitrios Liakos       : Extrapolation schemes; Compound Job, initial MDCI parallelization
   Dimitrios Manganas     : Further ROCIS development; embedding schemes
   Dimitrios Pantazis     : SARC Basis sets
   Anastasios Papadopoulos: AUTO-CI, single reference methods and gradients
   Taras Petrenko         : DFT Hessian,TD-DFT gradient, ASA, ECA, R-Raman, ABS, FL, XAS/XES, NRVS
   Peter Pinski           : DLPNO-MP2, DLPNO-MP2 Gradient
   Christoph Reimann      : Effective Core Potentials
   Marius Retegan         : Local ZFS, SOC
   Christoph Riplinger    : Optimizer, TS searches, QM/MM, DLPNO-CCSD(T), (RO)-DLPNO pert. Triples
   Tobias Risthaus        : Range-separated hybrids, TD-DFT gradient, RPA, STAB
   Michael Roemelt        : Original ROCIS implementation
   Masaaki Saitow         : Open-shell DLPNO-CCSD energy and density
   Barbara Sandhoefer     : DKH picture change effects
   Avijit Sen             : IP-ROCIS
   Kantharuban Sivalingam : CASSCF convergence, NEVPT2, FIC-MRCI
   Bernardo de Souza      : ESD, SOC TD-DFT
   Georgi Stoychev        : AutoAux, RI-MP2 NMR
   Willem Van den Heuvel  : Paramagnetic NMR
   Boris Wezisla          : Elementary symmetry handling
   Frank Wennmohs         : Technical directorship


 We gratefully acknowledge several colleagues who have allowed us to
 interface, adapt or use parts of their codes:
   Stefan Grimme, W. Hujo, H. Kruse, P. Pracht,  : VdW corrections, initial TS optimization,
                  C. Bannwarth, S. Ehlert          DFT functionals, gCP, sTDA/sTD-DF
   Ed Valeev, F. Pavosevic, A. Kumar             : LibInt (2-el integral package), F12 methods
   Garnet Chan, S. Sharma, J. Yang, R. Olivares  : DMRG
   Ulf Ekstrom                                   : XCFun DFT Library
   Mihaly Kallay                                 : mrcc  (arbitrary order and MRCC methods)
   Jiri Pittner, Ondrej Demel                    : Mk-CCSD
   Frank Weinhold                                : gennbo (NPA and NBO analysis)
   Christopher J. Cramer and Donald G. Truhlar   : smd solvation model
   Lars Goerigk                                  : TD-DFT with DH, B97 family of functionals
   V. Asgeirsson, H. Jonsson                     : NEB implementation
   FAccTs GmbH                                   : IRC, NEB, NEB-TS, DLPNO-Multilevel, CI-OPT
                                                   MM, QMMM, 2- and 3-layer-ONIOM, Crystal-QMMM,
                                                   LR-CPCM, SF, NACMEs, symmetry and pop. for TD-DFT,
                                                   nearIR, NL-DFT gradient (VV10), updates on ESD,
                                                   ML-optimized integration grids
   S Lehtola, MJT Oliveira, MAL Marques          : LibXC Library
   Liviu Ungur et al                             : ANISO software


 Your calculation uses the libint2 library for the computation of 2-el integrals
 For citations please refer to: http://libint.valeyev.net

 Your ORCA version has been built with support for libXC version: 5.1.0
 For citations please refer to: https://tddft.org/programs/libxc/

 This ORCA versions uses:
   CBLAS   interface :  Fast vector & matrix operations
   LAPACKE interface :  Fast linear algebra routines
   SCALAPACK package :  Parallel linear algebra routines
   Shared memory     :  Shared parallel matrices
   BLAS/LAPACK       :  OpenBLAS 0.3.15  USE64BITINT DYNAMIC_ARCH NO_AFFINITY Haswell SINGLE_THREADED
        Core in use  :  Haswell
   Copyright (c) 2011-2014, The OpenBLAS Project


XCFun DFT library Copyright 2009-2010 Ulf Ekstrom and contributors.
See http://admol.org/xcfun for more information.
This is free software; see the source code for copying conditions.
There is ABSOLUTELY NO WARRANTY; not even for MERCHANTABILITY or FITNESS FOR A PARTICULAR PURPOSE.
For details see the documentation.
Scientific users of this library should cite U. Ekstrom, L. Visscher, R. Bast, A. J. Thorvaldsen and K. Ruud;
J.Chem.Theor.Comp. 2010, DOI: 10.1021/ct100117s
XCFun Version 0.99 

================================================================================

----- Orbital basis set information -----
Your calculation utilizes the basis: def2-TZVP
   F. Weigend and R. Ahlrichs, Phys. Chem. Chem. Phys. 7, 3297 (2005).

----- AuxJ basis set information -----
Your calculation utilizes the auxiliary basis: def2/J
   F. Weigend, Phys. Chem. Chem. Phys. 8, 1057 (2006).

================================================================================
                                        WARNINGS
                       Please study these warnings very carefully!
================================================================================


INFO   : the flag for use of the SHARK integral package has been found!

================================================================================
                                       INPUT FILE
================================================================================
NAME = TZVP_CAMB3LYP_C3_wt_dlpno_neg.com
|  1> !CAM-B3LYP RIJCOSX def2-TZVP def2/J TightSCF
|  2> *xyz 0 1
|  3> C          0.61188        1.65763       -4.50029
|  4> C          1.69499        1.54179       -5.57045
|  5> H          2.69733        1.73466       -5.18400
|  6> H          1.50666        2.27224       -6.35808
|  7> S          1.78029       -0.03313       -6.42874
|  8> O          2.56929        0.21366       -7.60736
|  9> O          0.41688       -0.46297       -6.61859
| 10> F          2.50513       -0.93326       -5.48257
| 11> H         -0.34424        1.45871       -4.93752
| 12> H          0.61845        2.64655       -4.09174
| 13> H          0.80247        0.94882       -3.72173
| 14> *
| 15> %MaxCore 64000
| 16> 
| 17> %pal nprocs 4
| 18> end  
| 19> 
| 20> %scf
| 21>   MaxIter 150
| 22> end
| 23> 
| 24> 
| 25>                          ****END OF INPUT****
================================================================================

                       ****************************
                       * Single Point Calculation *
                       ****************************

---------------------------------
CARTESIAN COORDINATES (ANGSTROEM)
---------------------------------
  C      0.611880    1.657630   -4.500290
  C      1.694990    1.541790   -5.570450
  H      2.697330    1.734660   -5.184000
  H      1.506660    2.272240   -6.358080
  S      1.780290   -0.033130   -6.428740
  O      2.569290    0.213660   -7.607360
  O      0.416880   -0.462970   -6.618590
  F      2.505130   -0.933260   -5.482570
  H     -0.344240    1.458710   -4.937520
  H      0.618450    2.646550   -4.091740
  H      0.802470    0.948820   -3.721730

----------------------------
CARTESIAN COORDINATES (A.U.)
----------------------------
  NO LB      ZA    FRAG     MASS         X           Y           Z
   0 C     6.0000    0    12.011    1.156286    3.132467   -8.504316
   1 C     6.0000    0    12.011    3.203067    2.913561  -10.526625
   2 H     1.0000    0     1.008    5.097215    3.278032   -9.796340
   3 H     1.0000    0     1.008    2.847175    4.293911  -12.015030
   4 S    16.0000    0    32.060    3.364261   -0.062607  -12.148558
   5 O     8.0000    0    15.999    4.855254    0.403759  -14.375827
   6 O     8.0000    0    15.999    0.787789   -0.874887  -12.507322
   7 F     9.0000    0    18.998    4.734010   -1.763606  -10.360556
   8 H     1.0000    0     1.008   -0.650519    2.756562   -9.330561
   9 H     1.0000    0     1.008    1.168701    5.001255   -7.732268
  10 H     1.0000    0     1.008    1.516449    1.793010   -7.033050

--------------------------------
INTERNAL COORDINATES (ANGSTROEM)
--------------------------------
 C      0   0   0     0.000000000000     0.00000000     0.00000000
 C      1   0   0     1.527019516345     0.00000000     0.00000000
 H      2   1   0     1.091433880269   112.94513473     0.00000000
 H      2   1   3     1.090589935906   109.44112933   240.64418737
 S      2   1   3     1.795636605914   115.79870243   122.89445723
 O      5   2   1     1.439642805872   105.48605342   163.81980865
 O      5   2   1     1.442113822207   106.22673339    38.41531616
 F      5   2   1     1.493607951037   104.40866289   280.72744689
 H      1   2   3     1.070002193316   109.47107582   179.99958216
 H      1   2   3     1.070008894262   109.47169820    59.99998276
 H      1   2   3     1.069996185881   109.47160243   300.00021220

---------------------------
INTERNAL COORDINATES (A.U.)
---------------------------
 C      0   0   0     0.000000000000     0.00000000     0.00000000
 C      1   0   0     2.885648687046     0.00000000     0.00000000
 H      2   1   0     2.062511126992   112.94513473     0.00000000
 H      2   1   3     2.060916303274   109.44112933   240.64418737
 S      2   1   3     3.393261421222   115.79870243   122.89445723
 O      5   2   1     2.720530633769   105.48605342   163.81980865
 O      5   2   1     2.725200177913   106.22673339    38.41531616
 F      5   2   1     2.822509978907   104.40866289   280.72744689
 H      1   2   3     2.022011108061   109.47107582   179.99958216
 H      1   2   3     2.022023771015   109.47169820    59.99998276
 H      1   2   3     2.021999755655   109.47160243   300.00021220

---------------------
BASIS SET INFORMATION
---------------------
There are 5 groups of distinct atoms

 Group   1 Type C   : 11s6p2d1f contracted to 5s3p2d1f pattern {62111/411/11/1}
 Group   2 Type H   : 5s1p contracted to 3s1p pattern {311/1}
 Group   3 Type S   : 14s9p3d1f contracted to 5s5p2d1f pattern {73211/51111/21/1}
 Group   4 Type O   : 11s6p2d1f contracted to 5s3p2d1f pattern {62111/411/11/1}
 Group   5 Type F   : 11s6p2d1f contracted to 5s3p2d1f pattern {62111/411/11/1}

Atom   0C    basis set group =>   1
Atom   1C    basis set group =>   1
Atom   2H    basis set group =>   2
Atom   3H    basis set group =>   2
Atom   4S    basis set group =>   3
Atom   5O    basis set group =>   4
Atom   6O    basis set group =>   4
Atom   7F    basis set group =>   5
Atom   8H    basis set group =>   2
Atom   9H    basis set group =>   2
Atom  10H    basis set group =>   2
---------------------------------
AUXILIARY/J BASIS SET INFORMATION
---------------------------------
There are 5 groups of distinct atoms

 Group   1 Type C   : 12s5p4d2f1g contracted to 6s4p3d1f1g pattern {711111/2111/211/2/1}
 Group   2 Type H   : 5s2p1d contracted to 3s1p1d pattern {311/2/1}
 Group   3 Type S   : 14s5p5d2f1g contracted to 8s4p3d1f1g pattern {71111111/2111/311/2/1}
 Group   4 Type O   : 12s5p4d2f1g contracted to 6s4p3d1f1g pattern {711111/2111/211/2/1}
 Group   5 Type F   : 12s5p4d2f1g contracted to 6s4p3d1f1g pattern {711111/2111/211/2/1}

Atom   0C    basis set group =>   1
Atom   1C    basis set group =>   1
Atom   2H    basis set group =>   2
Atom   3H    basis set group =>   2
Atom   4S    basis set group =>   3
Atom   5O    basis set group =>   4
Atom   6O    basis set group =>   4
Atom   7F    basis set group =>   5
Atom   8H    basis set group =>   2
Atom   9H    basis set group =>   2
Atom  10H    basis set group =>   2


           ************************************************************
           *        Program running with 4 parallel MPI-processes     *
           *              working on a common directory               *
           ************************************************************
------------------------------------------------------------------------------
                           ORCA GTO INTEGRAL CALCULATION
                           -- RI-GTO INTEGRALS CHOSEN --
------------------------------------------------------------------------------
------------------------------------------------------------------------------
                   ___                                                        
                  /   \      - P O W E R E D   B Y -                         
                 /     \                                                     
                 |  |  |   _    _      __       _____    __    __             
                 |  |  |  | |  | |    /  \     |  _  \  |  |  /  |          
                  \  \/   | |  | |   /    \    | | | |  |  | /  /          
                 / \  \   | |__| |  /  /\  \   | |_| |  |  |/  /          
                |  |  |   |  __  | /  /__\  \  |    /   |      \           
                |  |  |   | |  | | |   __   |  |    \   |  |\   \          
                \     /   | |  | | |  |  |  |  | |\  \  |  | \   \       
                 \___/    |_|  |_| |__|  |__|  |_| \__\ |__|  \__/        
                                                                              
                      - O R C A' S   B I G   F R I E N D -                    
                                      &                                       
                       - I N T E G R A L  F E E D E R -                       
                                                                              
 v1 FN, 2020, v2 2021                                                         
------------------------------------------------------------------------------


Reading SHARK input file TZVP_CAMB3LYP_C3_wt_dlpno_neg.SHARKINP.tmp ... ok
----------------------
SHARK INTEGRAL PACKAGE
----------------------

Number of atoms                             ...     11
Number of basis functions                   ...    222
Number of shells                            ...     88
Maximum angular momentum                    ...      3
Integral batch strategy                     ... SHARK/LIBINT Hybrid
RI-J (if used) integral strategy            ... SPLIT-RIJ (Revised 2003 algorithm where possible)
Printlevel                                  ...      1
Contraction scheme used                     ... SEGMENTED contraction
Coulomb Range Separation                    ... NOT USED
Exchange Range Separation                   ... Long Range
   Mu parameter                             ...  0.330000
   Scaling (regular/separated)              ...  0.190000  0.460000
Finite Nucleus Model                        ... NOT USED
Auxiliary Coulomb fitting basis             ... AVAILABLE
   # of basis functions in Aux-J            ...    351
   # of shells in Aux-J                     ...    117
   Maximum angular momentum in Aux-J        ...      4
Auxiliary J/K fitting basis                 ... NOT available
Auxiliary Correlation fitting basis         ... NOT available
Auxiliary 'external' fitting basis          ... NOT available
Integral threshold                          ...     2.500000e-11
Primitive cut-off                           ...     2.500000e-12
Primitive pair pre-selection threshold      ...     2.500000e-12

Calculating pre-screening integrals         ... done (  0.1 sec) Dimension = 88
Organizing shell pair data                  ... done (  0.0 sec)
Shell pair information
Total number of shell pairs                 ...      3916
Shell pairs after pre-screening             ...      3662
Total number of primitive shell pairs       ...     12564
Primitive shell pairs kept                  ...      8875
          la=0 lb=0:    926 shell pairs
          la=1 lb=0:   1059 shell pairs
          la=1 lb=1:    318 shell pairs
          la=2 lb=0:    498 shell pairs
          la=2 lb=1:    292 shell pairs
          la=2 lb=2:     77 shell pairs
          la=3 lb=0:    252 shell pairs
          la=3 lb=1:    147 shell pairs
          la=3 lb=2:     72 shell pairs
          la=3 lb=3:     21 shell pairs

Calculating one electron integrals          ... done (  0.0 sec)
Calculating RI/J V-Matrix + Cholesky decomp.... done (  0.0 sec)
Calculating Nuclear repulsion               ... done (  0.0 sec) ENN=    362.337241743748 Eh

SHARK setup successfully completed in   0.2 seconds

Maximum memory used throughout the entire GTOINT-calculation: 15.3 MB


           ************************************************************
           *        Program running with 4 parallel MPI-processes     *
           *              working on a common directory               *
           ************************************************************
-------------------------------------------------------------------------------
                                 ORCA SCF
-------------------------------------------------------------------------------

------------
SCF SETTINGS
------------
Hamiltonian:
 Density Functional     Method          .... DFT(GTOs)
 Exchange Functional    Exchange        .... WB88
 Correlation Functional Correlation     .... LYP
 LDA part of GGA corr.  LDAOpt          .... VWN-5
 Gradients option       PostSCFGGA      .... off
 Hybrid DFT is turned on
   Fraction HF Exchange ScalHFX         ....  0.190000
   Scaling of DF-GGA-X  ScalDFX         ....  0.350000
   Scaling of DF-GGA-C  ScalDFC         ....  0.810000
   Scaling of DF-LDA-C  ScalLDAC        ....  1.000000
   Perturbative correction              ....  0.000000
   Density functional embedding theory  .... OFF
 Long-range corrected/Screened/Range-Separated Hybrid DFT is turned on
   Amount of maximum screened exact exchange              ....  0.460000
   Range separation parameter mu (erf(mu*r12)/r12)        ....  0.330000
 RI-approximation to the Coulomb term is turned on
   Number of AuxJ basis functions       .... 351
   RIJ-COSX (HFX calculated with COS-X)).... on


General Settings:
 Integral files         IntName         .... TZVP_CAMB3LYP_C3_wt_dlpno_neg
 Hartree-Fock type      HFTyp           .... RHF
 Total Charge           Charge          ....    0
 Multiplicity           Mult            ....    1
 Number of Electrons    NEL             ....   58
 Basis Dimension        Dim             ....  222
 Nuclear Repulsion      ENuc            ....    362.3372417437 Eh

Convergence Acceleration:
 DIIS                   CNVDIIS         .... on
   Start iteration      DIISMaxIt       ....    12
   Startup error        DIISStart       ....  0.200000
   # of expansion vecs  DIISMaxEq       ....     5
   Bias factor          DIISBfac        ....   1.050
   Max. coefficient     DIISMaxC        ....  10.000
 Trust-Rad. Augm. Hess. CNVTRAH         .... auto
   Auto Start mean grad. ratio tolernc. ....  1.125000
   Auto Start start iteration           ....    20
   Auto Start num. interpolation iter.  ....    10
   Max. Number of Micro iterations      ....    16
   Max. Number of Macro iterations      .... Maxiter - #DIIS iter
   Number of Davidson start vectors     ....     2
   Converg. threshold I  (grad. norm)   ....   1.000e-05
   Converg. threshold II (energy diff.) ....   1.000e-08
   Grad. Scal. Fac. for Micro threshold ....   0.100
   Minimum threshold for Micro iter.    ....   0.010
   NR start threshold (gradient norm)   ....   0.001
   Initial trust radius                 ....   0.400
   Minimum AH scaling param. (alpha)    ....   1.000
   Maximum AH scaling param. (alpha)    .... 1000.000
   Orbital update algorithm             .... Taylor
   White noise on init. David. guess    .... on
   Maximum white noise                  ....   0.010
   Quad. conv. algorithm                .... NR
 SOSCF                  CNVSOSCF        .... on
   Start iteration      SOSCFMaxIt      ....   150
   Startup grad/error   SOSCFStart      ....  0.003300
 Level Shifting         CNVShift        .... on
   Level shift para.    LevelShift      ....    0.2500
   Turn off err/grad.   ShiftErr        ....    0.0010
 Zerner damping         CNVZerner       .... off
 Static damping         CNVDamp         .... on
   Fraction old density DampFac         ....    0.7000
   Max. Damping (<1)    DampMax         ....    0.9800
   Min. Damping (>=0)   DampMin         ....    0.0000
   Turn off err/grad.   DampErr         ....    0.1000
 Fernandez-Rico         CNVRico         .... off

SCF Procedure:
 Maximum # iterations   MaxIter         ....   150
 SCF integral mode      SCFMode         .... Direct
   Integral package                     .... SHARK and LIBINT hybrid scheme
 Reset frequency        DirectResetFreq ....    20
 Integral Threshold     Thresh          ....  2.500e-11 Eh
 Primitive CutOff       TCut            ....  2.500e-12 Eh

Convergence Tolerance:
 Convergence Check Mode ConvCheckMode   .... Total+1el-Energy
 Convergence forced     ConvForced      .... 0
 Energy Change          TolE            ....  1.000e-08 Eh
 1-El. energy change                    ....  1.000e-05 Eh
 Orbital Gradient       TolG            ....  1.000e-05
 Orbital Rotation angle TolX            ....  1.000e-05
 DIIS Error             TolErr          ....  5.000e-07


Diagonalization of the overlap matrix:
Smallest eigenvalue                        ... 4.624e-04
Time for diagonalization                   ...    0.013 sec
Threshold for overlap eigenvalues          ... 1.000e-08
Number of eigenvalues below threshold      ... 0
Time for construction of square roots      ...    0.008 sec
Total time needed                          ...    0.022 sec

Time for model grid setup =    0.071 sec

------------------------------
INITIAL GUESS: MODEL POTENTIAL
------------------------------
Loading Hartree-Fock densities                     ... done
Calculating cut-offs                               ... done
Initializing the effective Hamiltonian             ... done
Setting up the integral package (SHARK)            ... done
Starting the Coulomb interaction                   ... done (   0.1 sec)
Reading the grid                                   ... done
Mapping shells                                     ... done
Starting the XC term evaluation                    ... done (   0.1 sec)
  promolecular density results
     # of electrons  =     57.997575868
     EX              =    -63.052153611
     EC              =     -2.063059878
     EX+EC           =    -65.115213489
Transforming the Hamiltonian                       ... done (   0.0 sec)
Diagonalizing the Hamiltonian                      ... done (   0.0 sec)
Back transforming the eigenvectors                 ... done (   0.0 sec)
Now organizing SCF variables                       ... done
                      ------------------
                      INITIAL GUESS DONE (   0.2 sec)
                      ------------------
-------------------
DFT GRID GENERATION
-------------------

General Integration Accuracy     IntAcc      ... 4.388
Radial Grid Type                 RadialGrid  ... OptM3 with GC (2021)
Angular Grid (max. ang.)         AngularGrid ... 4 (Lebedev-302)
Angular grid pruning method      GridPruning ... 4 (adaptive)
Weight generation scheme         WeightScheme... Becke
Basis function cutoff            BFCut       ... 1.0000e-11
Integration weight cutoff        WCut        ... 1.0000e-14
Angular grids for H and He will be reduced by one unit
Partially contracted basis set               ... off
Rotationally invariant grid construction     ... off

Total number of grid points                  ...    53891
Total number of batches                      ...      846
Average number of points per batch           ...       63
Average number of grid points per atom       ...     4899
Time for grid setup =    0.353 sec

--------------------
COSX GRID GENERATION
--------------------

GRIDX 1
-------
General Integration Accuracy     IntAcc      ... 3.816
Radial Grid Type                 RadialGrid  ... OptM3 with GC (2021)
Angular Grid (max. ang.)         AngularGrid ... 1 (Lebedev-50)
Angular grid pruning method      GridPruning ... 4 (adaptive)
Weight generation scheme         WeightScheme... Becke
Basis function cutoff            BFCut       ... 1.0000e-11
Integration weight cutoff        WCut        ... 1.0000e-14
Angular grids for H and He will be reduced by one unit
Partially contracted basis set               ... on
Rotationally invariant grid construction     ... off

Total number of grid points                  ...     6793
Total number of batches                      ...      112
Average number of points per batch           ...       60
Average number of grid points per atom       ...      618
UseSFitting                                  ... on

GRIDX 2
-------
General Integration Accuracy     IntAcc      ... 4.020
Radial Grid Type                 RadialGrid  ... OptM3 with GC (2021)
Angular Grid (max. ang.)         AngularGrid ... 2 (Lebedev-110)
Angular grid pruning method      GridPruning ... 4 (adaptive)
Weight generation scheme         WeightScheme... Becke
Basis function cutoff            BFCut       ... 1.0000e-11
Integration weight cutoff        WCut        ... 1.0000e-14
Angular grids for H and He will be reduced by one unit
Partially contracted basis set               ... on
Rotationally invariant grid construction     ... off

Total number of grid points                  ...    14998
Total number of batches                      ...      239
Average number of points per batch           ...       62
Average number of grid points per atom       ...     1363
UseSFitting                                  ... on

GRIDX 3
-------
General Integration Accuracy     IntAcc      ... 4.338
Radial Grid Type                 RadialGrid  ... OptM3 with GC (2021)
Angular Grid (max. ang.)         AngularGrid ... 3 (Lebedev-194)
Angular grid pruning method      GridPruning ... 4 (adaptive)
Weight generation scheme         WeightScheme... Becke
Basis function cutoff            BFCut       ... 1.0000e-11
Integration weight cutoff        WCut        ... 1.0000e-14
Angular grids for H and He will be reduced by one unit
Partially contracted basis set               ... on
Rotationally invariant grid construction     ... off

Total number of grid points                  ...    33644
Total number of batches                      ...      531
Average number of points per batch           ...       63
Average number of grid points per atom       ...     3059
UseSFitting                                  ... on

Time for X-Grid setup             =    0.317 sec

--------------
SCF ITERATIONS
--------------
ITER       Energy         Delta-E        Max-DP      RMS-DP      [F,P]     Damp
               ***  Starting incremental Fock matrix formation  ***
  0   -727.4431293836   0.000000000000 0.12859550  0.00143543  0.2828181 0.7000
  1   -727.5849542173  -0.141824833753 0.05993166  0.00090197  0.1161402 0.7000
                               ***Turning on DIIS***
  2   -727.6365488538  -0.051594636498 0.04645923  0.00137292  0.0475347 0.0000
  3   -727.7279176708  -0.091368817032 0.04934006  0.00058211  0.0607779 0.0000
  4   -727.7428123311  -0.014894660306 0.00590515  0.00015205  0.0139095 0.0000
                      *** Initiating the SOSCF procedure ***
                           *** Shutting down DIIS ***
                      *** Re-Reading the Fockian *** 
                      *** Removing any level shift *** 
ITER      Energy       Delta-E        Grad      Rot      Max-DP    RMS-DP
  5   -727.74349677  -0.0006844350  0.000529  0.000529  0.002077  0.000046
               *** Restarting incremental Fock matrix formation ***
  6   -727.74352856  -0.0000317893  0.000235  0.000297  0.000936  0.000023
  7   -727.74353115  -0.0000025917  0.000232  0.000260  0.000504  0.000013
  8   -727.74353249  -0.0000013416  0.000065  0.000073  0.000324  0.000005
  9   -727.74353258  -0.0000000960  0.000031  0.000021  0.000206  0.000002
 10   -727.74353264  -0.0000000569  0.000012  0.000008  0.000027  0.000001
 11   -727.74353264   0.0000000016  0.000009  0.000005  0.000010  0.000000
                  ***Gradient check signals convergence***
              ***Rediagonalizing the Fockian in SOSCF/NRSCF***

               *****************************************************
               *                     SUCCESS                       *
               *           SCF CONVERGED AFTER  12 CYCLES          *
               *****************************************************

Old exchange energy                            =    -16.761189456 Eh
New exchange energy                            =    -16.761188073 Eh
Exchange energy change after final integration =      0.000001383 Eh
Total energy after final integration           =   -727.743531258 Eh
Final COS-X integration done in                =     4.720 sec

----------------
TOTAL SCF ENERGY
----------------

Total Energy       :         -727.74353126 Eh          -19802.90825 eV

Components:
Nuclear Repulsion  :          362.33724174 Eh            9859.69761 eV
Electronic Energy  :        -1090.08077300 Eh          -29662.60585 eV
One Electron Energy:        -1720.89027974 Eh          -46827.80519 eV
Two Electron Energy:          630.80950674 Eh           17165.19934 eV
Max COSX asymmetry :            0.00000515 Eh               0.00014 eV

Virial components:
Potential Energy   :        -1453.56482888 Eh          -39553.50986 eV
Kinetic Energy     :          725.82129762 Eh           19750.60161 eV
Virial Ratio       :            2.00264836


DFT components:
N(Alpha)           :       28.999992785727 electrons
N(Beta)            :       28.999992785727 electrons
N(Total)           :       57.999985571455 electrons
E(XC)              :      -49.417262094558 Eh       
DFET-embed. en.    :        0.000000000000 Eh       

---------------
SCF CONVERGENCE
---------------

  Last Energy change         ...   -2.1294e-10  Tolerance :   1.0000e-08
  Last MAX-Density change    ...    2.6645e-15  Tolerance :   1.0000e-07
  Last RMS-Density change    ...    2.3726e-17  Tolerance :   5.0000e-09
  Last Orbital Gradient      ...    1.7151e-06  Tolerance :   1.0000e-05
  Last Orbital Rotation      ...    2.6319e-06  Tolerance :   1.0000e-05

             **** THE GBW FILE WAS UPDATED (TZVP_CAMB3LYP_C3_wt_dlpno_neg.gbw) ****
             **** DENSITY TZVP_CAMB3LYP_C3_wt_dlpno_neg.scfp WAS UPDATED ****
             **** ENERGY FILE WAS UPDATED (TZVP_CAMB3LYP_C3_wt_dlpno_neg.en.tmp) ****
             **** THE GBW FILE WAS UPDATED (TZVP_CAMB3LYP_C3_wt_dlpno_neg.gbw) ****
             **** DENSITY TZVP_CAMB3LYP_C3_wt_dlpno_neg.scfp WAS UPDATED ****
----------------
ORBITAL ENERGIES
----------------

  NO   OCC          E(Eh)            E(eV) 
   0   2.0000     -89.176044     -2426.6035 
   1   2.0000     -24.853074      -676.2865 
   2   2.0000     -19.213469      -522.8251 
   3   2.0000     -19.212640      -522.8025 
   4   2.0000     -10.306179      -280.4454 
   5   2.0000     -10.262783      -279.2645 
   6   2.0000      -8.219906      -223.6750 
   7   2.0000      -6.187898      -168.3813 
   8   2.0000      -6.181414      -168.2048 
   9   2.0000      -6.180794      -168.1880 
  10   2.0000      -1.426989       -38.8303 
  11   2.0000      -1.200410       -32.6648 
  12   2.0000      -1.109124       -30.1808 
  13   2.0000      -0.907505       -24.6945 
  14   2.0000      -0.800039       -21.7702 
  15   2.0000      -0.747801       -20.3487 
  16   2.0000      -0.650437       -17.6993 
  17   2.0000      -0.634086       -17.2544 
  18   2.0000      -0.621845       -16.9213 
  19   2.0000      -0.566703       -15.4208 
  20   2.0000      -0.550925       -14.9914 
  21   2.0000      -0.528402       -14.3785 
  22   2.0000      -0.503300       -13.6955 
  23   2.0000      -0.474733       -12.9181 
  24   2.0000      -0.472269       -12.8511 
  25   2.0000      -0.450822       -12.2675 
  26   2.0000      -0.410014       -11.1570 
  27   2.0000      -0.401087       -10.9141 
  28   2.0000      -0.390854       -10.6357 
  29   0.0000       0.053720         1.4618 
  30   0.0000       0.087720         2.3870 
  31   0.0000       0.099741         2.7141 
  32   0.0000       0.112388         3.0582 
  33   0.0000       0.122870         3.3435 
  34   0.0000       0.132544         3.6067 
  35   0.0000       0.138911         3.7800 
  36   0.0000       0.157891         4.2964 
  37   0.0000       0.181067         4.9271 
  38   0.0000       0.202008         5.4969 
  39   0.0000       0.226724         6.1695 
  40   0.0000       0.244848         6.6626 
  41   0.0000       0.248978         6.7750 
  42   0.0000       0.296464         8.0672 
  43   0.0000       0.308328         8.3900 
  44   0.0000       0.317957         8.6520 
  45   0.0000       0.327113         8.9012 
  46   0.0000       0.342209         9.3120 
  47   0.0000       0.411301        11.1921 
  48   0.0000       0.416666        11.3381 
  49   0.0000       0.428547        11.6614 
  50   0.0000       0.432058        11.7569 
  51   0.0000       0.460040        12.5183 
  52   0.0000       0.474618        12.9150 
  53   0.0000       0.495163        13.4741 
  54   0.0000       0.500477        13.6187 
  55   0.0000       0.507369        13.8062 
  56   0.0000       0.524745        14.2790 
  57   0.0000       0.542268        14.7559 
  58   0.0000       0.553012        15.0482 
  59   0.0000       0.584575        15.9071 
  60   0.0000       0.601798        16.3758 
  61   0.0000       0.619524        16.8581 
  62   0.0000       0.634826        17.2745 
  63   0.0000       0.649477        17.6732 
  64   0.0000       0.663620        18.0580 
  65   0.0000       0.692713        18.8497 
  66   0.0000       0.754302        20.5256 
  67   0.0000       0.774164        21.0661 
  68   0.0000       0.794357        21.6155 
  69   0.0000       0.796865        21.6838 
  70   0.0000       0.877591        23.8805 
  71   0.0000       0.881233        23.9796 
  72   0.0000       0.899646        24.4806 
  73   0.0000       0.939664        25.5696 
  74   0.0000       0.955528        26.0012 
  75   0.0000       0.974614        26.5206 
  76   0.0000       1.005237        27.3539 
  77   0.0000       1.020887        27.7797 
  78   0.0000       1.088371        29.6161 
  79   0.0000       1.115807        30.3627 
  80   0.0000       1.131068        30.7779 
  81   0.0000       1.170764        31.8581 
  82   0.0000       1.215890        33.0861 
  83   0.0000       1.347152        36.6579 
  84   0.0000       1.379671        37.5428 
  85   0.0000       1.393856        37.9288 
  86   0.0000       1.444051        39.2946 
  87   0.0000       1.496640        40.7257 
  88   0.0000       1.515664        41.2433 
  89   0.0000       1.519328        41.3430 
  90   0.0000       1.541063        41.9345 
  91   0.0000       1.552272        42.2395 
  92   0.0000       1.591830        43.3159 
  93   0.0000       1.598553        43.4988 
  94   0.0000       1.602026        43.5933 
  95   0.0000       1.612870        43.8884 
  96   0.0000       1.629580        44.3431 
  97   0.0000       1.643913        44.7331 
  98   0.0000       1.679115        45.6910 
  99   0.0000       1.705715        46.4149 
 100   0.0000       1.715473        46.6804 
 101   0.0000       1.759455        47.8772 
 102   0.0000       1.816380        49.4262 
 103   0.0000       1.833061        49.8801 
 104   0.0000       1.866651        50.7941 
 105   0.0000       1.885469        51.3062 
 106   0.0000       1.912142        52.0320 
 107   0.0000       1.954471        53.1838 
 108   0.0000       1.960288        53.3421 
 109   0.0000       2.045562        55.6626 
 110   0.0000       2.059652        56.0460 
 111   0.0000       2.080741        56.6198 
 112   0.0000       2.116170        57.5839 
 113   0.0000       2.154023        58.6140 
 114   0.0000       2.226993        60.5995 
 115   0.0000       2.230373        60.6915 
 116   0.0000       2.292002        62.3685 
 117   0.0000       2.305426        62.7338 
 118   0.0000       2.352272        64.0086 
 119   0.0000       2.354008        64.0558 
 120   0.0000       2.381171        64.7950 
 121   0.0000       2.391012        65.0628 
 122   0.0000       2.408740        65.5451 
 123   0.0000       2.416558        65.7579 
 124   0.0000       2.451904        66.7197 
 125   0.0000       2.475823        67.3706 
 126   0.0000       2.479666        67.4751 
 127   0.0000       2.503101        68.1128 
 128   0.0000       2.531169        68.8766 
 129   0.0000       2.625245        71.4366 
 130   0.0000       2.632042        71.6215 
 131   0.0000       2.640362        71.8479 
 132   0.0000       2.657379        72.3110 
 133   0.0000       2.678921        72.8972 
 134   0.0000       2.695792        73.3562 
 135   0.0000       2.718351        73.9701 
 136   0.0000       2.751472        74.8714 
 137   0.0000       2.817303        76.6627 
 138   0.0000       2.837498        77.2122 
 139   0.0000       2.854781        77.6825 
 140   0.0000       2.943690        80.1019 
 141   0.0000       2.967254        80.7431 
 142   0.0000       2.999956        81.6330 
 143   0.0000       3.037628        82.6581 
 144   0.0000       3.064250        83.3825 
 145   0.0000       3.096357        84.2562 
 146   0.0000       3.099365        84.3380 
 147   0.0000       3.136941        85.3605 
 148   0.0000       3.159739        85.9809 
 149   0.0000       3.195636        86.9577 
 150   0.0000       3.230783        87.9141 
 151   0.0000       3.252942        88.5170 
 152   0.0000       3.292124        89.5832 
 153   0.0000       3.376043        91.8668 
 154   0.0000       3.390546        92.2615 
 155   0.0000       3.425411        93.2102 
 156   0.0000       3.441652        93.6521 
 157   0.0000       3.471308        94.4591 
 158   0.0000       3.489901        94.9650 
 159   0.0000       3.538926        96.2991 
 160   0.0000       3.580649        97.4344 
 161   0.0000       3.651062        99.3505 
 162   0.0000       3.791122       103.1617 
 163   0.0000       3.804716       103.5316 
 164   0.0000       3.860180       105.0409 
 165   0.0000       3.881998       105.6345 
 166   0.0000       3.937725       107.1509 
 167   0.0000       3.986823       108.4870 
 168   0.0000       4.031855       109.7124 
 169   0.0000       4.210225       114.5661 
 170   0.0000       4.299459       116.9942 
 171   0.0000       4.354260       118.4854 
 172   0.0000       4.482331       121.9704 
 173   0.0000       4.492495       122.2470 
 174   0.0000       4.524325       123.1131 
 175   0.0000       4.619624       125.7064 
 176   0.0000       4.793516       130.4382 
 177   0.0000       5.195340       141.3724 
 178   0.0000       5.199765       141.4928 
 179   0.0000       5.202155       141.5578 
 180   0.0000       5.216786       141.9560 
 181   0.0000       5.230355       142.3252 
 182   0.0000       5.270961       143.4301 
 183   0.0000       5.294856       144.0804 
 184   0.0000       5.361169       145.8848 
 185   0.0000       5.403257       147.0301 
 186   0.0000       5.558253       151.2478 
 187   0.0000       5.567708       151.5050 
 188   0.0000       5.665142       154.1563 
 189   0.0000       5.688494       154.7918 
 190   0.0000       5.770026       157.0104 
 191   0.0000       6.334920       172.3819 
 192   0.0000       6.359658       173.0551 
 193   0.0000       6.404676       174.2801 
 194   0.0000       6.453398       175.6059 
 195   0.0000       6.686059       181.9369 
 196   0.0000       6.704289       182.4330 
 197   0.0000       6.778843       184.4617 
 198   0.0000       6.836007       186.0172 
 199   0.0000       6.854882       186.5308 
 200   0.0000       6.865746       186.8264 
 201   0.0000       6.887321       187.4135 
 202   0.0000       6.921619       188.3468 
 203   0.0000       6.930607       188.5914 
 204   0.0000       6.972794       189.7394 
 205   0.0000       6.996565       190.3862 
 206   0.0000       7.019245       191.0034 
 207   0.0000       7.110260       193.4800 
 208   0.0000       8.324869       226.5312 
 209   0.0000       8.328228       226.6226 
 210   0.0000       8.657555       235.5841 
 211   0.0000       8.691939       236.5197 
 212   0.0000       8.730218       237.5613 
 213   0.0000       9.379898       255.2400 
 214   0.0000       9.632420       262.1115 
 215   0.0000       9.670056       263.1356 
 216   0.0000      22.173048       603.3593 
 217   0.0000      22.406208       609.7039 
 218   0.0000      22.541638       613.3891 
 219   0.0000      43.473390      1182.9711 
 220   0.0000      43.660488      1188.0623 
 221   0.0000      56.956027      1549.8523 

                    ********************************
                    * MULLIKEN POPULATION ANALYSIS *
                    ********************************

-----------------------
MULLIKEN ATOMIC CHARGES
-----------------------
   0 C :   -0.343122
   1 C :   -0.260236
   2 H :    0.144790
   3 H :    0.158900
   4 S :    0.869406
   5 O :   -0.413725
   6 O :   -0.419418
   7 F :   -0.143580
   8 H :    0.152203
   9 H :    0.130138
  10 H :    0.124644
Sum of atomic charges:   -0.0000000

--------------------------------
MULLIKEN REDUCED ORBITAL CHARGES
--------------------------------
  0 C s       :     3.273431  s :     3.273431
      pz      :     0.973941  p :     3.017914
      px      :     0.986413
      py      :     1.057560
      dz2     :     0.010679  d :     0.048176
      dxz     :     0.007232
      dyz     :     0.013094
      dx2y2   :     0.012556
      dxy     :     0.004615
      f0      :     0.000327  f :     0.003600
      f+1     :     0.000600
      f-1     :     0.000212
      f+2     :     0.001492
      f-2     :     0.000538
      f+3     :     0.000111
      f-3     :     0.000320
  1 C s       :     3.231750  s :     3.231750
      pz      :     1.003526  p :     2.940610
      px      :     1.026991
      py      :     0.910093
      dz2     :     0.019217  d :     0.082962
      dxz     :     0.008250
      dyz     :     0.024351
      dx2y2   :     0.021569
      dxy     :     0.009575
      f0      :     0.000560  f :     0.004913
      f+1     :     0.000697
      f-1     :     0.000367
      f+2     :     0.001543
      f-2     :     0.000858
      f+3     :     0.000360
      f-3     :     0.000529
  2 H s       :     0.833253  s :     0.833253
      pz      :     0.005317  p :     0.021957
      px      :     0.012092
      py      :     0.004548
  3 H s       :     0.818836  s :     0.818836
      pz      :     0.009007  p :     0.022264
      px      :     0.004534
      py      :     0.008724
  4 S s       :     5.375927  s :     5.375927
      pz      :     2.831508  p :     8.513022
      px      :     2.774790
      py      :     2.906725
      dz2     :     0.186425  d :     1.117257
      dxz     :     0.253869
      dyz     :     0.238802
      dx2y2   :     0.226875
      dxy     :     0.211287
      f0      :     0.022281  f :     0.124388
      f+1     :     0.015884
      f-1     :     0.014927
      f+2     :     0.021920
      f-2     :     0.018825
      f+3     :     0.016741
      f-3     :     0.013810
  5 O s       :     3.824256  s :     3.824256
      pz      :     1.380289  p :     4.552310
      px      :     1.555289
      py      :     1.616731
      dz2     :     0.010746  d :     0.035117
      dxz     :     0.009791
      dyz     :     0.007748
      dx2y2   :     0.003367
      dxy     :     0.003465
      f0      :     0.000462  f :     0.002042
      f+1     :     0.000495
      f-1     :     0.000272
      f+2     :     0.000339
      f-2     :     0.000349
      f+3     :     0.000067
      f-3     :     0.000059
  6 O s       :     3.827725  s :     3.827725
      pz      :     1.645724  p :     4.554679
      px      :     1.285436
      py      :     1.623519
      dz2     :     0.003827  d :     0.034985
      dxz     :     0.009500
      dyz     :     0.001358
      dx2y2   :     0.010273
      dxy     :     0.010027
      f0      :     0.000223  f :     0.002029
      f+1     :     0.000301
      f-1     :     0.000060
      f+2     :     0.000287
      f-2     :     0.000156
      f+3     :     0.000526
      f-3     :     0.000475
  7 F s       :     3.897480  s :     3.897480
      pz      :     1.713815  p :     5.226468
      px      :     1.781486
      py      :     1.731167
      dz2     :     0.003436  d :     0.018840
      dxz     :     0.003843
      dyz     :     0.004886
      dx2y2   :     0.003000
      dxy     :     0.003674
      f0      :     0.000084  f :     0.000791
      f+1     :     0.000093
      f-1     :     0.000136
      f+2     :     0.000120
      f-2     :     0.000205
      f+3     :     0.000082
      f-3     :     0.000072
  8 H s       :     0.825938  s :     0.825938
      pz      :     0.005589  p :     0.021858
      px      :     0.011493
      py      :     0.004776
  9 H s       :     0.848217  s :     0.848217
      pz      :     0.005793  p :     0.021644
      px      :     0.004430
      py      :     0.011422
 10 H s       :     0.853670  s :     0.853670
      pz      :     0.009147  p :     0.021687
      px      :     0.004575
      py      :     0.007965


                     *******************************
                     * LOEWDIN POPULATION ANALYSIS *
                     *******************************

----------------------
LOEWDIN ATOMIC CHARGES
----------------------
   0 C :   -0.312478
   1 C :   -0.392670
   2 H :    0.137217
   3 H :    0.149636
   4 S :    0.553687
   5 O :   -0.270248
   6 O :   -0.269663
   7 F :    0.032367
   8 H :    0.127084
   9 H :    0.124238
  10 H :    0.120830

-------------------------------
LOEWDIN REDUCED ORBITAL CHARGES
-------------------------------
  0 C s       :     2.823307  s :     2.823307
      pz      :     1.060234  p :     3.207822
      px      :     1.066214
      py      :     1.081373
      dz2     :     0.045782  d :     0.255277
      dxz     :     0.055500
      dyz     :     0.065587
      dx2y2   :     0.067112
      dxy     :     0.021296
      f0      :     0.004876  f :     0.026073
      f+1     :     0.004753
      f-1     :     0.002208
      f+2     :     0.004140
      f-2     :     0.004226
      f+3     :     0.002250
      f-3     :     0.003619
  1 C s       :     2.847601  s :     2.847601
      pz      :     1.071212  p :     3.153684
      px      :     1.076618
      py      :     1.005855
      dz2     :     0.061428  d :     0.359501
      dxz     :     0.058922
      dyz     :     0.106197
      dx2y2   :     0.093508
      dxy     :     0.039445
      f0      :     0.005749  f :     0.031884
      f+1     :     0.004161
      f-1     :     0.003431
      f+2     :     0.005170
      f-2     :     0.005121
      f+3     :     0.003505
      f-3     :     0.004748
  2 H s       :     0.800128  s :     0.800128
      pz      :     0.016433  p :     0.062655
      px      :     0.032554
      py      :     0.013668
  3 H s       :     0.787624  s :     0.787624
      pz      :     0.024726  p :     0.062740
      px      :     0.013973
      py      :     0.024041
  4 S s       :     4.756490  s :     4.756490
      pz      :     2.847740  p :     8.559339
      px      :     2.846113
      py      :     2.865486
      dz2     :     0.296406  d :     1.761650
      dxz     :     0.404900
      dyz     :     0.379208
      dx2y2   :     0.360902
      dxy     :     0.320234
      f0      :     0.061027  f :     0.368834
      f+1     :     0.050123
      f-1     :     0.044771
      f+2     :     0.060817
      f-2     :     0.060354
      f+3     :     0.050675
      f-3     :     0.041067
  5 O s       :     3.559187  s :     3.559187
      pz      :     1.497548  p :     4.638880
      px      :     1.572468
      py      :     1.568864
      dz2     :     0.019345  d :     0.067550
      dxz     :     0.026329
      dyz     :     0.011174
      dx2y2   :     0.005519
      dxy     :     0.005183
      f0      :     0.000725  f :     0.004631
      f+1     :     0.001700
      f-1     :     0.000544
      f+2     :     0.000739
      f-2     :     0.000677
      f+3     :     0.000117
      f-3     :     0.000129
  6 O s       :     3.559063  s :     3.559063
      pz      :     1.589907  p :     4.638626
      px      :     1.470011
      py      :     1.578708
      dz2     :     0.009904  d :     0.067357
      dxz     :     0.012987
      dyz     :     0.002097
      dx2y2   :     0.024270
      dxy     :     0.018100
      f0      :     0.000423  f :     0.004616
      f+1     :     0.000850
      f-1     :     0.000125
      f+2     :     0.000514
      f-2     :     0.000355
      f+3     :     0.001145
      f-3     :     0.001205
  7 F s       :     3.683205  s :     3.683205
      pz      :     1.734066  p :     5.248090
      px      :     1.774688
      py      :     1.739337
      dz2     :     0.004779  d :     0.034834
      dxz     :     0.007741
      dyz     :     0.010578
      dx2y2   :     0.004376
      dxy     :     0.007359
      f0      :     0.000156  f :     0.001505
      f+1     :     0.000157
      f-1     :     0.000252
      f+2     :     0.000198
      f-2     :     0.000449
      f+3     :     0.000170
      f-3     :     0.000122
  8 H s       :     0.807809  s :     0.807809
      pz      :     0.017917  p :     0.065107
      px      :     0.032064
      py      :     0.015126
  9 H s       :     0.811569  s :     0.811569
      pz      :     0.017095  p :     0.064193
      px      :     0.014104
      py      :     0.032993
 10 H s       :     0.815111  s :     0.815111
      pz      :     0.025256  p :     0.064060
      px      :     0.014778
      py      :     0.024025


                      *****************************
                      * MAYER POPULATION ANALYSIS *
                      *****************************

  NA   - Mulliken gross atomic population
  ZA   - Total nuclear charge
  QA   - Mulliken gross atomic charge
  VA   - Mayer's total valence
  BVA  - Mayer's bonded valence
  FA   - Mayer's free valence

  ATOM       NA         ZA         QA         VA         BVA        FA
  0 C      6.3431     6.0000    -0.3431     3.8531     3.8531    -0.0000
  1 C      6.2602     6.0000    -0.2602     3.8238     3.8238     0.0000
  2 H      0.8552     1.0000     0.1448     0.9659     0.9659    -0.0000
  3 H      0.8411     1.0000     0.1589     0.9655     0.9655     0.0000
  4 S     15.1306    16.0000     0.8694     5.9336     5.9336    -0.0000
  5 O      8.4137     8.0000    -0.4137     2.0600     2.0600     0.0000
  6 O      8.4194     8.0000    -0.4194     2.0370     2.0370     0.0000
  7 F      9.1436     9.0000    -0.1436     1.1612     1.1612    -0.0000
  8 H      0.8478     1.0000     0.1522     0.9741     0.9741     0.0000
  9 H      0.8699     1.0000     0.1301     0.9638     0.9638    -0.0000
 10 H      0.8754     1.0000     0.1246     0.9715     0.9715     0.0000

  Mayer bond orders larger than 0.100000
B(  0-C ,  1-C ) :   0.9410 B(  0-C ,  8-H ) :   0.9674 B(  0-C ,  9-H ) :   0.9651 
B(  0-C , 10-H ) :   0.9725 B(  1-C ,  2-H ) :   0.9490 B(  1-C ,  3-H ) :   0.9442 
B(  1-C ,  4-S ) :   0.9131 B(  4-S ,  5-O ) :   1.9549 B(  4-S ,  6-O ) :   1.9214 
B(  4-S ,  7-F ) :   1.0903 

-------
TIMINGS
-------

Total SCF time: 0 days 0 hours 0 min 29 sec 

Total time                  ....      29.760 sec
Sum of individual times     ....      29.552 sec  ( 99.3%)

Fock matrix formation       ....      28.486 sec  ( 95.7%)
  Split-RI-J                ....       1.309 sec  (  4.6% of F)
  Chain of spheres X        ....      24.165 sec  ( 84.8% of F)
  XC integration            ....       2.962 sec  ( 10.4% of F)
    Basis function eval.    ....       0.930 sec  ( 31.4% of XC)
    Density eval.           ....       0.673 sec  ( 22.7% of XC)
    XC-Functional eval.     ....       0.473 sec  ( 16.0% of XC)
    XC-Potential eval.      ....       0.783 sec  ( 26.4% of XC)
Diagonalization             ....       0.066 sec  (  0.2%)
Density matrix formation    ....       0.005 sec  (  0.0%)
Population analysis         ....       0.009 sec  (  0.0%)
Initial guess               ....       0.147 sec  (  0.5%)
Orbital Transformation      ....       0.000 sec  (  0.0%)
Orbital Orthonormalization  ....       0.000 sec  (  0.0%)
DIIS solution               ....       0.041 sec  (  0.1%)
SOSCF solution              ....       0.056 sec  (  0.2%)
Grid generation             ....       0.742 sec  (  2.5%)

Maximum memory used throughout the entire SCF-calculation: 70.2 MB

-------------------------   --------------------
FINAL SINGLE POINT ENERGY      -727.743531257538
-------------------------   --------------------


                            ***************************************
                            *     ORCA property calculations      *
                            ***************************************

                                    ---------------------
                                    Active property flags
                                    ---------------------
   (+) Dipole Moment


------------------------------------------------------------------------------
                       ORCA ELECTRIC PROPERTIES CALCULATION
------------------------------------------------------------------------------

Dipole Moment Calculation                       ... on
Quadrupole Moment Calculation                   ... off
Polarizability Calculation                      ... off
GBWName                                         ... TZVP_CAMB3LYP_C3_wt_dlpno_neg.gbw
Electron density file                           ... TZVP_CAMB3LYP_C3_wt_dlpno_neg.scfp
The origin for moment calculation is the CENTER OF MASS  = ( 3.126144,  0.417675 -11.517074)

-------------
DIPOLE MOMENT
-------------
                                X             Y             Z
Electronic contribution:      3.78987      -7.59102      -3.90971
Nuclear contribution   :     -3.60260       8.53062       5.21025
                        -----------------------------------------
Total Dipole Moment    :      0.18727       0.93959       1.30054
                        -----------------------------------------
Magnitude (a.u.)       :      1.61533
Magnitude (Debye)      :      4.10585



--------------------
Rotational spectrum 
--------------------
 
Rotational constants in cm-1:     0.154011     0.080858     0.079602 
Rotational constants in MHz :  4617.134198  2424.070332  2386.404775 

 Dipole components along the rotational axes: 
x,y,z [a.u.] :    -1.350717     0.296759     0.834745 
x,y,z [Debye]:    -3.433250     0.754302     2.121754 

 

Timings for individual modules:

Sum of individual times         ...       30.399 sec (=   0.507 min)
GTO integral calculation        ...        0.432 sec (=   0.007 min)   1.4 %
SCF iterations                  ...       29.967 sec (=   0.499 min)  98.6 %
                             ****ORCA TERMINATED NORMALLY****
TOTAL RUN TIME: 0 days 0 hours 0 minutes 30 seconds 742 msec
