
                                        *****************
                                        * O   R   C   A *
                                        *****************

                                            #,                                       
                                            ###                                      
                                            ####                                     
                                            #####                                    
                                            ######                                   
                                           ########,                                 
                                     ,,################,,,,,                         
                               ,,#################################,,                 
                          ,,##########################################,,             
                       ,#########################################, ''#####,          
                    ,#############################################,,   '####,        
                  ,##################################################,,,,####,       
                ,###########''''           ''''###############################       
              ,#####''   ,,,,##########,,,,          '''####'''          '####       
            ,##' ,,,,###########################,,,                        '##       
           ' ,,###''''                  '''############,,,                           
         ,,##''                                '''############,,,,        ,,,,,,###''
      ,#''                                            '''#######################'''  
     '                                                          ''''####''''         
             ,#######,   #######,   ,#######,      ##                                
            ,#'     '#,  ##    ##  ,#'     '#,    #''#        ######   ,####,        
            ##       ##  ##   ,#'  ##            #'  '#       #        #'  '#        
            ##       ##  #######   ##           ,######,      #####,   #    #        
            '#,     ,#'  ##    ##  '#,     ,#' ,#      #,         ##   #,  ,#        
             '#######'   ##     ##  '#######'  #'      '#     #####' # '####'        



                  #######################################################
                  #                        -***-                        #
                  #          Department of theory and spectroscopy      #
                  #    Directorship and core code : Frank Neese         #
                  #        Max Planck Institute fuer Kohlenforschung    #
                  #                Kaiser Wilhelm Platz 1               #
                  #                 D-45470 Muelheim/Ruhr               #
                  #                      Germany                        #
                  #                                                     #
                  #                  All rights reserved                #
                  #                        -***-                        #
                  #######################################################


                         Program Version 5.0.0 -  RELEASE  -
                                (SVN: $Rev: 19529$)
                ($Date: 2021-06-28 11:36:33 +0200 (Mo, 28 Jun 2021) $)


 With contributions from (in alphabetic order):
   Daniel Aravena         : Magnetic Suceptibility
   Michael Atanasov       : Ab Initio Ligand Field Theory (pilot matlab implementation)
   Alexander A. Auer      : GIAO ZORA, VPT2 properties, NMR spectrum
   Ute Becker             : Parallelization
   Giovanni Bistoni       : ED, misc. LED, open-shell LED, HFLD
   Martin Brehm           : Molecular dynamics
   Dmytro Bykov           : SCF Hessian
   Vijay G. Chilkuri      : MRCI spin determinant printing, contributions to CSF-ICE
   Dipayan Datta          : RHF DLPNO-CCSD density
   Achintya Kumar Dutta   : EOM-CC, STEOM-CC
   Dmitry Ganyushin       : Spin-Orbit,Spin-Spin,Magnetic field MRCI
   Miquel Garcia          : C-PCM Hessian, Gaussian charge scheme
   Yang Guo               : DLPNO-NEVPT2, F12-NEVPT2, CIM, IAO-localization
   Andreas Hansen         : Spin unrestricted coupled pair/coupled cluster methods
   Benjamin Helmich-Paris : MC-RPA, TRAH-SCF, COSX integrals
   Lee Huntington         : MR-EOM, pCC
   Robert Izsak           : Overlap fitted RIJCOSX, COSX-SCS-MP3, EOM
   Marcus Kettner         : VPT2
   Christian Kollmar      : KDIIS, OOCD, Brueckner-CCSD(T), CCSD density, CASPT2, CASPT2-K
   Simone Kossmann        : Meta GGA functionals, TD-DFT gradient, OOMP2, MP2 Hessian
   Martin Krupicka        : Initial AUTO-CI
   Lucas Lang             : DCDCAS
   Marvin Lechner         : AUTO-CI (C++ implementation), FIC-MRCC
   Dagmar Lenk            : GEPOL surface, SMD
   Dimitrios Liakos       : Extrapolation schemes; Compound Job, initial MDCI parallelization
   Dimitrios Manganas     : Further ROCIS development; embedding schemes
   Dimitrios Pantazis     : SARC Basis sets
   Anastasios Papadopoulos: AUTO-CI, single reference methods and gradients
   Taras Petrenko         : DFT Hessian,TD-DFT gradient, ASA, ECA, R-Raman, ABS, FL, XAS/XES, NRVS
   Peter Pinski           : DLPNO-MP2, DLPNO-MP2 Gradient
   Christoph Reimann      : Effective Core Potentials
   Marius Retegan         : Local ZFS, SOC
   Christoph Riplinger    : Optimizer, TS searches, QM/MM, DLPNO-CCSD(T), (RO)-DLPNO pert. Triples
   Tobias Risthaus        : Range-separated hybrids, TD-DFT gradient, RPA, STAB
   Michael Roemelt        : Original ROCIS implementation
   Masaaki Saitow         : Open-shell DLPNO-CCSD energy and density
   Barbara Sandhoefer     : DKH picture change effects
   Avijit Sen             : IP-ROCIS
   Kantharuban Sivalingam : CASSCF convergence, NEVPT2, FIC-MRCI
   Bernardo de Souza      : ESD, SOC TD-DFT
   Georgi Stoychev        : AutoAux, RI-MP2 NMR
   Willem Van den Heuvel  : Paramagnetic NMR
   Boris Wezisla          : Elementary symmetry handling
   Frank Wennmohs         : Technical directorship


 We gratefully acknowledge several colleagues who have allowed us to
 interface, adapt or use parts of their codes:
   Stefan Grimme, W. Hujo, H. Kruse, P. Pracht,  : VdW corrections, initial TS optimization,
                  C. Bannwarth, S. Ehlert          DFT functionals, gCP, sTDA/sTD-DF
   Ed Valeev, F. Pavosevic, A. Kumar             : LibInt (2-el integral package), F12 methods
   Garnet Chan, S. Sharma, J. Yang, R. Olivares  : DMRG
   Ulf Ekstrom                                   : XCFun DFT Library
   Mihaly Kallay                                 : mrcc  (arbitrary order and MRCC methods)
   Jiri Pittner, Ondrej Demel                    : Mk-CCSD
   Frank Weinhold                                : gennbo (NPA and NBO analysis)
   Christopher J. Cramer and Donald G. Truhlar   : smd solvation model
   Lars Goerigk                                  : TD-DFT with DH, B97 family of functionals
   V. Asgeirsson, H. Jonsson                     : NEB implementation
   FAccTs GmbH                                   : IRC, NEB, NEB-TS, DLPNO-Multilevel, CI-OPT
                                                   MM, QMMM, 2- and 3-layer-ONIOM, Crystal-QMMM,
                                                   LR-CPCM, SF, NACMEs, symmetry and pop. for TD-DFT,
                                                   nearIR, NL-DFT gradient (VV10), updates on ESD,
                                                   ML-optimized integration grids
   S Lehtola, MJT Oliveira, MAL Marques          : LibXC Library
   Liviu Ungur et al                             : ANISO software


 Your calculation uses the libint2 library for the computation of 2-el integrals
 For citations please refer to: http://libint.valeyev.net

 Your ORCA version has been built with support for libXC version: 5.1.0
 For citations please refer to: https://tddft.org/programs/libxc/

 This ORCA versions uses:
   CBLAS   interface :  Fast vector & matrix operations
   LAPACKE interface :  Fast linear algebra routines
   SCALAPACK package :  Parallel linear algebra routines
   Shared memory     :  Shared parallel matrices
   BLAS/LAPACK       :  OpenBLAS 0.3.15  USE64BITINT DYNAMIC_ARCH NO_AFFINITY Haswell SINGLE_THREADED
        Core in use  :  Haswell
   Copyright (c) 2011-2014, The OpenBLAS Project




***************************************
The coordinates will be read from file: D3.xyz
***************************************


XCFun DFT library Copyright 2009-2010 Ulf Ekstrom and contributors.
See http://admol.org/xcfun for more information.
This is free software; see the source code for copying conditions.
There is ABSOLUTELY NO WARRANTY; not even for MERCHANTABILITY or FITNESS FOR A PARTICULAR PURPOSE.
For details see the documentation.
Scientific users of this library should cite U. Ekstrom, L. Visscher, R. Bast, A. J. Thorvaldsen and K. Ruud;
J.Chem.Theor.Comp. 2010, DOI: 10.1021/ct100117s
XCFun Version 0.99 

================================================================================

----- Orbital basis set information -----
Your calculation utilizes the basis: def2-TZVP
   F. Weigend and R. Ahlrichs, Phys. Chem. Chem. Phys. 7, 3297 (2005).

----- AuxJ basis set information -----
Your calculation utilizes the auxiliary basis: def2/J
   F. Weigend, Phys. Chem. Chem. Phys. 8, 1057 (2006).

================================================================================
                                        WARNINGS
                       Please study these warnings very carefully!
================================================================================


INFO   : the flag for use of the SHARK integral package has been found!

================================================================================
                                       INPUT FILE
================================================================================
NAME = CAMB3LYP_D3_wb97.com
|  1> !CAM-B3LYP RIJCOSX def2-TZVP def2/J TightSCF xyzfile                                                                                         
|  2> 
|  3> *xyzfile 0 1 D3.xyz
|  4> 
|  5> %MaxCore 64000
|  6> 
|  7> %pal nprocs 18                                                                                                                                                  
|  8> end  
|  9> 
| 10> %scf
| 11>   MaxIter 150
| 12> end
| 13> 
| 14> 
| 15>                          ****END OF INPUT****
================================================================================

                       ****************************
                       * Single Point Calculation *
                       ****************************

---------------------------------
CARTESIAN COORDINATES (ANGSTROEM)
---------------------------------
  C      1.963365   -1.749150   -1.896887
  N      2.738490   -2.015170   -3.097113
  C      0.611877    1.657634   -4.500288
  C      1.694991    1.541794   -5.570447
  H      2.697326    1.734659   -5.183996
  H      1.506656    2.272239   -6.358076
  S      1.780287   -0.033128   -6.428739
  C      4.049736   -2.154717   -3.152044
  N      4.658206   -1.986293   -4.318655
  C      4.764231   -2.454435   -2.050491
  H      4.287363   -2.776259   -1.217496
  H      5.750825   -2.658351   -2.125988
  H      2.345176   -1.690274   -3.971447
  H      4.109004   -1.592677   -5.071760
  H      5.649095   -2.156462   -4.427237
  F      2.569287    0.213657   -7.607360
  O      0.416880   -0.462969   -6.618595
  C      2.088520   -0.300912   -1.415204
  H      2.231272   -2.451616   -1.102643
  H      0.930249   -1.977801   -2.155438
  C      0.680356    0.655418   -3.348038
  H     -0.356865    1.549231   -4.991128
  H      0.650228    2.675438   -4.096000
  C      1.968993    0.733582   -2.535654
  H      3.051356   -0.168602   -0.911868
  H      1.316501   -0.136231   -0.657252
  O      2.505129   -0.933263   -5.482570
  H      2.824195    0.624726   -3.208464
  H      2.058919    1.730331   -2.093112
  H      0.542252   -0.344731   -3.766662
  H     -0.174219    0.829692   -2.685182

----------------------------
CARTESIAN COORDINATES (A.U.)
----------------------------
  NO LB      ZA    FRAG     MASS         X           Y           Z
   0 C     6.0000    0    12.011    3.710222   -3.305415   -3.584597
   1 N     7.0000    0    14.007    5.174997   -3.808120   -5.852696
   2 C     6.0000    0    12.011    1.156280    3.132474   -8.504312
   3 C     6.0000    0    12.011    3.203068    2.913568  -10.526619
   4 H     1.0000    0     1.008    5.097208    3.278030   -9.796333
   5 H     1.0000    0     1.008    2.847167    4.293910  -12.015023
   6 S    16.0000    0    32.060    3.364256   -0.062603  -12.148556
   7 C     6.0000    0    12.011    7.652892   -4.071825   -5.956500
   8 N     7.0000    0    14.007    8.802733   -3.753550   -8.161076
   9 C     6.0000    0    12.011    9.003091   -4.638210   -3.874866
  10 H     1.0000    0     1.008    8.101942   -5.246370   -2.300735
  11 H     1.0000    0     1.008   10.867484   -5.023556   -4.017536
  12 H     1.0000    0     1.008    4.431741   -3.194155   -7.504948
  13 H     1.0000    0     1.008    7.764891   -3.009723   -9.584237
  14 H     1.0000    0     1.008   10.675243   -4.075122   -8.366265
  15 F     9.0000    0    18.998    4.855249    0.403753  -14.375827
  16 O     8.0000    0    15.999    0.787789   -0.874885  -12.507332
  17 C     6.0000    0    12.011    3.946732   -0.568641   -2.674348
  18 H     1.0000    0     1.008    4.216494   -4.632882   -2.083694
  19 H     1.0000    0     1.008    1.757916   -3.737502   -4.073188
  20 C     6.0000    0    12.011    1.285686    1.238561   -6.326874
  21 H     1.0000    0     1.008   -0.674378    2.927622   -9.431864
  22 H     1.0000    0     1.008    1.228753    5.055845   -7.740318
  23 C     6.0000    0    12.011    3.720857    1.386269   -4.791692
  24 H     1.0000    0     1.008    5.766228   -0.318612   -1.723180
  25 H     1.0000    0     1.008    2.487826   -0.257439   -1.242026
  26 O     8.0000    0    15.999    4.734008   -1.763612  -10.360556
  27 H     1.0000    0     1.008    5.336955    1.180561   -6.063119
  28 H     1.0000    0     1.008    3.890793    3.269851   -3.955409
  29 H     1.0000    0     1.008    1.024707   -0.651447   -7.117959
  30 H     1.0000    0     1.008   -0.329227    1.567891   -5.074259

--------------------------------
INTERNAL COORDINATES (ANGSTROEM)
--------------------------------
 C      0   0   0     0.000000000000     0.00000000     0.00000000
 N      1   0   0     1.453316573840     0.00000000     0.00000000
 C      2   1   0     4.469997209231    81.66861305     0.00000000
 C      3   2   1     1.527021216669    79.64251634   166.12135406
 H      4   3   2     1.091429426821   112.94516578   291.55283625
 H      4   3   2     1.090587222827   109.44091494   172.19645502
 S      4   3   2     1.795638661190   115.79861088    54.44719017
 C      2   1   3     1.319793651653   125.70564975   125.09350255
 N      8   2   1     1.326492940223   118.61448699   200.38152835
 C      8   2   1     1.346756797244   121.10322660    20.01725842
 H     10   8   2     1.012350189617   119.59467170    13.56884806
 H     10   8   2     1.010272041928   120.12521212   173.22938336
 H      2   1   3     1.012281232535   116.57273408   332.44021856
 H      9   8   2     1.011792023943   117.06639684    10.99993176
 H      9   8   2     1.011241515739   121.50281050   185.08038097
 F      7   4   3     1.439642608659   105.48622831   163.81969223
 O      7   4   3     1.442112520958   106.22702210    38.41533571
 C      1   2   3     1.531364370737   112.91008412   309.77008032
 H      1   2   3     1.093643007341   110.58150833   184.66977938
 H      1   2   3     1.089246810669   105.74823995    70.75156459
 C      3   2   1     1.528661675104    37.19169818   353.30733645
 H      3   2   1     1.091392203112   118.80650564   270.92486636
 H      3   2   1     1.095830634114   129.10111041    61.64766166
 C     21   3   2     1.525339804606   113.93485678    68.35194369
 H     18   1   2     1.094489175769   109.32195284   283.03662940
 H     18   1   2     1.094360929868   107.60847921   167.76527056
 O      7   4   3     1.493611307442   104.40877094   280.72723475
 H     24  21   3     1.093569726740   109.14128749   305.09838428
 H     24  21   3     1.094275188126   109.35928518    60.61257975
 H     21   3   2     1.092985565182   107.79245554   304.75322685
 H     21   3   2     1.095466463975   108.47249356   190.17892582

---------------------------
INTERNAL COORDINATES (A.U.)
---------------------------
 C      0   0   0     0.000000000000     0.00000000     0.00000000
 N      1   0   0     2.746370310446     0.00000000     0.00000000
 C      2   1   0     8.447070544838    81.66861305     0.00000000
 C      3   2   1     2.885651900191    79.64251634   166.12135406
 H      4   3   2     2.062502711195   112.94516578   291.55283625
 H      4   3   2     2.060911176296   109.44091494   172.19645502
 S      4   3   2     3.393265305130   115.79861088    54.44719017
 C      2   1   3     2.494048554913   125.70564975   125.09350255
 N      8   2   1     2.506708375602   118.61448699   200.38152835
 C      8   2   1     2.545001515788   121.10322660    20.01725842
 H     10   8   2     1.913064609999   119.59467170    13.56884806
 H     10   8   2     1.909137480001   120.12521212   173.22938336
 H      2   1   3     1.912934300000   116.57273408   332.44021856
 H      9   8   2     1.912009829738   117.06639684    10.99993176
 H      9   8   2     1.910969519999   121.50281050   185.08038097
 F      7   4   3     2.720530261090   105.48622831   163.81969223
 O      7   4   3     2.725197718909   106.22702210    38.41533571
 C      1   2   3     2.893859271938   112.91008412   309.77008032
 H      1   2   3     2.066685772153   110.58150833   184.66977938
 H      1   2   3     2.058378164411   105.74823995    70.75156459
 C      3   2   1     2.888751917368    37.19169818   353.30733645
 H      3   2   1     2.062432368579   118.80650564   270.92486636
 H      3   2   1     2.070819787638   129.10111041    61.64766166
 C     21   3   2     2.882474491874   113.93485678    68.35194369
 H     18   1   2     2.068284798745   109.32195284   283.03662940
 H     18   1   2     2.068042449114   107.60847921   167.76527056
 O      7   4   3     2.822516321593   104.40877094   280.72723475
 H     24  21   3     2.066547291886   109.14128749   305.09838428
 H     24  21   3     2.067880420702   109.35928518    60.61257975
 H     21   3   2     2.065443386523   107.79245554   304.75322685
 H     21   3   2     2.070131605807   108.47249356   190.17892582

---------------------
BASIS SET INFORMATION
---------------------
There are 6 groups of distinct atoms

 Group   1 Type C   : 11s6p2d1f contracted to 5s3p2d1f pattern {62111/411/11/1}
 Group   2 Type N   : 11s6p2d1f contracted to 5s3p2d1f pattern {62111/411/11/1}
 Group   3 Type H   : 5s1p contracted to 3s1p pattern {311/1}
 Group   4 Type S   : 14s9p3d1f contracted to 5s5p2d1f pattern {73211/51111/21/1}
 Group   5 Type F   : 11s6p2d1f contracted to 5s3p2d1f pattern {62111/411/11/1}
 Group   6 Type O   : 11s6p2d1f contracted to 5s3p2d1f pattern {62111/411/11/1}

Atom   0C    basis set group =>   1
Atom   1N    basis set group =>   2
Atom   2C    basis set group =>   1
Atom   3C    basis set group =>   1
Atom   4H    basis set group =>   3
Atom   5H    basis set group =>   3
Atom   6S    basis set group =>   4
Atom   7C    basis set group =>   1
Atom   8N    basis set group =>   2
Atom   9C    basis set group =>   1
Atom  10H    basis set group =>   3
Atom  11H    basis set group =>   3
Atom  12H    basis set group =>   3
Atom  13H    basis set group =>   3
Atom  14H    basis set group =>   3
Atom  15F    basis set group =>   5
Atom  16O    basis set group =>   6
Atom  17C    basis set group =>   1
Atom  18H    basis set group =>   3
Atom  19H    basis set group =>   3
Atom  20C    basis set group =>   1
Atom  21H    basis set group =>   3
Atom  22H    basis set group =>   3
Atom  23C    basis set group =>   1
Atom  24H    basis set group =>   3
Atom  25H    basis set group =>   3
Atom  26O    basis set group =>   6
Atom  27H    basis set group =>   3
Atom  28H    basis set group =>   3
Atom  29H    basis set group =>   3
Atom  30H    basis set group =>   3
---------------------------------
AUXILIARY/J BASIS SET INFORMATION
---------------------------------
There are 6 groups of distinct atoms

 Group   1 Type C   : 12s5p4d2f1g contracted to 6s4p3d1f1g pattern {711111/2111/211/2/1}
 Group   2 Type N   : 12s5p4d2f1g contracted to 6s4p3d1f1g pattern {711111/2111/211/2/1}
 Group   3 Type H   : 5s2p1d contracted to 3s1p1d pattern {311/2/1}
 Group   4 Type S   : 14s5p5d2f1g contracted to 8s4p3d1f1g pattern {71111111/2111/311/2/1}
 Group   5 Type F   : 12s5p4d2f1g contracted to 6s4p3d1f1g pattern {711111/2111/211/2/1}
 Group   6 Type O   : 12s5p4d2f1g contracted to 6s4p3d1f1g pattern {711111/2111/211/2/1}

Atom   0C    basis set group =>   1
Atom   1N    basis set group =>   2
Atom   2C    basis set group =>   1
Atom   3C    basis set group =>   1
Atom   4H    basis set group =>   3
Atom   5H    basis set group =>   3
Atom   6S    basis set group =>   4
Atom   7C    basis set group =>   1
Atom   8N    basis set group =>   2
Atom   9C    basis set group =>   1
Atom  10H    basis set group =>   3
Atom  11H    basis set group =>   3
Atom  12H    basis set group =>   3
Atom  13H    basis set group =>   3
Atom  14H    basis set group =>   3
Atom  15F    basis set group =>   5
Atom  16O    basis set group =>   6
Atom  17C    basis set group =>   1
Atom  18H    basis set group =>   3
Atom  19H    basis set group =>   3
Atom  20C    basis set group =>   1
Atom  21H    basis set group =>   3
Atom  22H    basis set group =>   3
Atom  23C    basis set group =>   1
Atom  24H    basis set group =>   3
Atom  25H    basis set group =>   3
Atom  26O    basis set group =>   6
Atom  27H    basis set group =>   3
Atom  28H    basis set group =>   3
Atom  29H    basis set group =>   3
Atom  30H    basis set group =>   3


           ************************************************************
           *        Program running with 18 parallel MPI-processes    *
           *              working on a common directory               *
           ************************************************************
------------------------------------------------------------------------------
                           ORCA GTO INTEGRAL CALCULATION
                           -- RI-GTO INTEGRALS CHOSEN --
------------------------------------------------------------------------------
------------------------------------------------------------------------------
                   ___                                                        
                  /   \      - P O W E R E D   B Y -                         
                 /     \                                                     
                 |  |  |   _    _      __       _____    __    __             
                 |  |  |  | |  | |    /  \     |  _  \  |  |  /  |          
                  \  \/   | |  | |   /    \    | | | |  |  | /  /          
                 / \  \   | |__| |  /  /\  \   | |_| |  |  |/  /          
                |  |  |   |  __  | /  /__\  \  |    /   |      \           
                |  |  |   | |  | | |   __   |  |    \   |  |\   \          
                \     /   | |  | | |  |  |  |  | |\  \  |  | \   \       
                 \___/    |_|  |_| |__|  |__|  |_| \__\ |__|  \__/        
                                                                              
                      - O R C A' S   B I G   F R I E N D -                    
                                      &                                       
                       - I N T E G R A L  F E E D E R -                       
                                                                              
 v1 FN, 2020, v2 2021                                                         
------------------------------------------------------------------------------


Reading SHARK input file CAMB3LYP_D3_wb97.SHARKINP.tmp ... ok
----------------------
SHARK INTEGRAL PACKAGE
----------------------

Number of atoms                             ...     31
Number of basis functions                   ...    542
Number of shells                            ...    224
Maximum angular momentum                    ...      3
Integral batch strategy                     ... SHARK/LIBINT Hybrid
RI-J (if used) integral strategy            ... SPLIT-RIJ (Revised 2003 algorithm where possible)
Printlevel                                  ...      1
Contraction scheme used                     ... SEGMENTED contraction
Coulomb Range Separation                    ... NOT USED
Exchange Range Separation                   ... Long Range
   Mu parameter                             ...  0.330000
   Scaling (regular/separated)              ...  0.190000  0.460000
Finite Nucleus Model                        ... NOT USED
Auxiliary Coulomb fitting basis             ... AVAILABLE
   # of basis functions in Aux-J            ...    875
   # of shells in Aux-J                     ...    297
   Maximum angular momentum in Aux-J        ...      4
Auxiliary J/K fitting basis                 ... NOT available
Auxiliary Correlation fitting basis         ... NOT available
Auxiliary 'external' fitting basis          ... NOT available
Integral threshold                          ...     2.500000e-11
Primitive cut-off                           ...     2.500000e-12
Primitive pair pre-selection threshold      ...     2.500000e-12

Calculating pre-screening integrals         ... done (  0.3 sec) Dimension = 224
Organizing shell pair data                  ... done (  0.3 sec)
Shell pair information
Total number of shell pairs                 ...     25200
Shell pairs after pre-screening             ...     20476
Total number of primitive shell pairs       ...     76228
Primitive shell pairs kept                  ...     42857
          la=0 lb=0:   5876 shell pairs
          la=1 lb=0:   6089 shell pairs
          la=1 lb=1:   1623 shell pairs
          la=2 lb=0:   2716 shell pairs
          la=2 lb=1:   1438 shell pairs
          la=2 lb=2:    339 shell pairs
          la=3 lb=0:   1302 shell pairs
          la=3 lb=1:    695 shell pairs
          la=3 lb=2:    316 shell pairs
          la=3 lb=3:     82 shell pairs

Calculating one electron integrals          ... done (  0.0 sec)
Calculating RI/J V-Matrix + Cholesky decomp.... done (  0.1 sec)
Calculating Nuclear repulsion               ... done (  0.0 sec) ENN=   1189.382456172062 Eh

SHARK setup successfully completed in   0.9 seconds

Maximum memory used throughout the entire GTOINT-calculation: 31.9 MB


           ************************************************************
           *        Program running with 18 parallel MPI-processes    *
           *              working on a common directory               *
           ************************************************************
-------------------------------------------------------------------------------
                                 ORCA SCF
-------------------------------------------------------------------------------

------------
SCF SETTINGS
------------
Hamiltonian:
 Density Functional     Method          .... DFT(GTOs)
 Exchange Functional    Exchange        .... WB88
 Correlation Functional Correlation     .... LYP
 LDA part of GGA corr.  LDAOpt          .... VWN-5
 Gradients option       PostSCFGGA      .... off
 Hybrid DFT is turned on
   Fraction HF Exchange ScalHFX         ....  0.190000
   Scaling of DF-GGA-X  ScalDFX         ....  0.350000
   Scaling of DF-GGA-C  ScalDFC         ....  0.810000
   Scaling of DF-LDA-C  ScalLDAC        ....  1.000000
   Perturbative correction              ....  0.000000
   Density functional embedding theory  .... OFF
 Long-range corrected/Screened/Range-Separated Hybrid DFT is turned on
   Amount of maximum screened exact exchange              ....  0.460000
   Range separation parameter mu (erf(mu*r12)/r12)        ....  0.330000
 RI-approximation to the Coulomb term is turned on
   Number of AuxJ basis functions       .... 875
   RIJ-COSX (HFX calculated with COS-X)).... on


General Settings:
 Integral files         IntName         .... CAMB3LYP_D3_wb97
 Hartree-Fock type      HFTyp           .... RHF
 Total Charge           Charge          ....    0
 Multiplicity           Mult            ....    1
 Number of Electrons    NEL             ....  120
 Basis Dimension        Dim             ....  542
 Nuclear Repulsion      ENuc            ....   1189.3824561721 Eh

Convergence Acceleration:
 DIIS                   CNVDIIS         .... on
   Start iteration      DIISMaxIt       ....    12
   Startup error        DIISStart       ....  0.200000
   # of expansion vecs  DIISMaxEq       ....     5
   Bias factor          DIISBfac        ....   1.050
   Max. coefficient     DIISMaxC        ....  10.000
 Trust-Rad. Augm. Hess. CNVTRAH         .... auto
   Auto Start mean grad. ratio tolernc. ....  1.125000
   Auto Start start iteration           ....    20
   Auto Start num. interpolation iter.  ....    10
   Max. Number of Micro iterations      ....    16
   Max. Number of Macro iterations      .... Maxiter - #DIIS iter
   Number of Davidson start vectors     ....     2
   Converg. threshold I  (grad. norm)   ....   1.000e-05
   Converg. threshold II (energy diff.) ....   1.000e-08
   Grad. Scal. Fac. for Micro threshold ....   0.100
   Minimum threshold for Micro iter.    ....   0.010
   NR start threshold (gradient norm)   ....   0.001
   Initial trust radius                 ....   0.400
   Minimum AH scaling param. (alpha)    ....   1.000
   Maximum AH scaling param. (alpha)    .... 1000.000
   Orbital update algorithm             .... Taylor
   White noise on init. David. guess    .... on
   Maximum white noise                  ....   0.010
   Quad. conv. algorithm                .... NR
 SOSCF                  CNVSOSCF        .... on
   Start iteration      SOSCFMaxIt      ....   150
   Startup grad/error   SOSCFStart      ....  0.003300
 Level Shifting         CNVShift        .... on
   Level shift para.    LevelShift      ....    0.2500
   Turn off err/grad.   ShiftErr        ....    0.0010
 Zerner damping         CNVZerner       .... off
 Static damping         CNVDamp         .... on
   Fraction old density DampFac         ....    0.7000
   Max. Damping (<1)    DampMax         ....    0.9800
   Min. Damping (>=0)   DampMin         ....    0.0000
   Turn off err/grad.   DampErr         ....    0.1000
 Fernandez-Rico         CNVRico         .... off

SCF Procedure:
 Maximum # iterations   MaxIter         ....   150
 SCF integral mode      SCFMode         .... Direct
   Integral package                     .... SHARK and LIBINT hybrid scheme
 Reset frequency        DirectResetFreq ....    20
 Integral Threshold     Thresh          ....  2.500e-11 Eh
 Primitive CutOff       TCut            ....  2.500e-12 Eh

Convergence Tolerance:
 Convergence Check Mode ConvCheckMode   .... Total+1el-Energy
 Convergence forced     ConvForced      .... 0
 Energy Change          TolE            ....  1.000e-08 Eh
 1-El. energy change                    ....  1.000e-05 Eh
 Orbital Gradient       TolG            ....  1.000e-05
 Orbital Rotation angle TolX            ....  1.000e-05
 DIIS Error             TolErr          ....  5.000e-07


Diagonalization of the overlap matrix:
Smallest eigenvalue                        ... 7.316e-05
Time for diagonalization                   ...    0.084 sec
Threshold for overlap eigenvalues          ... 1.000e-08
Number of eigenvalues below threshold      ... 0
Time for construction of square roots      ...    0.242 sec
Total time needed                          ...    0.329 sec

Time for model grid setup =    0.181 sec

------------------------------
INITIAL GUESS: MODEL POTENTIAL
------------------------------
Loading Hartree-Fock densities                     ... done
Calculating cut-offs                               ... done
Initializing the effective Hamiltonian             ... done
Setting up the integral package (SHARK)            ... done
Starting the Coulomb interaction                   ... done (   0.2 sec)
Reading the grid                                   ... done
Mapping shells                                     ... done
Starting the XC term evaluation                    ... done (   0.1 sec)
  promolecular density results
     # of electrons  =    119.990823524
     EX              =   -110.514666417
     EC              =     -4.158636688
     EX+EC           =   -114.673303104
Transforming the Hamiltonian                       ... done (   0.0 sec)
Diagonalizing the Hamiltonian                      ... done (   0.1 sec)
Back transforming the eigenvectors                 ... done (   0.0 sec)
Now organizing SCF variables                       ... done
                      ------------------
                      INITIAL GUESS DONE (   0.7 sec)
                      ------------------
-------------------
DFT GRID GENERATION
-------------------

General Integration Accuracy     IntAcc      ... 4.388
Radial Grid Type                 RadialGrid  ... OptM3 with GC (2021)
Angular Grid (max. ang.)         AngularGrid ... 4 (Lebedev-302)
Angular grid pruning method      GridPruning ... 4 (adaptive)
Weight generation scheme         WeightScheme... Becke
Basis function cutoff            BFCut       ... 1.0000e-11
Integration weight cutoff        WCut        ... 1.0000e-14
Angular grids for H and He will be reduced by one unit
Partially contracted basis set               ... off
Rotationally invariant grid construction     ... off

Total number of grid points                  ...   138867
Total number of batches                      ...     2182
Average number of points per batch           ...       63
Average number of grid points per atom       ...     4480
Time for grid setup =    0.998 sec

--------------------
COSX GRID GENERATION
--------------------

GRIDX 1
-------
General Integration Accuracy     IntAcc      ... 3.816
Radial Grid Type                 RadialGrid  ... OptM3 with GC (2021)
Angular Grid (max. ang.)         AngularGrid ... 1 (Lebedev-50)
Angular grid pruning method      GridPruning ... 4 (adaptive)
Weight generation scheme         WeightScheme... Becke
Basis function cutoff            BFCut       ... 1.0000e-11
Integration weight cutoff        WCut        ... 1.0000e-14
Angular grids for H and He will be reduced by one unit
Partially contracted basis set               ... on
Rotationally invariant grid construction     ... off

Total number of grid points                  ...    17623
Total number of batches                      ...      296
Average number of points per batch           ...       59
Average number of grid points per atom       ...      568
UseSFitting                                  ... on

GRIDX 2
-------
General Integration Accuracy     IntAcc      ... 4.020
Radial Grid Type                 RadialGrid  ... OptM3 with GC (2021)
Angular Grid (max. ang.)         AngularGrid ... 2 (Lebedev-110)
Angular grid pruning method      GridPruning ... 4 (adaptive)
Weight generation scheme         WeightScheme... Becke
Basis function cutoff            BFCut       ... 1.0000e-11
Integration weight cutoff        WCut        ... 1.0000e-14
Angular grids for H and He will be reduced by one unit
Partially contracted basis set               ... on
Rotationally invariant grid construction     ... off

Total number of grid points                  ...    37368
Total number of batches                      ...      602
Average number of points per batch           ...       62
Average number of grid points per atom       ...     1205
UseSFitting                                  ... on

GRIDX 3
-------
General Integration Accuracy     IntAcc      ... 4.338
Radial Grid Type                 RadialGrid  ... OptM3 with GC (2021)
Angular Grid (max. ang.)         AngularGrid ... 3 (Lebedev-194)
Angular grid pruning method      GridPruning ... 4 (adaptive)
Weight generation scheme         WeightScheme... Becke
Basis function cutoff            BFCut       ... 1.0000e-11
Integration weight cutoff        WCut        ... 1.0000e-14
Angular grids for H and He will be reduced by one unit
Partially contracted basis set               ... on
Rotationally invariant grid construction     ... off

Total number of grid points                  ...    81936
Total number of batches                      ...     1298
Average number of points per batch           ...       63
Average number of grid points per atom       ...     2643
UseSFitting                                  ... on

Time for X-Grid setup             =    1.028 sec

--------------
SCF ITERATIONS
--------------
ITER       Energy         Delta-E        Max-DP      RMS-DP      [F,P]     Damp
               ***  Starting incremental Fock matrix formation  ***
  0  -1072.3663957094   0.000000000000 0.13762654  0.00096171  0.2749284 0.7000
  1  -1072.6493596252  -0.282963915766 0.06422500  0.00071275  0.1448181 0.7000
                               ***Turning on DIIS***
  2  -1072.7656471824  -0.116287557266 0.08171378  0.00127135  0.0670571 0.0000
  3  -1072.9543093802  -0.188662197726 0.05712075  0.00047419  0.0695063 0.0000
  4  -1072.9903038714  -0.035994491234 0.01582905  0.00015919  0.0165858 0.0000
  5  -1072.9919572716  -0.001653400224 0.00418817  0.00005256  0.0079853 0.0000
                      *** Initiating the SOSCF procedure ***
                           *** Shutting down DIIS ***
                      *** Re-Reading the Fockian *** 
                      *** Removing any level shift *** 
ITER      Energy       Delta-E        Grad      Rot      Max-DP    RMS-DP
  6  -1072.99214222  -0.0001849440  0.000537  0.000537  0.002583  0.000038
               *** Restarting incremental Fock matrix formation ***
  7  -1072.99217846  -0.0000362403  0.000097  0.000280  0.000702  0.000015
  8  -1072.99217865  -0.0000001915  0.000241  0.000343  0.000292  0.000004
  9  -1072.99218118  -0.0000025375  0.000017  0.000061  0.000144  0.000002
 10  -1072.99218120  -0.0000000142  0.000021  0.000018  0.000066  0.000001
 11  -1072.99218124  -0.0000000379  0.000005  0.000014  0.000031  0.000000
 12  -1072.99218123   0.0000000066  0.000003  0.000002  0.000015  0.000000
                  ***Gradient check signals convergence***
              ***Rediagonalizing the Fockian in SOSCF/NRSCF***

               *****************************************************
               *                     SUCCESS                       *
               *           SCF CONVERGED AFTER  13 CYCLES          *
               *****************************************************

Old exchange energy                            =    -30.873662287 Eh
New exchange energy                            =    -30.873638674 Eh
Exchange energy change after final integration =      0.000023613 Eh
Total energy after final integration           =  -1072.992157633 Eh
Final COS-X integration done in                =    11.836 sec

----------------
TOTAL SCF ENERGY
----------------

Total Energy       :        -1072.99215763 Eh          -29197.60099 eV

Components:
Nuclear Repulsion  :         1189.38245617 Eh           32364.74202 eV
Electronic Energy  :        -2262.37461381 Eh          -61562.34301 eV
One Electron Energy:        -3832.81692160 Eh         -104296.25076 eV
Two Electron Energy:         1570.44230780 Eh           42733.90775 eV
Max COSX asymmetry :            0.00000796 Eh               0.00022 eV

Virial components:
Potential Energy   :        -2143.04653271 Eh          -58315.26085 eV
Kinetic Energy     :         1070.05437507 Eh           29117.65986 eV
Virial Ratio       :            2.00274545


DFT components:
N(Alpha)           :       59.999967108915 electrons
N(Beta)            :       59.999967108915 electrons
N(Total)           :      119.999934217830 electrons
E(XC)              :      -86.296576465600 Eh       
DFET-embed. en.    :        0.000000000000 Eh       

---------------
SCF CONVERGENCE
---------------

  Last Energy change         ...   -1.5937e-08  Tolerance :   1.0000e-08
  Last MAX-Density change    ...    1.5543e-15  Tolerance :   1.0000e-07
  Last RMS-Density change    ...    1.3637e-17  Tolerance :   5.0000e-09
  Last Orbital Gradient      ...    4.0203e-07  Tolerance :   1.0000e-05
  Last Orbital Rotation      ...    1.1677e-06  Tolerance :   1.0000e-05

             **** THE GBW FILE WAS UPDATED (CAMB3LYP_D3_wb97.gbw) ****
             **** DENSITY CAMB3LYP_D3_wb97.scfp WAS UPDATED ****
             **** ENERGY FILE WAS UPDATED (CAMB3LYP_D3_wb97.en.tmp) ****
             **** THE GBW FILE WAS UPDATED (CAMB3LYP_D3_wb97.gbw) ****
             **** DENSITY CAMB3LYP_D3_wb97.scfp WAS UPDATED ****
----------------
ORBITAL ENERGIES
----------------

  NO   OCC          E(Eh)            E(eV) 
   0   2.0000     -89.208331     -2427.4821 
   1   2.0000     -24.906560      -677.7420 
   2   2.0000     -19.239668      -523.5380 
   3   2.0000     -19.231013      -523.3025 
   4   2.0000     -14.354269      -390.5995 
   5   2.0000     -14.353649      -390.5826 
   6   2.0000     -10.322511      -280.8898 
   7   2.0000     -10.281714      -279.7796 
   8   2.0000     -10.266016      -279.3525 
   9   2.0000     -10.258297      -279.1425 
  10   2.0000     -10.252576      -278.9868 
  11   2.0000     -10.240207      -278.6502 
  12   2.0000     -10.228822      -278.3404 
  13   2.0000     -10.128883      -275.6209 
  14   2.0000      -8.252379      -224.5587 
  15   2.0000      -6.220041      -169.2559 
  16   2.0000      -6.213923      -169.0895 
  17   2.0000      -6.213330      -169.0733 
  18   2.0000      -1.497251       -40.7423 
  19   2.0000      -1.218457       -33.1559 
  20   2.0000      -1.120466       -30.4894 
  21   2.0000      -1.029063       -28.0022 
  22   2.0000      -0.944106       -25.6904 
  23   2.0000      -0.934102       -25.4182 
  24   2.0000      -0.879741       -23.9390 
  25   2.0000      -0.842484       -22.9252 
  26   2.0000      -0.805241       -21.9117 
  27   2.0000      -0.768435       -20.9102 
  28   2.0000      -0.758013       -20.6266 
  29   2.0000      -0.717041       -19.5117 
  30   2.0000      -0.694481       -18.8978 
  31   2.0000      -0.682148       -18.5622 
  32   2.0000      -0.666222       -18.1288 
  33   2.0000      -0.646638       -17.5959 
  34   2.0000      -0.613410       -16.6917 
  35   2.0000      -0.595754       -16.2113 
  36   2.0000      -0.588875       -16.0241 
  37   2.0000      -0.580090       -15.7851 
  38   2.0000      -0.567688       -15.4476 
  39   2.0000      -0.550818       -14.9885 
  40   2.0000      -0.532030       -14.4773 
  41   2.0000      -0.525985       -14.3128 
  42   2.0000      -0.510195       -13.8831 
  43   2.0000      -0.493594       -13.4314 
  44   2.0000      -0.489183       -13.3114 
  45   2.0000      -0.485056       -13.1990 
  46   2.0000      -0.457518       -12.4497 
  47   2.0000      -0.452885       -12.3236 
  48   2.0000      -0.438554       -11.9337 
  49   2.0000      -0.433825       -11.8050 
  50   2.0000      -0.430294       -11.7089 
  51   2.0000      -0.417468       -11.3599 
  52   2.0000      -0.415256       -11.2997 
  53   2.0000      -0.407919       -11.1000 
  54   2.0000      -0.401754       -10.9323 
  55   2.0000      -0.394288       -10.7291 
  56   2.0000      -0.390185       -10.6175 
  57   2.0000      -0.378324       -10.2947 
  58   2.0000      -0.286974        -7.8090 
  59   2.0000      -0.197897        -5.3850 
  60   0.0000       0.043264         1.1773 
  61   0.0000       0.051960         1.4139 
  62   0.0000       0.079201         2.1552 
  63   0.0000       0.084797         2.3074 
  64   0.0000       0.088903         2.4192 
  65   0.0000       0.093764         2.5515 
  66   0.0000       0.103418         2.8141 
  67   0.0000       0.107828         2.9341 
  68   0.0000       0.116143         3.1604 
  69   0.0000       0.125535         3.4160 
  70   0.0000       0.136473         3.7136 
  71   0.0000       0.141012         3.8371 
  72   0.0000       0.145217         3.9516 
  73   0.0000       0.154907         4.2152 
  74   0.0000       0.157370         4.2823 
  75   0.0000       0.164971         4.4891 
  76   0.0000       0.174043         4.7359 
  77   0.0000       0.177470         4.8292 
  78   0.0000       0.182136         4.9562 
  79   0.0000       0.199087         5.4174 
  80   0.0000       0.206080         5.6077 
  81   0.0000       0.214952         5.8491 
  82   0.0000       0.221384         6.0242 
  83   0.0000       0.227221         6.1830 
  84   0.0000       0.232914         6.3379 
  85   0.0000       0.243387         6.6229 
  86   0.0000       0.251115         6.8332 
  87   0.0000       0.251466         6.8427 
  88   0.0000       0.256684         6.9847 
  89   0.0000       0.266190         7.2434 
  90   0.0000       0.276755         7.5309 
  91   0.0000       0.288165         7.8414 
  92   0.0000       0.294119         8.0034 
  93   0.0000       0.298050         8.1104 
  94   0.0000       0.310804         8.4574 
  95   0.0000       0.315143         8.5755 
  96   0.0000       0.320137         8.7114 
  97   0.0000       0.333165         9.0659 
  98   0.0000       0.344190         9.3659 
  99   0.0000       0.348018         9.4700 
 100   0.0000       0.358701         9.7608 
 101   0.0000       0.371802        10.1172 
 102   0.0000       0.376608        10.2480 
 103   0.0000       0.385415        10.4877 
 104   0.0000       0.390829        10.6350 
 105   0.0000       0.403009        10.9664 
 106   0.0000       0.409579        11.1452 
 107   0.0000       0.416514        11.3339 
 108   0.0000       0.421587        11.4720 
 109   0.0000       0.422845        11.5062 
 110   0.0000       0.426556        11.6072 
 111   0.0000       0.431834        11.7508 
 112   0.0000       0.444050        12.0832 
 113   0.0000       0.450440        12.2571 
 114   0.0000       0.456720        12.4280 
 115   0.0000       0.464394        12.6368 
 116   0.0000       0.472079        12.8459 
 117   0.0000       0.475928        12.9507 
 118   0.0000       0.479016        13.0347 
 119   0.0000       0.489154        13.3106 
 120   0.0000       0.491768        13.3817 
 121   0.0000       0.492869        13.4116 
 122   0.0000       0.500451        13.6180 
 123   0.0000       0.503030        13.6881 
 124   0.0000       0.508989        13.8503 
 125   0.0000       0.512011        13.9325 
 126   0.0000       0.516216        14.0470 
 127   0.0000       0.522558        14.2195 
 128   0.0000       0.525427        14.2976 
 129   0.0000       0.529133        14.3984 
 130   0.0000       0.543297        14.7839 
 131   0.0000       0.547488        14.8979 
 132   0.0000       0.552200        15.0261 
 133   0.0000       0.558499        15.1975 
 134   0.0000       0.573796        15.6138 
 135   0.0000       0.581948        15.8356 
 136   0.0000       0.592649        16.1268 
 137   0.0000       0.608584        16.5604 
 138   0.0000       0.614334        16.7169 
 139   0.0000       0.623923        16.9778 
 140   0.0000       0.627583        17.0774 
 141   0.0000       0.635888        17.3034 
 142   0.0000       0.645437        17.5632 
 143   0.0000       0.650160        17.6917 
 144   0.0000       0.662041        18.0151 
 145   0.0000       0.666375        18.1330 
 146   0.0000       0.673821        18.3356 
 147   0.0000       0.683402        18.5963 
 148   0.0000       0.689203        18.7542 
 149   0.0000       0.703456        19.1420 
 150   0.0000       0.713899        19.4262 
 151   0.0000       0.725709        19.7475 
 152   0.0000       0.737745        20.0751 
 153   0.0000       0.741382        20.1740 
 154   0.0000       0.766825        20.8664 
 155   0.0000       0.768562        20.9136 
 156   0.0000       0.783504        21.3202 
 157   0.0000       0.788541        21.4573 
 158   0.0000       0.799714        21.7613 
 159   0.0000       0.810524        22.0555 
 160   0.0000       0.814860        22.1735 
 161   0.0000       0.829695        22.5772 
 162   0.0000       0.854028        23.2393 
 163   0.0000       0.866022        23.5657 
 164   0.0000       0.873100        23.7583 
 165   0.0000       0.875963        23.8362 
 166   0.0000       0.888465        24.1763 
 167   0.0000       0.895100        24.3569 
 168   0.0000       0.898440        24.4478 
 169   0.0000       0.911213        24.7954 
 170   0.0000       0.920027        25.0352 
 171   0.0000       0.929905        25.3040 
 172   0.0000       0.933141        25.3921 
 173   0.0000       0.960278        26.1305 
 174   0.0000       0.970591        26.4111 
 175   0.0000       0.974018        26.5044 
 176   0.0000       0.990201        26.9447 
 177   0.0000       0.995345        27.0847 
 178   0.0000       1.006209        27.3803 
 179   0.0000       1.033770        28.1303 
 180   0.0000       1.048657        28.5354 
 181   0.0000       1.060161        28.8485 
 182   0.0000       1.065374        28.9903 
 183   0.0000       1.091270        29.6950 
 184   0.0000       1.105849        30.0917 
 185   0.0000       1.109253        30.1843 
 186   0.0000       1.123485        30.5716 
 187   0.0000       1.137230        30.9456 
 188   0.0000       1.154792        31.4235 
 189   0.0000       1.159175        31.5428 
 190   0.0000       1.174547        31.9610 
 191   0.0000       1.183523        32.2053 
 192   0.0000       1.191262        32.4159 
 193   0.0000       1.214509        33.0485 
 194   0.0000       1.222118        33.2555 
 195   0.0000       1.235979        33.6327 
 196   0.0000       1.244801        33.8728 
 197   0.0000       1.249775        34.0081 
 198   0.0000       1.265963        34.4486 
 199   0.0000       1.272430        34.6246 
 200   0.0000       1.277538        34.7636 
 201   0.0000       1.304009        35.4839 
 202   0.0000       1.315850        35.8061 
 203   0.0000       1.326584        36.0982 
 204   0.0000       1.350992        36.7624 
 205   0.0000       1.354487        36.8575 
 206   0.0000       1.363172        37.0938 
 207   0.0000       1.376956        37.4689 
 208   0.0000       1.400299        38.1041 
 209   0.0000       1.413211        38.4554 
 210   0.0000       1.421884        38.6914 
 211   0.0000       1.426830        38.8260 
 212   0.0000       1.434834        39.0438 
 213   0.0000       1.445074        39.3225 
 214   0.0000       1.456891        39.6440 
 215   0.0000       1.471035        40.0289 
 216   0.0000       1.493289        40.6345 
 217   0.0000       1.508426        41.0464 
 218   0.0000       1.545900        42.0661 
 219   0.0000       1.558181        42.4003 
 220   0.0000       1.562572        42.5198 
 221   0.0000       1.567299        42.6484 
 222   0.0000       1.573351        42.8131 
 223   0.0000       1.589117        43.2421 
 224   0.0000       1.594864        43.3985 
 225   0.0000       1.611232        43.8438 
 226   0.0000       1.617503        44.0145 
 227   0.0000       1.621950        44.1355 
 228   0.0000       1.632910        44.4337 
 229   0.0000       1.638377        44.5825 
 230   0.0000       1.646828        44.8125 
 231   0.0000       1.648714        44.8638 
 232   0.0000       1.657819        45.1116 
 233   0.0000       1.670915        45.4679 
 234   0.0000       1.679281        45.6955 
 235   0.0000       1.696644        46.1680 
 236   0.0000       1.698698        46.2239 
 237   0.0000       1.714783        46.6616 
 238   0.0000       1.718189        46.7543 
 239   0.0000       1.725677        46.9581 
 240   0.0000       1.731655        47.1207 
 241   0.0000       1.743271        47.4368 
 242   0.0000       1.756240        47.7897 
 243   0.0000       1.764016        48.0013 
 244   0.0000       1.769683        48.1555 
 245   0.0000       1.786300        48.6077 
 246   0.0000       1.791624        48.7526 
 247   0.0000       1.805174        49.1213 
 248   0.0000       1.821954        49.5779 
 249   0.0000       1.830510        49.8107 
 250   0.0000       1.842969        50.1497 
 251   0.0000       1.868627        50.8479 
 252   0.0000       1.873156        50.9712 
 253   0.0000       1.883904        51.2636 
 254   0.0000       1.891532        51.4712 
 255   0.0000       1.906365        51.8748 
 256   0.0000       1.908539        51.9340 
 257   0.0000       1.921609        52.2896 
 258   0.0000       1.937189        52.7136 
 259   0.0000       1.949229        53.0412 
 260   0.0000       1.955500        53.2119 
 261   0.0000       1.963510        53.4298 
 262   0.0000       1.981247        53.9125 
 263   0.0000       1.988266        54.1035 
 264   0.0000       2.007586        54.6292 
 265   0.0000       2.022301        55.0296 
 266   0.0000       2.028904        55.2093 
 267   0.0000       2.046537        55.6891 
 268   0.0000       2.060413        56.0667 
 269   0.0000       2.064474        56.1772 
 270   0.0000       2.076899        56.5153 
 271   0.0000       2.088971        56.8438 
 272   0.0000       2.107840        57.3572 
 273   0.0000       2.120893        57.7124 
 274   0.0000       2.138288        58.1858 
 275   0.0000       2.143351        58.3236 
 276   0.0000       2.149668        58.4954 
 277   0.0000       2.164878        58.9093 
 278   0.0000       2.174431        59.1693 
 279   0.0000       2.180472        59.3337 
 280   0.0000       2.212061        60.1932 
 281   0.0000       2.219195        60.3874 
 282   0.0000       2.237585        60.8878 
 283   0.0000       2.252355        61.2897 
 284   0.0000       2.259913        61.4954 
 285   0.0000       2.274562        61.8940 
 286   0.0000       2.284435        62.1626 
 287   0.0000       2.293291        62.4036 
 288   0.0000       2.305120        62.7255 
 289   0.0000       2.337315        63.6016 
 290   0.0000       2.349228        63.9257 
 291   0.0000       2.363141        64.3043 
 292   0.0000       2.366483        64.3953 
 293   0.0000       2.377461        64.6940 
 294   0.0000       2.390211        65.0409 
 295   0.0000       2.402246        65.3684 
 296   0.0000       2.408829        65.5476 
 297   0.0000       2.418365        65.8071 
 298   0.0000       2.455235        66.8103 
 299   0.0000       2.459424        66.9243 
 300   0.0000       2.466635        67.1205 
 301   0.0000       2.478606        67.4463 
 302   0.0000       2.491434        67.7954 
 303   0.0000       2.498164        67.9785 
 304   0.0000       2.511583        68.3436 
 305   0.0000       2.521849        68.6230 
 306   0.0000       2.542210        69.1771 
 307   0.0000       2.557719        69.5991 
 308   0.0000       2.569033        69.9069 
 309   0.0000       2.581434        70.2444 
 310   0.0000       2.587444        70.4079 
 311   0.0000       2.595574        70.6292 
 312   0.0000       2.610608        71.0383 
 313   0.0000       2.623356        71.3852 
 314   0.0000       2.629323        71.5475 
 315   0.0000       2.634874        71.6986 
 316   0.0000       2.648338        72.0649 
 317   0.0000       2.667270        72.5801 
 318   0.0000       2.673542        72.7508 
 319   0.0000       2.674640        72.7807 
 320   0.0000       2.682754        73.0014 
 321   0.0000       2.690470        73.2114 
 322   0.0000       2.695927        73.3599 
 323   0.0000       2.703394        73.5631 
 324   0.0000       2.710191        73.7481 
 325   0.0000       2.713029        73.8253 
 326   0.0000       2.718084        73.9628 
 327   0.0000       2.726695        74.1971 
 328   0.0000       2.753219        74.9189 
 329   0.0000       2.755314        74.9759 
 330   0.0000       2.764695        75.2312 
 331   0.0000       2.774561        75.4997 
 332   0.0000       2.788014        75.8657 
 333   0.0000       2.805988        76.3548 
 334   0.0000       2.812106        76.5213 
 335   0.0000       2.817824        76.6769 
 336   0.0000       2.822806        76.8124 
 337   0.0000       2.827792        76.9481 
 338   0.0000       2.849533        77.5397 
 339   0.0000       2.855876        77.7123 
 340   0.0000       2.867343        78.0244 
 341   0.0000       2.880695        78.3877 
 342   0.0000       2.897788        78.8528 
 343   0.0000       2.904906        79.0465 
 344   0.0000       2.911156        79.2166 
 345   0.0000       2.925248        79.6001 
 346   0.0000       2.943369        80.0931 
 347   0.0000       2.956706        80.4561 
 348   0.0000       2.965370        80.6918 
 349   0.0000       2.995394        81.5088 
 350   0.0000       3.010394        81.9170 
 351   0.0000       3.017964        82.1230 
 352   0.0000       3.033993        82.5591 
 353   0.0000       3.061426        83.3056 
 354   0.0000       3.067383        83.4677 
 355   0.0000       3.078723        83.7763 
 356   0.0000       3.086562        83.9896 
 357   0.0000       3.095915        84.2441 
 358   0.0000       3.111057        84.6562 
 359   0.0000       3.123720        85.0008 
 360   0.0000       3.125710        85.0549 
 361   0.0000       3.131886        85.2229 
 362   0.0000       3.157877        85.9302 
 363   0.0000       3.187395        86.7334 
 364   0.0000       3.193339        86.8952 
 365   0.0000       3.202859        87.1542 
 366   0.0000       3.213091        87.4327 
 367   0.0000       3.231682        87.9385 
 368   0.0000       3.244268        88.2810 
 369   0.0000       3.247470        88.3681 
 370   0.0000       3.269069        88.9559 
 371   0.0000       3.278092        89.2014 
 372   0.0000       3.287324        89.4526 
 373   0.0000       3.289726        89.5180 
 374   0.0000       3.303504        89.8929 
 375   0.0000       3.320102        90.3446 
 376   0.0000       3.339603        90.8752 
 377   0.0000       3.340586        90.9020 
 378   0.0000       3.352083        91.2148 
 379   0.0000       3.365612        91.5829 
 380   0.0000       3.369042        91.6763 
 381   0.0000       3.381373        92.0118 
 382   0.0000       3.386201        92.1432 
 383   0.0000       3.405510        92.6686 
 384   0.0000       3.406991        92.7089 
 385   0.0000       3.419963        93.0619 
 386   0.0000       3.425375        93.2092 
 387   0.0000       3.438203        93.5583 
 388   0.0000       3.440924        93.6323 
 389   0.0000       3.450312        93.8878 
 390   0.0000       3.464422        94.2717 
 391   0.0000       3.469699        94.4153 
 392   0.0000       3.475541        94.5743 
 393   0.0000       3.492767        95.0430 
 394   0.0000       3.500550        95.2548 
 395   0.0000       3.516954        95.7012 
 396   0.0000       3.525889        95.9443 
 397   0.0000       3.528699        96.0208 
 398   0.0000       3.541673        96.3738 
 399   0.0000       3.567075        97.0651 
 400   0.0000       3.572087        97.2014 
 401   0.0000       3.576748        97.3283 
 402   0.0000       3.584881        97.5496 
 403   0.0000       3.614566        98.3573 
 404   0.0000       3.624895        98.6384 
 405   0.0000       3.625566        98.6567 
 406   0.0000       3.637625        98.9848 
 407   0.0000       3.654667        99.4486 
 408   0.0000       3.679435       100.1225 
 409   0.0000       3.691571       100.4527 
 410   0.0000       3.710439       100.9662 
 411   0.0000       3.731564       101.5410 
 412   0.0000       3.771378       102.6244 
 413   0.0000       3.790493       103.1445 
 414   0.0000       3.804084       103.5144 
 415   0.0000       3.813994       103.7841 
 416   0.0000       3.848563       104.7247 
 417   0.0000       3.860328       105.0449 
 418   0.0000       3.871883       105.3593 
 419   0.0000       3.886593       105.7596 
 420   0.0000       3.921797       106.7175 
 421   0.0000       3.924245       106.7841 
 422   0.0000       3.934863       107.0731 
 423   0.0000       3.953361       107.5764 
 424   0.0000       3.964909       107.8907 
 425   0.0000       3.994827       108.7048 
 426   0.0000       4.005828       109.0041 
 427   0.0000       4.018823       109.3577 
 428   0.0000       4.039646       109.9244 
 429   0.0000       4.050320       110.2148 
 430   0.0000       4.077673       110.9591 
 431   0.0000       4.100664       111.5847 
 432   0.0000       4.112653       111.9110 
 433   0.0000       4.123954       112.2185 
 434   0.0000       4.147370       112.8557 
 435   0.0000       4.168583       113.4329 
 436   0.0000       4.186928       113.9321 
 437   0.0000       4.213247       114.6483 
 438   0.0000       4.233406       115.1968 
 439   0.0000       4.279088       116.4399 
 440   0.0000       4.289628       116.7267 
 441   0.0000       4.306629       117.1893 
 442   0.0000       4.361771       118.6898 
 443   0.0000       4.372058       118.9698 
 444   0.0000       4.419494       120.2605 
 445   0.0000       4.428195       120.4973 
 446   0.0000       4.457999       121.3083 
 447   0.0000       4.466429       121.5377 
 448   0.0000       4.502667       122.5238 
 449   0.0000       4.527678       123.2044 
 450   0.0000       4.550387       123.8223 
 451   0.0000       4.595126       125.0397 
 452   0.0000       4.600714       125.1918 
 453   0.0000       4.625695       125.8716 
 454   0.0000       4.643394       126.3532 
 455   0.0000       4.663291       126.8946 
 456   0.0000       4.677887       127.2918 
 457   0.0000       4.691165       127.6531 
 458   0.0000       4.734380       128.8290 
 459   0.0000       4.762945       129.6063 
 460   0.0000       4.788517       130.3022 
 461   0.0000       4.810188       130.8919 
 462   0.0000       4.825145       131.2989 
 463   0.0000       4.852750       132.0500 
 464   0.0000       4.882503       132.8597 
 465   0.0000       4.916863       133.7946 
 466   0.0000       4.929731       134.1448 
 467   0.0000       4.943860       134.5293 
 468   0.0000       5.029375       136.8563 
 469   0.0000       5.060564       137.7049 
 470   0.0000       5.081789       138.2825 
 471   0.0000       5.132140       139.6526 
 472   0.0000       5.172274       140.7447 
 473   0.0000       5.177637       140.8907 
 474   0.0000       5.183374       141.0468 
 475   0.0000       5.190218       141.2330 
 476   0.0000       5.209671       141.7624 
 477   0.0000       5.220923       142.0685 
 478   0.0000       5.226162       142.2111 
 479   0.0000       5.232790       142.3914 
 480   0.0000       5.248252       142.8122 
 481   0.0000       5.270448       143.4162 
 482   0.0000       5.296533       144.1260 
 483   0.0000       5.320002       144.7646 
 484   0.0000       5.351401       145.6190 
 485   0.0000       5.371173       146.1571 
 486   0.0000       5.402747       147.0162 
 487   0.0000       5.416796       147.3985 
 488   0.0000       5.438598       147.9918 
 489   0.0000       5.482515       149.1868 
 490   0.0000       5.490575       149.4062 
 491   0.0000       5.529024       150.4524 
 492   0.0000       5.530610       150.4956 
 493   0.0000       5.586989       152.0297 
 494   0.0000       5.605154       152.5240 
 495   0.0000       5.631565       153.2427 
 496   0.0000       5.656697       153.9266 
 497   0.0000       5.756738       156.6488 
 498   0.0000       5.828938       158.6135 
 499   0.0000       5.895310       160.4195 
 500   0.0000       6.048312       164.5829 
 501   0.0000       6.212187       169.0422 
 502   0.0000       6.334354       172.3665 
 503   0.0000       6.339805       172.5149 
 504   0.0000       6.399863       174.1491 
 505   0.0000       6.437937       175.1852 
 506   0.0000       6.498746       176.8399 
 507   0.0000       6.658368       181.1834 
 508   0.0000       6.725894       183.0209 
 509   0.0000       6.755972       183.8393 
 510   0.0000       6.796516       184.9426 
 511   0.0000       6.815930       185.4709 
 512   0.0000       6.867821       186.8829 
 513   0.0000       6.883421       187.3074 
 514   0.0000       6.890898       187.5109 
 515   0.0000       6.917667       188.2393 
 516   0.0000       6.952690       189.1923 
 517   0.0000       7.056309       192.0119 
 518   0.0000       7.068989       192.3570 
 519   0.0000       7.128441       193.9747 
 520   0.0000       8.277771       225.2496 
 521   0.0000       8.287728       225.5205 
 522   0.0000       8.648116       235.3272 
 523   0.0000       8.680739       236.2149 
 524   0.0000       8.740644       237.8450 
 525   0.0000       9.386226       255.4122 
 526   0.0000       9.587375       260.8857 
 527   0.0000       9.776258       266.0255 
 528   0.0000      22.176817       603.4619 
 529   0.0000      22.508429       612.4855 
 530   0.0000      22.538533       613.3047 
 531   0.0000      22.584587       614.5579 
 532   0.0000      22.590742       614.7254 
 533   0.0000      22.608699       615.2140 
 534   0.0000      22.662334       616.6735 
 535   0.0000      22.761946       619.3840 
 536   0.0000      23.552865       640.9060 
 537   0.0000      32.160287       875.1259 
 538   0.0000      32.765944       891.6067 
 539   0.0000      43.560662      1185.3459 
 540   0.0000      43.763336      1190.8609 
 541   0.0000      57.085936      1553.3873 

                    ********************************
                    * MULLIKEN POPULATION ANALYSIS *
                    ********************************

-----------------------
MULLIKEN ATOMIC CHARGES
-----------------------
   0 C :   -0.224759
   1 N :   -0.253194
   2 C :   -0.190032
   3 C :   -0.305736
   4 H :    0.174355
   5 H :    0.162186
   6 S :    0.893729
   7 C :    0.311955
   8 N :   -0.464390
   9 C :   -0.543526
  10 H :    0.078769
  11 H :    0.069987
  12 H :    0.226931
  13 H :    0.230558
  14 H :    0.223215
  15 F :   -0.094710
  16 O :   -0.389384
  17 C :   -0.117894
  18 H :    0.130202
  19 H :    0.134891
  20 C :   -0.266697
  21 H :    0.144840
  22 H :    0.129975
  23 C :   -0.262170
  24 H :    0.125360
  25 H :    0.093046
  26 O :   -0.507827
  27 H :    0.127204
  28 H :    0.104359
  29 H :    0.144007
  30 H :    0.114750
Sum of atomic charges:    0.0000000

--------------------------------
MULLIKEN REDUCED ORBITAL CHARGES
--------------------------------
  0 C s       :     3.279329  s :     3.279329
      pz      :     0.880004  p :     2.823447
      px      :     0.996522
      py      :     0.946921
      dz2     :     0.018775  d :     0.113703
      dxz     :     0.015784
      dyz     :     0.041488
      dx2y2   :     0.017420
      dxy     :     0.020237
      f0      :     0.000966  f :     0.008280
      f+1     :     0.001211
      f-1     :     0.001469
      f+2     :     0.001724
      f-2     :     0.001274
      f+3     :     0.000982
      f-3     :     0.000654
  1 N s       :     3.409471  s :     3.409471
      pz      :     1.088808  p :     3.783347
      px      :     1.062175
      py      :     1.632364
      dz2     :     0.010947  d :     0.056368
      dxz     :     0.016565
      dyz     :     0.008297
      dx2y2   :     0.009426
      dxy     :     0.011134
      f0      :     0.000601  f :     0.004008
      f+1     :     0.000596
      f-1     :     0.000357
      f+2     :     0.000750
      f-2     :     0.000346
      f+3     :     0.000577
      f-3     :     0.000781
  2 C s       :     3.231207  s :     3.231207
      pz      :     0.901886  p :     2.858171
      px      :     0.955381
      py      :     1.000904
      dz2     :     0.024625  d :     0.094874
      dxz     :     0.025154
      dyz     :     0.013774
      dx2y2   :     0.023752
      dxy     :     0.007568
      f0      :     0.000869  f :     0.005779
      f+1     :     0.000817
      f-1     :     0.000621
      f+2     :     0.001778
      f-2     :     0.001035
      f+3     :     0.000293
      f-3     :     0.000366
  3 C s       :     3.254789  s :     3.254789
      pz      :     1.006937  p :     2.961536
      px      :     1.054164
      py      :     0.900436
      dz2     :     0.018171  d :     0.084537
      dxz     :     0.004591
      dyz     :     0.028358
      dx2y2   :     0.023281
      dxy     :     0.010137
      f0      :     0.000498  f :     0.004873
      f+1     :     0.000696
      f-1     :     0.000372
      f+2     :     0.001606
      f-2     :     0.000798
      f+3     :     0.000388
      f-3     :     0.000516
  4 H s       :     0.803316  s :     0.803316
      pz      :     0.005750  p :     0.022329
      px      :     0.012219
      py      :     0.004360
  5 H s       :     0.815599  s :     0.815599
      pz      :     0.008649  p :     0.022215
      px      :     0.004625
      py      :     0.008941
  6 S s       :     5.395252  s :     5.395252
      pz      :     2.781703  p :     8.485460
      px      :     2.748857
      py      :     2.954900
      dz2     :     0.193710  d :     1.098492
      dxz     :     0.256090
      dyz     :     0.185517
      dx2y2   :     0.255877
      dxy     :     0.207298
      f0      :     0.021613  f :     0.127067
      f+1     :     0.019851
      f-1     :     0.014604
      f+2     :     0.022412
      f-2     :     0.015883
      f+3     :     0.016697
      f-3     :     0.016008
  7 C s       :     3.066271  s :     3.066271
      pz      :     0.810281  p :     2.397434
      px      :     0.749998
      py      :     0.837155
      dz2     :     0.045331  d :     0.205449
      dxz     :     0.039138
      dyz     :     0.046145
      dx2y2   :     0.021422
      dxy     :     0.053414
      f0      :     0.004112  f :     0.018891
      f+1     :     0.002266
      f-1     :     0.002355
      f+2     :     0.003046
      f-2     :     0.002134
      f+3     :     0.001855
      f-3     :     0.003124
  8 N s       :     3.422449  s :     3.422449
      pz      :     1.187655  p :     4.008520
      px      :     1.127062
      py      :     1.693803
      dz2     :     0.007557  d :     0.029937
      dxz     :     0.006888
      dyz     :     0.008207
      dx2y2   :     0.004928
      dxy     :     0.002357
      f0      :     0.000526  f :     0.003483
      f+1     :     0.000586
      f-1     :     0.000566
      f+2     :     0.000470
      f-2     :     0.000440
      f+3     :     0.000510
      f-3     :     0.000385
  9 C s       :     3.266478  s :     3.266478
      pz      :     0.953323  p :     3.243051
      px      :     0.980538
      py      :     1.309190
      dz2     :     0.006904  d :     0.028910
      dxz     :     0.003768
      dyz     :     0.008927
      dx2y2   :     0.005341
      dxy     :     0.003969
      f0      :     0.000924  f :     0.005087
      f+1     :     0.000874
      f-1     :     0.000786
      f+2     :     0.000818
      f-2     :     0.000470
      f+3     :     0.000696
      f-3     :     0.000519
 10 H s       :     0.895005  s :     0.895005
      pz      :     0.010938  p :     0.026226
      px      :     0.005830
      py      :     0.009458
 11 H s       :     0.904409  s :     0.904409
      pz      :     0.004607  p :     0.025605
      px      :     0.012090
      py      :     0.008908
 12 H s       :     0.723731  s :     0.723731
      pz      :     0.025847  p :     0.049338
      px      :     0.008531
      py      :     0.014960
 13 H s       :     0.722988  s :     0.722988
      pz      :     0.016245  p :     0.046454
      px      :     0.014508
      py      :     0.015701
 14 H s       :     0.738734  s :     0.738734
      pz      :     0.005732  p :     0.038051
      px      :     0.019910
      py      :     0.012410
 15 F s       :     3.897121  s :     3.897121
      pz      :     1.611358  p :     5.175062
      px      :     1.732710
      py      :     1.830994
      dz2     :     0.006228  d :     0.021584
      dxz     :     0.006910
      dyz     :     0.004293
      dx2y2   :     0.002114
      dxy     :     0.002038
      f0      :     0.000177  f :     0.000942
      f+1     :     0.000282
      f-1     :     0.000114
      f+2     :     0.000161
      f-2     :     0.000150
      f+3     :     0.000029
      f-3     :     0.000029
 16 O s       :     3.834859  s :     3.834859
      pz      :     1.617067  p :     4.516976
      px      :     1.273731
      py      :     1.626178
      dz2     :     0.003711  d :     0.035495
      dxz     :     0.009698
      dyz     :     0.001476
      dx2y2   :     0.010403
      dxy     :     0.010207
      f0      :     0.000213  f :     0.002054
      f+1     :     0.000279
      f-1     :     0.000057
      f+2     :     0.000280
      f-2     :     0.000161
      f+3     :     0.000556
      f-3     :     0.000509
 17 C s       :     3.195726  s :     3.195726
      pz      :     0.932372  p :     2.830018
      px      :     1.021193
      py      :     0.876453
      dz2     :     0.013777  d :     0.086492
      dxz     :     0.021297
      dyz     :     0.016106
      dx2y2   :     0.021822
      dxy     :     0.013491
      f0      :     0.000515  f :     0.005657
      f+1     :     0.000245
      f-1     :     0.001162
      f+2     :     0.001809
      f-2     :     0.000706
      f+3     :     0.000784
      f-3     :     0.000437
 18 H s       :     0.848450  s :     0.848450
      pz      :     0.008512  p :     0.021348
      px      :     0.004559
      py      :     0.008277
 19 H s       :     0.844342  s :     0.844342
      pz      :     0.003998  p :     0.020767
      px      :     0.012005
      py      :     0.004764
 20 C s       :     3.271820  s :     3.271820
      pz      :     0.950672  p :     2.901669
      px      :     0.959142
      py      :     0.991856
      dz2     :     0.016373  d :     0.087638
      dxz     :     0.023566
      dyz     :     0.014523
      dx2y2   :     0.021331
      dxy     :     0.011844
      f0      :     0.000503  f :     0.005570
      f+1     :     0.000878
      f-1     :     0.000527
      f+2     :     0.001788
      f-2     :     0.000959
      f+3     :     0.000338
      f-3     :     0.000576
 21 H s       :     0.833762  s :     0.833762
      pz      :     0.005720  p :     0.021399
      px      :     0.011396
      py      :     0.004282
 22 H s       :     0.848986  s :     0.848986
      pz      :     0.005249  p :     0.021038
      px      :     0.003922
      py      :     0.011867
 23 C s       :     3.259633  s :     3.259633
      pz      :     0.955700  p :     2.908781
      px      :     0.935306
      py      :     1.017776
      dz2     :     0.016006  d :     0.088139
      dxz     :     0.027116
      dyz     :     0.013042
      dx2y2   :     0.020207
      dxy     :     0.011768
      f0      :     0.000493  f :     0.005616
      f+1     :     0.000879
      f-1     :     0.000495
      f+2     :     0.001918
      f-2     :     0.000918
      f+3     :     0.000353
      f-3     :     0.000560
 24 H s       :     0.853222  s :     0.853222
      pz      :     0.006083  p :     0.021418
      px      :     0.011273
      py      :     0.004062
 25 H s       :     0.886029  s :     0.886029
      pz      :     0.008649  p :     0.020926
      px      :     0.007964
      py      :     0.004313
 26 O s       :     3.838632  s :     3.838632
      pz      :     1.459110  p :     4.638435
      px      :     1.622658
      py      :     1.556667
      dz2     :     0.006558  d :     0.028833
      dxz     :     0.005329
      dyz     :     0.006999
      dx2y2   :     0.004885
      dxy     :     0.005063
      f0      :     0.000214  f :     0.001927
      f+1     :     0.000215
      f-1     :     0.000385
      f+2     :     0.000331
      f-2     :     0.000413
      f+3     :     0.000176
      f-3     :     0.000194
 27 H s       :     0.851136  s :     0.851136
      pz      :     0.007263  p :     0.021660
      px      :     0.009853
      py      :     0.004544
 28 H s       :     0.874695  s :     0.874695
      pz      :     0.005536  p :     0.020946
      px      :     0.004180
      py      :     0.011229
 29 H s       :     0.834127  s :     0.834127
      pz      :     0.005394  p :     0.021866
      px      :     0.004457
      py      :     0.012015
 30 H s       :     0.864204  s :     0.864204
      pz      :     0.007323  p :     0.021046
      px      :     0.009545
      py      :     0.004178


                     *******************************
                     * LOEWDIN POPULATION ANALYSIS *
                     *******************************

----------------------
LOEWDIN ATOMIC CHARGES
----------------------
   0 C :   -0.282170
   1 N :    0.120888
   2 C :   -0.274041
   3 C :   -0.366261
   4 H :    0.144946
   5 H :    0.141690
   6 S :    0.576910
   7 C :   -0.464505
   8 N :   -0.019817
   9 C :   -0.374508
  10 H :    0.092758
  11 H :    0.088752
  12 H :    0.164365
  13 H :    0.148771
  14 H :    0.168922
  15 F :    0.108547
  16 O :   -0.247225
  17 C :   -0.266385
  18 H :    0.136198
  19 H :    0.129961
  20 C :   -0.268351
  21 H :    0.147634
  22 H :    0.149525
  23 C :   -0.271626
  24 H :    0.143642
  25 H :    0.133570
  26 O :   -0.315500
  27 H :    0.137749
  28 H :    0.135096
  29 H :    0.138726
  30 H :    0.141737

-------------------------------
LOEWDIN REDUCED ORBITAL CHARGES
-------------------------------
  0 C s       :     2.775903  s :     2.775903
      pz      :     0.957622  p :     2.982155
      px      :     0.993824
      py      :     1.030709
      dz2     :     0.086550  d :     0.469964
      dxz     :     0.069545
      dyz     :     0.152512
      dx2y2   :     0.096408
      dxy     :     0.064949
      f0      :     0.008471  f :     0.054147
      f+1     :     0.008155
      f-1     :     0.009624
      f+2     :     0.007490
      f-2     :     0.009400
      f+3     :     0.006493
      f-3     :     0.004516
  1 N s       :     2.901513  s :     2.901513
      pz      :     1.123130  p :     3.733190
      px      :     1.177815
      py      :     1.432245
      dz2     :     0.048687  d :     0.227867
      dxz     :     0.079848
      dyz     :     0.027765
      dx2y2   :     0.036365
      dxy     :     0.035201
      f0      :     0.003248  f :     0.016542
      f+1     :     0.002074
      f-1     :     0.001510
      f+2     :     0.003039
      f-2     :     0.001647
      f+3     :     0.002398
      f-3     :     0.002625
  2 C s       :     2.777198  s :     2.777198
      pz      :     1.013194  p :     3.060691
      px      :     1.013568
      py      :     1.033928
      dz2     :     0.082750  d :     0.397621
      dxz     :     0.107533
      dyz     :     0.075608
      dx2y2   :     0.100583
      dxy     :     0.031147
      f0      :     0.008296  f :     0.038531
      f+1     :     0.005544
      f-1     :     0.004381
      f+2     :     0.005881
      f-2     :     0.006940
      f+3     :     0.003556
      f-3     :     0.003933
  3 C s       :     2.842803  s :     2.842803
      pz      :     1.050617  p :     3.129569
      px      :     1.084717
      py      :     0.994235
      dz2     :     0.058267  d :     0.362488
      dxz     :     0.052921
      dyz     :     0.115249
      dx2y2   :     0.094720
      dxy     :     0.041332
      f0      :     0.005332  f :     0.031401
      f+1     :     0.004278
      f-1     :     0.003567
      f+2     :     0.005257
      f-2     :     0.004893
      f+3     :     0.003563
      f-3     :     0.004511
  4 H s       :     0.791402  s :     0.791402
      pz      :     0.017121  p :     0.063652
      px      :     0.033456
      py      :     0.013075
  5 H s       :     0.795461  s :     0.795461
      pz      :     0.023798  p :     0.062849
      px      :     0.014648
      py      :     0.024403
  6 S s       :     4.757903  s :     4.757903
      pz      :     2.793957  p :     8.546663
      px      :     2.834877
      py      :     2.917830
      dz2     :     0.308193  d :     1.740666
      dxz     :     0.413326
      dyz     :     0.308368
      dx2y2   :     0.394930
      dxy     :     0.315850
      f0      :     0.058297  f :     0.377858
      f+1     :     0.066715
      f-1     :     0.044574
      f+2     :     0.063498
      f-2     :     0.048790
      f+3     :     0.049388
      f-3     :     0.046595
  7 C s       :     2.695310  s :     2.695310
      pz      :     1.011434  p :     2.788111
      px      :     0.957252
      py      :     0.819425
      dz2     :     0.194660  d :     0.862255
      dxz     :     0.209312
      dyz     :     0.167802
      dx2y2   :     0.110181
      dxy     :     0.180301
      f0      :     0.026546  f :     0.118829
      f+1     :     0.016404
      f-1     :     0.014186
      f+2     :     0.019456
      f-2     :     0.016603
      f+3     :     0.010159
      f-3     :     0.015476
  8 N s       :     2.956742  s :     2.956742
      pz      :     1.214524  p :     3.903984
      px      :     1.154996
      py      :     1.534464
      dz2     :     0.044744  d :     0.147405
      dxz     :     0.043855
      dyz     :     0.030175
      dx2y2   :     0.019984
      dxy     :     0.008647
      f0      :     0.002503  f :     0.011685
      f+1     :     0.002106
      f-1     :     0.001908
      f+2     :     0.001771
      f-2     :     0.001670
      f+3     :     0.001013
      f-3     :     0.000714
  9 C s       :     2.801797  s :     2.801797
      pz      :     1.067873  p :     3.329036
      px      :     1.035074
      py      :     1.226089
      dz2     :     0.071321  d :     0.215176
      dxz     :     0.062131
      dyz     :     0.029373
      dx2y2   :     0.033117
      dxy     :     0.019233
      f0      :     0.005548  f :     0.028500
      f+1     :     0.006818
      f-1     :     0.003826
      f+2     :     0.004524
      f-2     :     0.003897
      f+3     :     0.002239
      f-3     :     0.001647
 10 H s       :     0.828441  s :     0.828441
      pz      :     0.028852  p :     0.078801
      px      :     0.020924
      py      :     0.029024
 11 H s       :     0.833228  s :     0.833228
      pz      :     0.016803  p :     0.078021
      px      :     0.033707
      py      :     0.027510
 12 H s       :     0.699626  s :     0.699626
      pz      :     0.068992  p :     0.136009
      px      :     0.023055
      py      :     0.043962
 13 H s       :     0.718968  s :     0.718968
      pz      :     0.043388  p :     0.132261
      px      :     0.044268
      py      :     0.044604
 14 H s       :     0.723800  s :     0.723800
      pz      :     0.017539  p :     0.107277
      px      :     0.054524
      py      :     0.035214
 15 F s       :     3.650837  s :     3.650837
      pz      :     1.680802  p :     5.198981
      px      :     1.737907
      py      :     1.780272
      dz2     :     0.011044  d :     0.039846
      dxz     :     0.015700
      dyz     :     0.006636
      dx2y2   :     0.003505
      dxy     :     0.002961
      f0      :     0.000277  f :     0.001789
      f+1     :     0.000645
      f-1     :     0.000217
      f+2     :     0.000303
      f-2     :     0.000247
      f+3     :     0.000047
      f-3     :     0.000052
 16 O s       :     3.559143  s :     3.559143
      pz      :     1.565107  p :     4.614529
      px      :     1.463811
      py      :     1.585611
      dz2     :     0.010400  d :     0.068854
      dxz     :     0.012459
      dyz     :     0.001935
      dx2y2   :     0.024572
      dxy     :     0.019488
      f0      :     0.000372  f :     0.004698
      f+1     :     0.000904
      f-1     :     0.000137
      f+2     :     0.000474
      f-2     :     0.000305
      f+3     :     0.001181
      f-3     :     0.001325
 17 C s       :     2.777446  s :     2.777446
      pz      :     1.011304  p :     3.062922
      px      :     1.033335
      py      :     1.018283
      dz2     :     0.055500  d :     0.388143
      dxz     :     0.095614
      dyz     :     0.087803
      dx2y2   :     0.096086
      dxy     :     0.053140
      f0      :     0.005668  f :     0.037874
      f+1     :     0.002297
      f-1     :     0.007875
      f+2     :     0.005998
      f-2     :     0.005000
      f+3     :     0.006891
      f-3     :     0.004145
 18 H s       :     0.805533  s :     0.805533
      pz      :     0.022671  p :     0.058269
      px      :     0.013902
      py      :     0.021696
 19 H s       :     0.812260  s :     0.812260
      pz      :     0.012683  p :     0.057779
      px      :     0.030987
      py      :     0.014109
 20 C s       :     2.769881  s :     2.769881
      pz      :     1.009281  p :     3.063348
      px      :     1.032117
      py      :     1.021949
      dz2     :     0.064552  d :     0.396321
      dxz     :     0.108521
      dyz     :     0.079056
      dx2y2   :     0.097226
      dxy     :     0.046965
      f0      :     0.006396  f :     0.038802
      f+1     :     0.006601
      f-1     :     0.004218
      f+2     :     0.005683
      f-2     :     0.006510
      f+3     :     0.003901
      f-3     :     0.005494
 21 H s       :     0.793106  s :     0.793106
      pz      :     0.016570  p :     0.059261
      px      :     0.029279
      py      :     0.013412
 22 H s       :     0.792324  s :     0.792324
      pz      :     0.015354  p :     0.058150
      px      :     0.012412
      py      :     0.030384
 23 C s       :     2.769836  s :     2.769836
      pz      :     1.021766  p :     3.062263
      px      :     1.019854
      py      :     1.020643
      dz2     :     0.063125  d :     0.400688
      dxz     :     0.116196
      dyz     :     0.076537
      dx2y2   :     0.099077
      dxy     :     0.045753
      f0      :     0.006484  f :     0.038838
      f+1     :     0.006544
      f-1     :     0.004091
      f+2     :     0.005825
      f-2     :     0.006318
      f+3     :     0.004187
      f-3     :     0.005389
 24 H s       :     0.797071  s :     0.797071
      pz      :     0.016305  p :     0.059286
      px      :     0.030253
      py      :     0.012728
 25 H s       :     0.808544  s :     0.808544
      pz      :     0.021781  p :     0.057886
      px      :     0.023006
      py      :     0.013098
 26 O s       :     3.557079  s :     3.557079
      pz      :     1.500889  p :     4.688281
      px      :     1.611109
      py      :     1.576282
      dz2     :     0.010669  d :     0.065941
      dxz     :     0.013643
      dyz     :     0.020668
      dx2y2   :     0.008122
      dxy     :     0.012839
      f0      :     0.000431  f :     0.004199
      f+1     :     0.000483
      f-1     :     0.000720
      f+2     :     0.000549
      f-2     :     0.001231
      f+3     :     0.000455
      f-3     :     0.000331
 27 H s       :     0.802676  s :     0.802676
      pz      :     0.020476  p :     0.059574
      px      :     0.025169
      py      :     0.013929
 28 H s       :     0.807188  s :     0.807188
      pz      :     0.016437  p :     0.057716
      px      :     0.012961
      py      :     0.028318
 29 H s       :     0.801491  s :     0.801491
      pz      :     0.015929  p :     0.059783
      px      :     0.013356
      py      :     0.030498
 30 H s       :     0.800579  s :     0.800579
      pz      :     0.019761  p :     0.057683
      px      :     0.024535
      py      :     0.013388


                      *****************************
                      * MAYER POPULATION ANALYSIS *
                      *****************************

  NA   - Mulliken gross atomic population
  ZA   - Total nuclear charge
  QA   - Mulliken gross atomic charge
  VA   - Mayer's total valence
  BVA  - Mayer's bonded valence
  FA   - Mayer's free valence

  ATOM       NA         ZA         QA         VA         BVA        FA
  0 C      6.2248     6.0000    -0.2248     3.9389     3.9389     0.0000
  1 N      7.2532     7.0000    -0.2532     3.0682     3.0682    -0.0000
  2 C      6.1900     6.0000    -0.1900     3.8107     3.8107     0.0000
  3 C      6.3057     6.0000    -0.3057     3.8405     3.8405     0.0000
  4 H      0.8256     1.0000     0.1744     0.9594     0.9594     0.0000
  5 H      0.8378     1.0000     0.1622     0.9606     0.9606     0.0000
  6 S     15.1063    16.0000     0.8937     5.8242     5.8242    -0.0000
  7 C      5.6880     6.0000     0.3120     4.0094     4.0094     0.0000
  8 N      7.4644     7.0000    -0.4644     3.0235     3.0235     0.0000
  9 C      6.5435     6.0000    -0.5435     3.7591     3.7591     0.0000
 10 H      0.9212     1.0000     0.0788     0.9996     0.9996     0.0000
 11 H      0.9300     1.0000     0.0700     0.9967     0.9967    -0.0000
 12 H      0.7731     1.0000     0.2269     0.9828     0.9828     0.0000
 13 H      0.7694     1.0000     0.2306     0.9862     0.9862    -0.0000
 14 H      0.7768     1.0000     0.2232     0.9587     0.9587    -0.0000
 15 F      9.0947     9.0000    -0.0947     1.2457     1.2457    -0.0000
 16 O      8.3894     8.0000    -0.3894     2.0676     2.0676    -0.0000
 17 C      6.1179     6.0000    -0.1179     3.6854     3.6854     0.0000
 18 H      0.8698     1.0000     0.1302     0.9678     0.9678    -0.0000
 19 H      0.8651     1.0000     0.1349     0.9593     0.9593    -0.0000
 20 C      6.2667     6.0000    -0.2667     3.7728     3.7728     0.0000
 21 H      0.8552     1.0000     0.1448     0.9717     0.9717    -0.0000
 22 H      0.8700     1.0000     0.1300     0.9635     0.9635     0.0000
 23 C      6.2622     6.0000    -0.2622     3.8391     3.8391     0.0000
 24 H      0.8746     1.0000     0.1254     0.9897     0.9897    -0.0000
 25 H      0.9070     1.0000     0.0930     0.9712     0.9712     0.0000
 26 O      8.5078     8.0000    -0.5078     1.8686     1.8686     0.0000
 27 H      0.8728     1.0000     0.1272     0.9704     0.9704     0.0000
 28 H      0.8956     1.0000     0.1044     0.9673     0.9673     0.0000
 29 H      0.8560     1.0000     0.1440     0.9742     0.9742    -0.0000
 30 H      0.8852     1.0000     0.1148     0.9756     0.9756    -0.0000

  Mayer bond orders larger than 0.100000
B(  0-C ,  1-N ) :   0.9529 B(  0-C , 17-C ) :   0.9123 B(  0-C , 18-H ) :   0.9831 
B(  0-C , 19-H ) :   0.9938 B(  1-N ,  7-C ) :   1.2110 B(  1-N , 12-H ) :   0.9025 
B(  2-C ,  3-C ) :   0.9372 B(  2-C , 20-C ) :   0.9568 B(  2-C , 21-H ) :   0.9760 
B(  2-C , 22-H ) :   0.9603 B(  3-C ,  4-H ) :   0.9406 B(  3-C ,  5-H ) :   0.9467 
B(  3-C ,  6-S ) :   0.9259 B(  6-S , 15-F ) :   1.1673 B(  6-S , 16-O ) :   1.9503 
B(  6-S , 26-O ) :   1.6993 B(  7-C ,  8-N ) :   1.1544 B(  7-C ,  9-C ) :   1.6267 
B(  8-N , 13-H ) :   0.8945 B(  8-N , 14-H ) :   0.9314 B(  9-C , 10-H ) :   1.0040 
B(  9-C , 11-H ) :   1.0012 B( 17-C , 23-C ) :   0.9659 B( 17-C , 24-H ) :   0.9670 
B( 17-C , 25-H ) :   0.9821 B( 20-C , 23-C ) :   0.9038 B( 20-C , 29-H ) :   0.9814 
B( 20-C , 30-H ) :   0.9784 B( 23-C , 27-H ) :   0.9748 B( 23-C , 28-H ) :   0.9750 


-------
TIMINGS
-------

Total SCF time: 0 days 0 hours 1 min 42 sec 

Total time                  ....     102.163 sec
Sum of individual times     ....     100.909 sec  ( 98.8%)

Fock matrix formation       ....      96.254 sec  ( 94.2%)
  Split-RI-J                ....       5.914 sec  (  6.1% of F)
  Chain of spheres X        ....      83.698 sec  ( 87.0% of F)
  XC integration            ....       6.295 sec  (  6.5% of F)
    Basis function eval.    ....       1.154 sec  ( 18.3% of XC)
    Density eval.           ....       1.299 sec  ( 20.6% of XC)
    XC-Functional eval.     ....       0.315 sec  (  5.0% of XC)
    XC-Potential eval.      ....       1.139 sec  ( 18.1% of XC)
Diagonalization             ....       0.734 sec  (  0.7%)
Density matrix formation    ....       0.057 sec  (  0.1%)
Population analysis         ....       0.096 sec  (  0.1%)
Initial guess               ....       0.514 sec  (  0.5%)
Orbital Transformation      ....       0.000 sec  (  0.0%)
Orbital Orthonormalization  ....       0.000 sec  (  0.0%)
DIIS solution               ....       0.421 sec  (  0.4%)
SOSCF solution              ....       0.625 sec  (  0.6%)
Grid generation             ....       2.207 sec  (  2.2%)

Maximum memory used throughout the entire SCF-calculation: 113.2 MB

-------------------------   --------------------
FINAL SINGLE POINT ENERGY     -1072.992157633375
-------------------------   --------------------


                            ***************************************
                            *     ORCA property calculations      *
                            ***************************************

                                    ---------------------
                                    Active property flags
                                    ---------------------
   (+) Dipole Moment


------------------------------------------------------------------------------
                       ORCA ELECTRIC PROPERTIES CALCULATION
------------------------------------------------------------------------------

Dipole Moment Calculation                       ... on
Quadrupole Moment Calculation                   ... off
Polarizability Calculation                      ... off
GBWName                                         ... CAMB3LYP_D3_wb97.gbw
Electron density file                           ... CAMB3LYP_D3_wb97.scfp
The origin for moment calculation is the CENTER OF MASS  = ( 4.297179, -0.883258 -8.395419)

-------------
DIPOLE MOMENT
-------------
                                X             Y             Z
Electronic contribution:     -1.11629      -0.19215     -24.60507
Nuclear contribution   :      0.44707       2.53104      23.12246
                        -----------------------------------------
Total Dipole Moment    :     -0.66922       2.33889      -1.48261
                        -----------------------------------------
Magnitude (a.u.)       :      2.84893
Magnitude (Debye)      :      7.24141



--------------------
Rotational spectrum 
--------------------
 
Rotational constants in cm-1:     0.028906     0.014696     0.011110 
Rotational constants in MHz :   866.591909   440.585554   333.081943 

 Dipole components along the rotational axes: 
x,y,z [a.u.] :    -2.458950     0.849557    -1.161136 
x,y,z [Debye]:    -6.250153     2.159403    -2.951374 

 

Timings for individual modules:

Sum of individual times         ...      104.015 sec (=   1.734 min)
GTO integral calculation        ...        1.385 sec (=   0.023 min)   1.3 %
SCF iterations                  ...      102.630 sec (=   1.710 min)  98.7 %
                             ****ORCA TERMINATED NORMALLY****
TOTAL RUN TIME: 0 days 0 hours 1 minutes 44 seconds 704 msec
