
                                        *****************
                                        * O   R   C   A *
                                        *****************

                                            #,                                       
                                            ###                                      
                                            ####                                     
                                            #####                                    
                                            ######                                   
                                           ########,                                 
                                     ,,################,,,,,                         
                               ,,#################################,,                 
                          ,,##########################################,,             
                       ,#########################################, ''#####,          
                    ,#############################################,,   '####,        
                  ,##################################################,,,,####,       
                ,###########''''           ''''###############################       
              ,#####''   ,,,,##########,,,,          '''####'''          '####       
            ,##' ,,,,###########################,,,                        '##       
           ' ,,###''''                  '''############,,,                           
         ,,##''                                '''############,,,,        ,,,,,,###''
      ,#''                                            '''#######################'''  
     '                                                          ''''####''''         
             ,#######,   #######,   ,#######,      ##                                
            ,#'     '#,  ##    ##  ,#'     '#,    #''#        ######   ,####,        
            ##       ##  ##   ,#'  ##            #'  '#       #        #'  '#        
            ##       ##  #######   ##           ,######,      #####,   #    #        
            '#,     ,#'  ##    ##  '#,     ,#' ,#      #,         ##   #,  ,#        
             '#######'   ##     ##  '#######'  #'      '#     #####' # '####'        



                  #######################################################
                  #                        -***-                        #
                  #          Department of theory and spectroscopy      #
                  #    Directorship and core code : Frank Neese         #
                  #        Max Planck Institute fuer Kohlenforschung    #
                  #                Kaiser Wilhelm Platz 1               #
                  #                 D-45470 Muelheim/Ruhr               #
                  #                      Germany                        #
                  #                                                     #
                  #                  All rights reserved                #
                  #                        -***-                        #
                  #######################################################


                         Program Version 5.0.0 -  RELEASE  -
                                (SVN: $Rev: 19529$)
                ($Date: 2021-06-28 11:36:33 +0200 (Mo, 28 Jun 2021) $)


 With contributions from (in alphabetic order):
   Daniel Aravena         : Magnetic Suceptibility
   Michael Atanasov       : Ab Initio Ligand Field Theory (pilot matlab implementation)
   Alexander A. Auer      : GIAO ZORA, VPT2 properties, NMR spectrum
   Ute Becker             : Parallelization
   Giovanni Bistoni       : ED, misc. LED, open-shell LED, HFLD
   Martin Brehm           : Molecular dynamics
   Dmytro Bykov           : SCF Hessian
   Vijay G. Chilkuri      : MRCI spin determinant printing, contributions to CSF-ICE
   Dipayan Datta          : RHF DLPNO-CCSD density
   Achintya Kumar Dutta   : EOM-CC, STEOM-CC
   Dmitry Ganyushin       : Spin-Orbit,Spin-Spin,Magnetic field MRCI
   Miquel Garcia          : C-PCM Hessian, Gaussian charge scheme
   Yang Guo               : DLPNO-NEVPT2, F12-NEVPT2, CIM, IAO-localization
   Andreas Hansen         : Spin unrestricted coupled pair/coupled cluster methods
   Benjamin Helmich-Paris : MC-RPA, TRAH-SCF, COSX integrals
   Lee Huntington         : MR-EOM, pCC
   Robert Izsak           : Overlap fitted RIJCOSX, COSX-SCS-MP3, EOM
   Marcus Kettner         : VPT2
   Christian Kollmar      : KDIIS, OOCD, Brueckner-CCSD(T), CCSD density, CASPT2, CASPT2-K
   Simone Kossmann        : Meta GGA functionals, TD-DFT gradient, OOMP2, MP2 Hessian
   Martin Krupicka        : Initial AUTO-CI
   Lucas Lang             : DCDCAS
   Marvin Lechner         : AUTO-CI (C++ implementation), FIC-MRCC
   Dagmar Lenk            : GEPOL surface, SMD
   Dimitrios Liakos       : Extrapolation schemes; Compound Job, initial MDCI parallelization
   Dimitrios Manganas     : Further ROCIS development; embedding schemes
   Dimitrios Pantazis     : SARC Basis sets
   Anastasios Papadopoulos: AUTO-CI, single reference methods and gradients
   Taras Petrenko         : DFT Hessian,TD-DFT gradient, ASA, ECA, R-Raman, ABS, FL, XAS/XES, NRVS
   Peter Pinski           : DLPNO-MP2, DLPNO-MP2 Gradient
   Christoph Reimann      : Effective Core Potentials
   Marius Retegan         : Local ZFS, SOC
   Christoph Riplinger    : Optimizer, TS searches, QM/MM, DLPNO-CCSD(T), (RO)-DLPNO pert. Triples
   Tobias Risthaus        : Range-separated hybrids, TD-DFT gradient, RPA, STAB
   Michael Roemelt        : Original ROCIS implementation
   Masaaki Saitow         : Open-shell DLPNO-CCSD energy and density
   Barbara Sandhoefer     : DKH picture change effects
   Avijit Sen             : IP-ROCIS
   Kantharuban Sivalingam : CASSCF convergence, NEVPT2, FIC-MRCI
   Bernardo de Souza      : ESD, SOC TD-DFT
   Georgi Stoychev        : AutoAux, RI-MP2 NMR
   Willem Van den Heuvel  : Paramagnetic NMR
   Boris Wezisla          : Elementary symmetry handling
   Frank Wennmohs         : Technical directorship


 We gratefully acknowledge several colleagues who have allowed us to
 interface, adapt or use parts of their codes:
   Stefan Grimme, W. Hujo, H. Kruse, P. Pracht,  : VdW corrections, initial TS optimization,
                  C. Bannwarth, S. Ehlert          DFT functionals, gCP, sTDA/sTD-DF
   Ed Valeev, F. Pavosevic, A. Kumar             : LibInt (2-el integral package), F12 methods
   Garnet Chan, S. Sharma, J. Yang, R. Olivares  : DMRG
   Ulf Ekstrom                                   : XCFun DFT Library
   Mihaly Kallay                                 : mrcc  (arbitrary order and MRCC methods)
   Jiri Pittner, Ondrej Demel                    : Mk-CCSD
   Frank Weinhold                                : gennbo (NPA and NBO analysis)
   Christopher J. Cramer and Donald G. Truhlar   : smd solvation model
   Lars Goerigk                                  : TD-DFT with DH, B97 family of functionals
   V. Asgeirsson, H. Jonsson                     : NEB implementation
   FAccTs GmbH                                   : IRC, NEB, NEB-TS, DLPNO-Multilevel, CI-OPT
                                                   MM, QMMM, 2- and 3-layer-ONIOM, Crystal-QMMM,
                                                   LR-CPCM, SF, NACMEs, symmetry and pop. for TD-DFT,
                                                   nearIR, NL-DFT gradient (VV10), updates on ESD,
                                                   ML-optimized integration grids
   S Lehtola, MJT Oliveira, MAL Marques          : LibXC Library
   Liviu Ungur et al                             : ANISO software


 Your calculation uses the libint2 library for the computation of 2-el integrals
 For citations please refer to: http://libint.valeyev.net

 Your ORCA version has been built with support for libXC version: 5.1.0
 For citations please refer to: https://tddft.org/programs/libxc/

 This ORCA versions uses:
   CBLAS   interface :  Fast vector & matrix operations
   LAPACKE interface :  Fast linear algebra routines
   SCALAPACK package :  Parallel linear algebra routines
   Shared memory     :  Shared parallel matrices
   BLAS/LAPACK       :  OpenBLAS 0.3.15  USE64BITINT DYNAMIC_ARCH NO_AFFINITY Haswell SINGLE_THREADED
        Core in use  :  Haswell
   Copyright (c) 2011-2014, The OpenBLAS Project


Your calculation utilizes the atom-pairwise dispersion correction
with the zero-damping scheme (D30)
Cite in your paper:
S.Grimme, J.Antony, S.Ehrlich and H.Krieg, J.Chem.Phys., 132, (2010), 154104 
   

XCFun DFT library Copyright 2009-2010 Ulf Ekstrom and contributors.
See http://admol.org/xcfun for more information.
This is free software; see the source code for copying conditions.
There is ABSOLUTELY NO WARRANTY; not even for MERCHANTABILITY or FITNESS FOR A PARTICULAR PURPOSE.
For details see the documentation.
Scientific users of this library should cite U. Ekstrom, L. Visscher, R. Bast, A. J. Thorvaldsen and K. Ruud;
J.Chem.Theor.Comp. 2010, DOI: 10.1021/ct100117s
XCFun Version 0.99 

================================================================================

----- Orbital basis set information -----
Your calculation utilizes the basis: def2-SVPD
   F. Weigend and R. Ahlrichs, Phys. Chem. Chem. Phys. 7, 3297 (2005).
   D. Rappoport and F. Furche, J. Chem. Phys. 133 134105 (2010).

----- AuxJ basis set information -----
Your calculation utilizes the auxiliary basis: def2/J
   F. Weigend, Phys. Chem. Chem. Phys. 8, 1057 (2006).

================================================================================
                                        WARNINGS
                       Please study these warnings very carefully!
================================================================================


WARNING: Minnesota functionals are quite sensitive to the integration grid.
         see SE Wheeler, KN Houk, JCTC 2010, 6, 395,
             N Mardirossian, M Head-Gordon, JCTC 2016, 12, 4303.
         DEFGRID3 seems to be a minimum grid for reliable results with these functionals!
  ===> : Please increase the integration grid!


INFO   : the flag for use of the SHARK integral package has been found!

================================================================================
                                       INPUT FILE
================================================================================
NAME = SVPD_M062X_A_wt_dlpno_neg.com
|  1> !M062X D3Zero RIJCOSX def2-SVPD def2/J TightSCF
|  2> *xyz -1 1
|  3> C         -0.91495        0.61511        2.50554
|  4> C         -0.05915        1.50352        3.41058
|  5> H          0.36536        2.34431        2.86116
|  6> H         -0.69226        1.92021        4.19898
|  7> C          1.08303        0.74964        4.08571
|  8> O          2.22817        1.26348        4.01983
|  9> O          0.81003       -0.34541        4.63627
| 10> H         -0.30401        0.20228        1.73015
| 11> H         -1.69811        1.19946        2.06954
| 12> H         -1.34124       -0.17772        3.08397
| 13> *
| 14> 
| 15> %MaxCore 64000
| 16> 
| 17> %pal nprocs 4
| 18> end  
| 19> 
| 20> %scf
| 21>   MaxIter 150
| 22> end
| 23> 
| 24> 
| 25>                          ****END OF INPUT****
================================================================================

                       ****************************
                       * Single Point Calculation *
                       ****************************

---------------------------------
CARTESIAN COORDINATES (ANGSTROEM)
---------------------------------
  C     -0.914950    0.615110    2.505540
  C     -0.059150    1.503520    3.410580
  H      0.365360    2.344310    2.861160
  H     -0.692260    1.920210    4.198980
  C      1.083030    0.749640    4.085710
  O      2.228170    1.263480    4.019830
  O      0.810030   -0.345410    4.636270
  H     -0.304010    0.202280    1.730150
  H     -1.698110    1.199460    2.069540
  H     -1.341240   -0.177720    3.083970

----------------------------
CARTESIAN COORDINATES (A.U.)
----------------------------
  NO LB      ZA    FRAG     MASS         X           Y           Z
   0 C     6.0000    0    12.011   -1.729005    1.162389    4.734784
   1 C     6.0000    0    12.011   -0.111777    2.841241    6.445062
   2 H     1.0000    0     1.008    0.690430    4.430104    5.406809
   3 H     1.0000    0     1.008   -1.308182    3.628671    7.934922
   4 C     6.0000    0    12.011    2.046630    1.416614    7.720873
   5 O     8.0000    0    15.999    4.210631    2.387631    7.596378
   6 O     8.0000    0    15.999    1.530735   -0.652730    8.761281
   7 H     1.0000    0     1.008   -0.574496    0.382254    3.269510
   8 H     1.0000    0     1.008   -3.208963    2.266651    3.910864
   9 H     1.0000    0     1.008   -2.534576   -0.335842    5.827859

--------------------------------
INTERNAL COORDINATES (ANGSTROEM)
--------------------------------
 C      0   0   0     0.000000000000     0.00000000     0.00000000
 C      1   0   0     1.529955348924     0.00000000     0.00000000
 H      2   1   0     1.090412261762   111.55860693     0.00000000
 H      2   1   3     1.093633114074   108.89738504   118.05413034
 C      2   1   3     1.526011377317   113.17317112   237.68600968
 O      5   2   1     1.256868067698   117.17962187   130.97672394
 O      5   2   1     1.255698935295   117.52066640   312.46760082
 H      1   2   3     1.070002777847   109.47097276    61.94491199
 H      1   2   3     1.070000237430   109.47119053   301.94530766
 H      1   2   3     1.069992447590   109.47101914   181.94533963

---------------------------
INTERNAL COORDINATES (A.U.)
---------------------------
 C      0   0   0     0.000000000000     0.00000000     0.00000000
 C      1   0   0     2.891196606594     0.00000000     0.00000000
 H      2   1   0     2.060580547799   111.55860693     0.00000000
 H      2   1   3     2.066667076588   108.89738504   118.05413034
 C      2   1   3     2.883743580377   113.17317112   237.68600968
 O      5   2   1     2.375136434421   117.17962187   130.97672394
 O      5   2   1     2.372927094363   117.52066640   312.46760082
 H      1   2   3     2.022012212666   109.47097276    61.94491199
 H      1   2   3     2.022007411973   109.47119053   301.94530766
 H      1   2   3     2.021992691310   109.47101914   181.94533963

---------------------
BASIS SET INFORMATION
---------------------
There are 3 groups of distinct atoms

 Group   1 Type C   : 8s4p2d contracted to 4s2p2d pattern {5111/31/11}
 Group   2 Type H   : 4s2p contracted to 2s2p pattern {31/11}
 Group   3 Type O   : 8s5p2d contracted to 4s3p2d pattern {5111/311/11}

Atom   0C    basis set group =>   1
Atom   1C    basis set group =>   1
Atom   2H    basis set group =>   2
Atom   3H    basis set group =>   2
Atom   4C    basis set group =>   1
Atom   5O    basis set group =>   3
Atom   6O    basis set group =>   3
Atom   7H    basis set group =>   2
Atom   8H    basis set group =>   2
Atom   9H    basis set group =>   2
---------------------------------
AUXILIARY/J BASIS SET INFORMATION
---------------------------------
There are 3 groups of distinct atoms

 Group   1 Type C   : 12s5p4d2f1g contracted to 6s4p3d1f1g pattern {711111/2111/211/2/1}
 Group   2 Type H   : 5s2p1d contracted to 3s1p1d pattern {311/2/1}
 Group   3 Type O   : 12s5p4d2f1g contracted to 6s4p3d1f1g pattern {711111/2111/211/2/1}

Atom   0C    basis set group =>   1
Atom   1C    basis set group =>   1
Atom   2H    basis set group =>   2
Atom   3H    basis set group =>   2
Atom   4C    basis set group =>   1
Atom   5O    basis set group =>   3
Atom   6O    basis set group =>   3
Atom   7H    basis set group =>   2
Atom   8H    basis set group =>   2
Atom   9H    basis set group =>   2


           ************************************************************
           *        Program running with 4 parallel MPI-processes     *
           *              working on a common directory               *
           ************************************************************
------------------------------------------------------------------------------
                           ORCA GTO INTEGRAL CALCULATION
                           -- RI-GTO INTEGRALS CHOSEN --
------------------------------------------------------------------------------
------------------------------------------------------------------------------
                   ___                                                        
                  /   \      - P O W E R E D   B Y -                         
                 /     \                                                     
                 |  |  |   _    _      __       _____    __    __             
                 |  |  |  | |  | |    /  \     |  _  \  |  |  /  |          
                  \  \/   | |  | |   /    \    | | | |  |  | /  /          
                 / \  \   | |__| |  /  /\  \   | |_| |  |  |/  /          
                |  |  |   |  __  | /  /__\  \  |    /   |      \           
                |  |  |   | |  | | |   __   |  |    \   |  |\   \          
                \     /   | |  | | |  |  |  |  | |\  \  |  | \   \       
                 \___/    |_|  |_| |__|  |__|  |_| \__\ |__|  \__/        
                                                                              
                      - O R C A' S   B I G   F R I E N D -                    
                                      &                                       
                       - I N T E G R A L  F E E D E R -                       
                                                                              
 v1 FN, 2020, v2 2021                                                         
------------------------------------------------------------------------------


Reading SHARK input file SVPD_M062X_A_wt_dlpno_neg.SHARKINP.tmp ... ok
----------------------
SHARK INTEGRAL PACKAGE
----------------------

Number of atoms                             ...     10
Number of basis functions                   ...    146
Number of shells                            ...     62
Maximum angular momentum                    ...      2
Integral batch strategy                     ... SHARK/LIBINT Hybrid
RI-J (if used) integral strategy            ... SPLIT-RIJ (Revised 2003 algorithm where possible)
Printlevel                                  ...      1
Contraction scheme used                     ... SEGMENTED contraction
Coulomb Range Separation                    ... NOT USED
Exchange Range Separation                   ... NOT USED
Finite Nucleus Model                        ... NOT USED
Auxiliary Coulomb fitting basis             ... AVAILABLE
   # of basis functions in Aux-J            ...    300
   # of shells in Aux-J                     ...    100
   Maximum angular momentum in Aux-J        ...      4
Auxiliary J/K fitting basis                 ... NOT available
Auxiliary Correlation fitting basis         ... NOT available
Auxiliary 'external' fitting basis          ... NOT available
Integral threshold                          ...     2.500000e-11
Primitive cut-off                           ...     2.500000e-12
Primitive pair pre-selection threshold      ...     2.500000e-12

Calculating pre-screening integrals         ... done (  0.0 sec) Dimension = 62
Organizing shell pair data                  ... done (  0.0 sec)
Shell pair information
Total number of shell pairs                 ...      1953
Shell pairs after pre-screening             ...      1935
Total number of primitive shell pairs       ...      5333
Primitive shell pairs kept                  ...      4531
          la=0 lb=0:    457 shell pairs
          la=1 lb=0:    654 shell pairs
          la=1 lb=1:    252 shell pairs
          la=2 lb=0:    298 shell pairs
          la=2 lb=1:    219 shell pairs
          la=2 lb=2:     55 shell pairs

Calculating one electron integrals          ... done (  0.0 sec)
Calculating RI/J V-Matrix + Cholesky decomp.... done (  0.0 sec)
Calculating Nuclear repulsion               ... done (  0.0 sec) ENN=    169.160633369676 Eh

SHARK setup successfully completed in   0.1 seconds

Maximum memory used throughout the entire GTOINT-calculation: 8.8 MB


           ************************************************************
           *        Program running with 4 parallel MPI-processes     *
           *              working on a common directory               *
           ************************************************************
-------------------------------------------------------------------------------
                                 ORCA SCF
-------------------------------------------------------------------------------

------------
SCF SETTINGS
------------
Hamiltonian:
 Density Functional     Method          .... DFT(GTOs)
 Exchange Functional    Exchange        .... M062X
 Correlation Functional Correlation     .... M062X
 Gradients option       PostSCFGGA      .... off
 Hybrid DFT is turned on
   Fraction HF Exchange ScalHFX         ....  0.540000
   Scaling of DF-GGA-X  ScalDFX         ....  0.460000
   Scaling of DF-GGA-C  ScalDFC         ....  1.000000
   Scaling of DF-LDA-C  ScalLDAC        ....  1.000000
   Perturbative correction              ....  0.000000
   Density functional embedding theory  .... OFF
 RI-approximation to the Coulomb term is turned on
   Number of AuxJ basis functions       .... 300
   RIJ-COSX (HFX calculated with COS-X)).... on


General Settings:
 Integral files         IntName         .... SVPD_M062X_A_wt_dlpno_neg
 Hartree-Fock type      HFTyp           .... RHF
 Total Charge           Charge          ....   -1
 Multiplicity           Mult            ....    1
 Number of Electrons    NEL             ....   40
 Basis Dimension        Dim             ....  146
 Nuclear Repulsion      ENuc            ....    169.1606333697 Eh

Convergence Acceleration:
 DIIS                   CNVDIIS         .... on
   Start iteration      DIISMaxIt       ....    12
   Startup error        DIISStart       ....  0.200000
   # of expansion vecs  DIISMaxEq       ....     5
   Bias factor          DIISBfac        ....   1.050
   Max. coefficient     DIISMaxC        ....  10.000
 Trust-Rad. Augm. Hess. CNVTRAH         .... auto
   Auto Start mean grad. ratio tolernc. ....  1.125000
   Auto Start start iteration           ....    20
   Auto Start num. interpolation iter.  ....    10
   Max. Number of Micro iterations      ....    16
   Max. Number of Macro iterations      .... Maxiter - #DIIS iter
   Number of Davidson start vectors     ....     2
   Converg. threshold I  (grad. norm)   ....   1.000e-05
   Converg. threshold II (energy diff.) ....   1.000e-08
   Grad. Scal. Fac. for Micro threshold ....   0.100
   Minimum threshold for Micro iter.    ....   0.010
   NR start threshold (gradient norm)   ....   0.001
   Initial trust radius                 ....   0.400
   Minimum AH scaling param. (alpha)    ....   1.000
   Maximum AH scaling param. (alpha)    .... 1000.000
   Orbital update algorithm             .... Taylor
   White noise on init. David. guess    .... on
   Maximum white noise                  ....   0.010
   Quad. conv. algorithm                .... NR
 SOSCF                  CNVSOSCF        .... on
   Start iteration      SOSCFMaxIt      ....   150
   Startup grad/error   SOSCFStart      ....  0.003300
 Level Shifting         CNVShift        .... on
   Level shift para.    LevelShift      ....    0.2500
   Turn off err/grad.   ShiftErr        ....    0.0010
 Zerner damping         CNVZerner       .... off
 Static damping         CNVDamp         .... on
   Fraction old density DampFac         ....    0.7000
   Max. Damping (<1)    DampMax         ....    0.9800
   Min. Damping (>=0)   DampMin         ....    0.0000
   Turn off err/grad.   DampErr         ....    0.1000
 Fernandez-Rico         CNVRico         .... off

SCF Procedure:
 Maximum # iterations   MaxIter         ....   150
 SCF integral mode      SCFMode         .... Direct
   Integral package                     .... SHARK and LIBINT hybrid scheme
 Reset frequency        DirectResetFreq ....    20
 Integral Threshold     Thresh          ....  2.500e-11 Eh
 Primitive CutOff       TCut            ....  2.500e-12 Eh

Convergence Tolerance:
 Convergence Check Mode ConvCheckMode   .... Total+1el-Energy
 Convergence forced     ConvForced      .... 0
 Energy Change          TolE            ....  1.000e-08 Eh
 1-El. energy change                    ....  1.000e-05 Eh
 Orbital Gradient       TolG            ....  1.000e-05
 Orbital Rotation angle TolX            ....  1.000e-05
 DIIS Error             TolErr          ....  5.000e-07


Diagonalization of the overlap matrix:
Smallest eigenvalue                        ... 1.140e-04
Time for diagonalization                   ...    0.006 sec
Threshold for overlap eigenvalues          ... 1.000e-08
Number of eigenvalues below threshold      ... 0
Time for construction of square roots      ...    0.005 sec
Total time needed                          ...    0.012 sec

Time for model grid setup =    0.063 sec

------------------------------
INITIAL GUESS: MODEL POTENTIAL
------------------------------
Loading Hartree-Fock densities                     ... done
Calculating cut-offs                               ... done
Initializing the effective Hamiltonian             ... done
Setting up the integral package (SHARK)            ... done
Starting the Coulomb interaction                   ... done (   0.0 sec)
Reading the grid                                   ... done
Mapping shells                                     ... done
Starting the XC term evaluation                    ... done (   0.1 sec)
  promolecular density results
     # of electrons  =     38.999028405
     EX              =    -33.070609254
     EC              =     -1.283306745
     EX+EC           =    -34.353915999
Transforming the Hamiltonian                       ... done (   0.0 sec)
Diagonalizing the Hamiltonian                      ... done (   0.0 sec)
Back transforming the eigenvectors                 ... done (   0.0 sec)
Now organizing SCF variables                       ... done
                      ------------------
                      INITIAL GUESS DONE (   0.1 sec)
                      ------------------
-------------------
DFT GRID GENERATION
-------------------

General Integration Accuracy     IntAcc      ... 4.388
Radial Grid Type                 RadialGrid  ... OptM3 with GC (2021)
Angular Grid (max. ang.)         AngularGrid ... 4 (Lebedev-302)
Angular grid pruning method      GridPruning ... 4 (adaptive)
Weight generation scheme         WeightScheme... Becke
Basis function cutoff            BFCut       ... 1.0000e-11
Integration weight cutoff        WCut        ... 1.0000e-14
Angular grids for H and He will be reduced by one unit
Partially contracted basis set               ... off
Rotationally invariant grid construction     ... off

Total number of grid points                  ...    48198
Total number of batches                      ...      759
Average number of points per batch           ...       63
Average number of grid points per atom       ...     4820
Time for grid setup =    0.376 sec

--------------------
COSX GRID GENERATION
--------------------

GRIDX 1
-------
General Integration Accuracy     IntAcc      ... 3.816
Radial Grid Type                 RadialGrid  ... OptM3 with GC (2021)
Angular Grid (max. ang.)         AngularGrid ... 1 (Lebedev-50)
Angular grid pruning method      GridPruning ... 4 (adaptive)
Weight generation scheme         WeightScheme... Becke
Basis function cutoff            BFCut       ... 1.0000e-11
Integration weight cutoff        WCut        ... 1.0000e-14
Angular grids for H and He will be reduced by one unit
Partially contracted basis set               ... on
Rotationally invariant grid construction     ... off

Total number of grid points                  ...     6050
Total number of batches                      ...      100
Average number of points per batch           ...       60
Average number of grid points per atom       ...      605
UseSFitting                                  ... on

GRIDX 2
-------
General Integration Accuracy     IntAcc      ... 4.020
Radial Grid Type                 RadialGrid  ... OptM3 with GC (2021)
Angular Grid (max. ang.)         AngularGrid ... 2 (Lebedev-110)
Angular grid pruning method      GridPruning ... 4 (adaptive)
Weight generation scheme         WeightScheme... Becke
Basis function cutoff            BFCut       ... 1.0000e-11
Integration weight cutoff        WCut        ... 1.0000e-14
Angular grids for H and He will be reduced by one unit
Partially contracted basis set               ... on
Rotationally invariant grid construction     ... off

Total number of grid points                  ...    14262
Total number of batches                      ...      228
Average number of points per batch           ...       62
Average number of grid points per atom       ...     1426
UseSFitting                                  ... on

GRIDX 3
-------
General Integration Accuracy     IntAcc      ... 4.338
Radial Grid Type                 RadialGrid  ... OptM3 with GC (2021)
Angular Grid (max. ang.)         AngularGrid ... 3 (Lebedev-194)
Angular grid pruning method      GridPruning ... 4 (adaptive)
Weight generation scheme         WeightScheme... Becke
Basis function cutoff            BFCut       ... 1.0000e-11
Integration weight cutoff        WCut        ... 1.0000e-14
Angular grids for H and He will be reduced by one unit
Partially contracted basis set               ... on
Rotationally invariant grid construction     ... off

Total number of grid points                  ...    32212
Total number of batches                      ...      509
Average number of points per batch           ...       63
Average number of grid points per atom       ...     3221
UseSFitting                                  ... on

Time for X-Grid setup             =    0.399 sec

--------------
SCF ITERATIONS
--------------
ITER       Energy         Delta-E        Max-DP      RMS-DP      [F,P]     Damp
               ***  Starting incremental Fock matrix formation  ***
  0   -267.2607319315   0.000000000000 0.10048540  0.00339683  0.2844813 0.7000
  1   -267.3818422240  -0.121110292497 0.07043617  0.00255955  0.1385868 0.7000
                               ***Turning on DIIS***
  2   -267.4345405617  -0.052698337705 0.15631926  0.00519366  0.0498900 0.0000
  3   -267.5158163963  -0.081275834613 0.06599406  0.00199265  0.0722775 0.0000
  4   -267.5330159159  -0.017199519558 0.02665289  0.00072070  0.0081585 0.0000
  5   -267.5335229006  -0.000506984702 0.01701391  0.00038862  0.0037997 0.0000
                      *** Initiating the SOSCF procedure ***
                           *** Shutting down DIIS ***
                      *** Re-Reading the Fockian *** 
                      *** Removing any level shift *** 
ITER      Energy       Delta-E        Grad      Rot      Max-DP    RMS-DP
  6   -267.53358964  -0.0000667425  0.000405  0.000405  0.019645  0.000470
               *** Restarting incremental Fock matrix formation ***
  7   -267.53369705  -0.0001074047  0.000075  0.000138  0.001676  0.000088
  8   -267.53369761  -0.0000005650  0.000023  0.000067  0.000747  0.000030
  9   -267.53369766  -0.0000000477  0.000024  0.000033  0.000189  0.000010
 10   -267.53369768  -0.0000000160  0.000012  0.000018  0.000119  0.000005
 11   -267.53369767   0.0000000044  0.000008  0.000008  0.000052  0.000003
                 **** Energy Check signals convergence ****
              ***Rediagonalizing the Fockian in SOSCF/NRSCF***

               *****************************************************
               *                     SUCCESS                       *
               *           SCF CONVERGED AFTER  12 CYCLES          *
               *****************************************************

Old exchange energy                            =    -18.327895330 Eh
New exchange energy                            =    -18.327810011 Eh
Exchange energy change after final integration =      0.000085319 Eh
Total energy after final integration           =   -267.533612359 Eh
Final COS-X integration done in                =     1.247 sec

----------------
TOTAL SCF ENERGY
----------------

Total Energy       :         -267.53361236 Eh           -7279.95970 eV

Components:
Nuclear Repulsion  :          169.16063337 Eh            4603.09485 eV
Electronic Energy  :         -436.69424573 Eh          -11883.05455 eV
One Electron Energy:         -707.92409252 Eh          -19263.59390 eV
Two Electron Energy:          271.22984679 Eh            7380.53935 eV
Max COSX asymmetry :            0.00000632 Eh               0.00017 eV

Virial components:
Potential Energy   :         -532.66790999 Eh          -14494.63072 eV
Kinetic Energy     :          265.13429763 Eh            7214.67103 eV
Virial Ratio       :            2.00904943


DFT components:
N(Alpha)           :       20.000195170839 electrons
N(Beta)            :       20.000195170839 electrons
N(Total)           :       40.000390341678 electrons
E(XC)              :      -17.078845437180 Eh       
DFET-embed. en.    :        0.000000000000 Eh       

---------------
SCF CONVERGENCE
---------------

  Last Energy change         ...   -5.9457e-09  Tolerance :   1.0000e-08
  Last MAX-Density change    ...    2.2204e-15  Tolerance :   1.0000e-07
  Last RMS-Density change    ...    3.6148e-17  Tolerance :   5.0000e-09
  Last Orbital Gradient      ...    8.3594e-07  Tolerance :   1.0000e-05
  Last Orbital Rotation      ...    1.0656e-06  Tolerance :   1.0000e-05

             **** THE GBW FILE WAS UPDATED (SVPD_M062X_A_wt_dlpno_neg.gbw) ****
             **** DENSITY SVPD_M062X_A_wt_dlpno_neg.scfp WAS UPDATED ****
             **** ENERGY FILE WAS UPDATED (SVPD_M062X_A_wt_dlpno_neg.en.tmp) ****
             **** THE GBW FILE WAS UPDATED (SVPD_M062X_A_wt_dlpno_neg.gbw) ****
             **** DENSITY SVPD_M062X_A_wt_dlpno_neg.scfp WAS UPDATED ****
----------------
ORBITAL ENERGIES
----------------

  NO   OCC          E(Eh)            E(eV) 
   0   2.0000     -19.371970      -527.1381 
   1   2.0000     -19.371212      -527.1175 
   2   2.0000     -10.437223      -284.0113 
   3   2.0000     -10.387839      -282.6675 
   4   2.0000     -10.375475      -282.3310 
   5   2.0000      -0.928822       -25.2745 
   6   2.0000      -0.828546       -22.5459 
   7   2.0000      -0.694474       -18.8976 
   8   2.0000      -0.555277       -15.1098 
   9   2.0000      -0.394354       -10.7309 
  10   2.0000      -0.363308        -9.8861 
  11   2.0000      -0.333965        -9.0876 
  12   2.0000      -0.302009        -8.2181 
  13   2.0000      -0.284559        -7.7432 
  14   2.0000      -0.279286        -7.5998 
  15   2.0000      -0.246262        -6.7011 
  16   2.0000      -0.229073        -6.2334 
  17   2.0000      -0.111355        -3.0301 
  18   2.0000      -0.110202        -2.9987 
  19   2.0000      -0.102613        -2.7922 
  20   0.0000       0.172808         4.7024 
  21   0.0000       0.207441         5.6448 
  22   0.0000       0.215845         5.8735 
  23   0.0000       0.241544         6.5728 
  24   0.0000       0.264158         7.1881 
  25   0.0000       0.266228         7.2444 
  26   0.0000       0.281265         7.6536 
  27   0.0000       0.285299         7.7634 
  28   0.0000       0.294695         8.0191 
  29   0.0000       0.303902         8.2696 
  30   0.0000       0.315520         8.5857 
  31   0.0000       0.329874         8.9763 
  32   0.0000       0.336513         9.1570 
  33   0.0000       0.339431         9.2364 
  34   0.0000       0.350411         9.5352 
  35   0.0000       0.374883        10.2011 
  36   0.0000       0.382379        10.4051 
  37   0.0000       0.410629        11.1738 
  38   0.0000       0.435372        11.8471 
  39   0.0000       0.443277        12.0622 
  40   0.0000       0.454508        12.3678 
  41   0.0000       0.473010        12.8713 
  42   0.0000       0.484127        13.1738 
  43   0.0000       0.491449        13.3730 
  44   0.0000       0.513982        13.9861 
  45   0.0000       0.522342        14.2137 
  46   0.0000       0.527111        14.3434 
  47   0.0000       0.531867        14.4728 
  48   0.0000       0.546170        14.8620 
  49   0.0000       0.549301        14.9472 
  50   0.0000       0.558578        15.1997 
  51   0.0000       0.573437        15.6040 
  52   0.0000       0.588758        16.0209 
  53   0.0000       0.594962        16.1897 
  54   0.0000       0.602299        16.3894 
  55   0.0000       0.620384        16.8815 
  56   0.0000       0.631796        17.1920 
  57   0.0000       0.638825        17.3833 
  58   0.0000       0.657801        17.8997 
  59   0.0000       0.664177        18.0732 
  60   0.0000       0.668895        18.2015 
  61   0.0000       0.687485        18.7074 
  62   0.0000       0.704174        19.1615 
  63   0.0000       0.712510        19.3884 
  64   0.0000       0.719800        19.5868 
  65   0.0000       0.745538        20.2871 
  66   0.0000       0.754533        20.5319 
  67   0.0000       0.763883        20.7863 
  68   0.0000       0.772910        21.0319 
  69   0.0000       0.790289        21.5049 
  70   0.0000       0.829829        22.5808 
  71   0.0000       0.839907        22.8550 
  72   0.0000       0.868887        23.6436 
  73   0.0000       0.901277        24.5250 
  74   0.0000       0.905136        24.6300 
  75   0.0000       0.908746        24.7282 
  76   0.0000       0.919463        25.0199 
  77   0.0000       0.939356        25.5612 
  78   0.0000       0.953827        25.9550 
  79   0.0000       0.983424        26.7603 
  80   0.0000       1.033740        28.1295 
  81   0.0000       1.046200        28.4685 
  82   0.0000       1.110037        30.2056 
  83   0.0000       1.133305        30.8388 
  84   0.0000       1.158461        31.5233 
  85   0.0000       1.183233        32.1974 
  86   0.0000       1.204887        32.7866 
  87   0.0000       1.212657        32.9981 
  88   0.0000       1.246054        33.9069 
  89   0.0000       1.251892        34.0657 
  90   0.0000       1.266822        34.4720 
  91   0.0000       1.294994        35.2386 
  92   0.0000       1.321914        35.9711 
  93   0.0000       1.343080        36.5471 
  94   0.0000       1.414155        38.4811 
  95   0.0000       1.463942        39.8359 
  96   0.0000       1.494979        40.6804 
  97   0.0000       1.554376        42.2967 
  98   0.0000       1.757832        47.8330 
  99   0.0000       1.776382        48.3378 
 100   0.0000       1.792391        48.7734 
 101   0.0000       1.797504        48.9126 
 102   0.0000       1.801808        49.0297 
 103   0.0000       1.840553        50.0840 
 104   0.0000       1.885404        51.3044 
 105   0.0000       1.898186        51.6523 
 106   0.0000       1.943776        52.8928 
 107   0.0000       1.949583        53.0509 
 108   0.0000       1.998821        54.3907 
 109   0.0000       2.059743        56.0485 
 110   0.0000       2.079268        56.5798 
 111   0.0000       2.100230        57.1502 
 112   0.0000       2.128811        57.9279 
 113   0.0000       2.173536        59.1449 
 114   0.0000       2.196228        59.7624 
 115   0.0000       2.228106        60.6298 
 116   0.0000       2.253262        61.3144 
 117   0.0000       2.272731        61.8442 
 118   0.0000       2.273516        61.8655 
 119   0.0000       2.329809        63.3973 
 120   0.0000       2.359805        64.2136 
 121   0.0000       2.421278        65.8863 
 122   0.0000       2.472818        67.2888 
 123   0.0000       2.531760        68.8927 
 124   0.0000       2.561011        69.6887 
 125   0.0000       2.659448        72.3673 
 126   0.0000       2.702187        73.5302 
 127   0.0000       2.741729        74.6062 
 128   0.0000       2.792290        75.9821 
 129   0.0000       2.849575        77.5409 
 130   0.0000       2.885613        78.5215 
 131   0.0000       3.091297        84.1185 
 132   0.0000       3.160734        86.0079 
 133   0.0000       3.177965        86.4768 
 134   0.0000       3.197319        87.0035 
 135   0.0000       3.206638        87.2570 
 136   0.0000       3.247308        88.3637 
 137   0.0000       3.265372        88.8553 
 138   0.0000       3.301728        89.8446 
 139   0.0000       3.342912        90.9653 
 140   0.0000       3.351705        91.2045 
 141   0.0000       3.494310        95.0850 
 142   0.0000       3.569280        97.1251 
 143   0.0000       3.742842       101.8479 
 144   0.0000       3.966358       107.9301 
 145   0.0000       4.089969       111.2937 

                    ********************************
                    * MULLIKEN POPULATION ANALYSIS *
                    ********************************

-----------------------
MULLIKEN ATOMIC CHARGES
-----------------------
   0 C :    0.561029
   1 C :   -0.288579
   2 H :   -0.087284
   3 H :   -0.013252
   4 C :    0.560534
   5 O :   -0.755031
   6 O :   -0.780765
   7 H :   -0.067899
   8 H :   -0.086949
   9 H :   -0.041804
Sum of atomic charges:   -1.0000000

--------------------------------
MULLIKEN REDUCED ORBITAL CHARGES
--------------------------------
  0 C s       :     2.524533  s :     2.524533
      pz      :     0.938239  p :     2.784682
      px      :     0.890505
      py      :     0.955939
      dz2     :     0.053752  d :     0.129757
      dxz     :     0.004546
      dyz     :     0.034068
      dx2y2   :     0.026433
      dxy     :     0.010957
  1 C s       :     2.857941  s :     2.857941
      pz      :     0.957520  p :     3.014044
      px      :     1.039165
      py      :     1.017359
      dz2     :     0.093761  d :     0.416593
      dxz     :     0.049335
      dyz     :     0.076209
      dx2y2   :     0.135276
      dxy     :     0.062012
  2 H s       :     1.030473  s :     1.030473
      pz      :     0.009074  p :     0.056811
      px      :     0.003823
      py      :     0.043913
  3 H s       :     0.997398  s :     0.997398
      pz      :     0.029171  p :     0.015854
      px      :    -0.014924
      py      :     0.001607
  4 C s       :     2.874849  s :     2.874849
      pz      :     0.724691  p :     2.352431
      px      :     0.816001
      py      :     0.811739
      dz2     :     0.019846  d :     0.212186
      dxz     :     0.021703
      dyz     :     0.057775
      dx2y2   :     0.060988
      dxy     :     0.051873
  5 O s       :     3.925459  s :     3.925459
      pz      :     1.693040  p :     4.803545
      px      :     1.368678
      py      :     1.741827
      dz2     :     0.002092  d :     0.026027
      dxz     :     0.010714
      dyz     :     0.002859
      dx2y2   :     0.006511
      dxy     :     0.003852
  6 O s       :     3.942324  s :     3.942324
      pz      :     1.577190  p :     4.817459
      px      :     1.871711
      py      :     1.368558
      dz2     :     0.005725  d :     0.020983
      dxz     :     0.002487
      dyz     :     0.007269
      dx2y2   :     0.006527
      dxy     :    -0.001026
  7 H s       :     1.035433  s :     1.035433
      pz      :     0.019493  p :     0.032466
      px      :     0.030873
      py      :    -0.017899
  8 H s       :     1.070870  s :     1.070870
      pz      :    -0.022733  p :     0.016079
      px      :     0.007150
      py      :     0.031662
  9 H s       :     0.997516  s :     0.997516
      pz      :     0.028777  p :     0.044288
      px      :    -0.002062
      py      :     0.017572


                     *******************************
                     * LOEWDIN POPULATION ANALYSIS *
                     *******************************

----------------------
LOEWDIN ATOMIC CHARGES
----------------------
   0 C :    0.099008
   1 C :   -0.041136
   2 H :    0.000533
   3 H :    0.011496
   4 C :   -0.296276
   5 O :   -0.343901
   6 O :   -0.335170
   7 H :   -0.022380
   8 H :   -0.043784
   9 H :   -0.028390

-------------------------------
LOEWDIN REDUCED ORBITAL CHARGES
-------------------------------
  0 C s       :     2.703223  s :     2.703223
      pz      :     0.923655  p :     2.768082
      px      :     0.916228
      py      :     0.928199
      dz2     :     0.066902  d :     0.429686
      dxz     :     0.096409
      dyz     :     0.102767
      dx2y2   :     0.060128
      dxy     :     0.103481
  1 C s       :     2.692974  s :     2.692974
      pz      :     0.897747  p :     2.708858
      px      :     0.909154
      py      :     0.901956
      dz2     :     0.097187  d :     0.639304
      dxz     :     0.143831
      dyz     :     0.139645
      dx2y2   :     0.129011
      dxy     :     0.129630
  2 H s       :     0.734728  s :     0.734728
      pz      :     0.082495  p :     0.264739
      px      :     0.084564
      py      :     0.097681
  3 H s       :     0.732917  s :     0.732917
      pz      :     0.095985  p :     0.255588
      px      :     0.084981
      py      :     0.074622
  4 C s       :     2.670143  s :     2.670143
      pz      :     0.693724  p :     2.412146
      px      :     0.878344
      py      :     0.840077
      dz2     :     0.148322  d :     1.213987
      dxz     :     0.221257
      dyz     :     0.193365
      dx2y2   :     0.318562
      dxy     :     0.332481
  5 O s       :     3.469111  s :     3.469111
      pz      :     1.535498  p :     4.646683
      px      :     1.488655
      py      :     1.622530
      dz2     :     0.025088  d :     0.228108
      dxz     :     0.049035
      dyz     :     0.016137
      dx2y2   :     0.073076
      dxy     :     0.064772
  6 O s       :     3.464412  s :     3.464412
      pz      :     1.483820  p :     4.642188
      px      :     1.701233
      py      :     1.457135
      dz2     :     0.029419  d :     0.228570
      dxz     :     0.022608
      dyz     :     0.061667
      dx2y2   :     0.051860
      dxy     :     0.063015
  7 H s       :     0.747419  s :     0.747419
      pz      :     0.099572  p :     0.274961
      px      :     0.095463
      py      :     0.079927
  8 H s       :     0.759101  s :     0.759101
      pz      :     0.084547  p :     0.284683
      px      :     0.105737
      py      :     0.094399
  9 H s       :     0.735640  s :     0.735640
      pz      :     0.101628  p :     0.292750
      px      :     0.086608
      py      :     0.104514


                      *****************************
                      * MAYER POPULATION ANALYSIS *
                      *****************************

  NA   - Mulliken gross atomic population
  ZA   - Total nuclear charge
  QA   - Mulliken gross atomic charge
  VA   - Mayer's total valence
  BVA  - Mayer's bonded valence
  FA   - Mayer's free valence

  ATOM       NA         ZA         QA         VA         BVA        FA
  0 C      5.4390     6.0000     0.5610     3.9784     3.9784    -0.0000
  1 C      6.2886     6.0000    -0.2886     4.7364     4.7364    -0.0000
  2 H      1.0873     1.0000    -0.0873     1.1982     1.1982    -0.0000
  3 H      1.0133     1.0000    -0.0133     1.0392     1.0392     0.0000
  4 C      5.4395     6.0000     0.5605     4.0229     4.0229     0.0000
  5 O      8.7550     8.0000    -0.7550     1.4218     1.4218    -0.0000
  6 O      8.7808     8.0000    -0.7808     1.4956     1.4956     0.0000
  7 H      1.0679     1.0000    -0.0679     1.0422     1.0422    -0.0000
  8 H      1.0869     1.0000    -0.0869     1.0104     1.0104    -0.0000
  9 H      1.0418     1.0000    -0.0418     1.0794     1.0794    -0.0000

  Mayer bond orders larger than 0.100000
B(  0-C ,  1-C ) :   1.2760 B(  0-C ,  7-H ) :   0.8566 B(  0-C ,  8-H ) :   0.8384 
B(  0-C ,  9-H ) :   0.8289 B(  1-C ,  2-H ) :   0.9838 B(  1-C ,  3-H ) :   0.8909 
B(  1-C ,  4-C ) :   0.9997 B(  1-C ,  7-H ) :   0.1641 B(  1-C ,  8-H ) :   0.1702 
B(  1-C ,  9-H ) :   0.2016 B(  2-H ,  4-C ) :   0.1852 B(  4-C ,  5-O ) :   1.3836 
B(  4-C ,  6-O ) :   1.4042 

-------
TIMINGS
-------

Total SCF time: 0 days 0 hours 0 min 13 sec 

Total time                  ....      13.064 sec
Sum of individual times     ....      12.903 sec  ( 98.8%)

Fock matrix formation       ....      11.882 sec  ( 91.0%)
  Split-RI-J                ....       0.749 sec  (  6.3% of F)
  Chain of spheres X        ....       6.731 sec  ( 56.7% of F)
  XC integration            ....       4.373 sec  ( 36.8% of F)
    Basis function eval.    ....       0.728 sec  ( 16.6% of XC)
    Density eval.           ....       1.334 sec  ( 30.5% of XC)
    XC-Functional eval.     ....       0.348 sec  (  8.0% of XC)
    XC-Potential eval.      ....       1.825 sec  ( 41.7% of XC)
Diagonalization             ....       0.040 sec  (  0.3%)
Density matrix formation    ....       0.003 sec  (  0.0%)
Population analysis         ....       0.005 sec  (  0.0%)
Initial guess               ....       0.085 sec  (  0.7%)
Orbital Transformation      ....       0.000 sec  (  0.0%)
Orbital Orthonormalization  ....       0.000 sec  (  0.0%)
DIIS solution               ....       0.025 sec  (  0.2%)
SOSCF solution              ....       0.023 sec  (  0.2%)
Grid generation             ....       0.839 sec  (  6.4%)

Maximum memory used throughout the entire SCF-calculation: 49.5 MB


-------------------------------------------------------------------------------
                          DFT DISPERSION CORRECTION                            
                                                                               
                              DFTD3 V3.1  Rev 1                                
                              USING zero damping                               
-------------------------------------------------------------------------------
The M062X functional is recognized
Active option DFTDOPT                   ...         3   

molecular C6(AA) [au] = 865.622780 


            DFT-D V3
 parameters
 s6 scaling factor         :     1.0000 
 rs6 scaling factor        :     1.6190 
 s8 scaling factor         :     0.0000 
 rs8 scaling factor        :     1.0000 
 Damping factor alpha6     :    14.0000 
 Damping factor alpha8     :    16.0000 
 ad hoc parameters k1-k3   :    16.0000     1.3333    -4.0000 

 Edisp/kcal,au: -0.054796501250  -0.000087323774 
 E6   /kcal   :  -0.054796501 
 E8   /kcal   :  -0.000000000 
 % E8         :   0.000000000 

-------------------------   ----------------
Dispersion correction           -0.000087324
-------------------------   ----------------


-------------------------   --------------------
FINAL SINGLE POINT ENERGY      -267.533699683083
-------------------------   --------------------


                            ***************************************
                            *     ORCA property calculations      *
                            ***************************************

                                    ---------------------
                                    Active property flags
                                    ---------------------
   (+) Dipole Moment


------------------------------------------------------------------------------
                       ORCA ELECTRIC PROPERTIES CALCULATION
------------------------------------------------------------------------------

Dipole Moment Calculation                       ... on
Quadrupole Moment Calculation                   ... off
Polarizability Calculation                      ... off
GBWName                                         ... SVPD_M062X_A_wt_dlpno_neg.gbw
Electron density file                           ... SVPD_M062X_A_wt_dlpno_neg.scfp
The origin for moment calculation is the CENTER OF MASS  = ( 1.195239,  1.413886  7.051819)

-------------
DIPOLE MOMENT
-------------
                                X             Y             Z
Electronic contribution:      4.70322      -0.99102       3.34343
Nuclear contribution   :     -6.38408       1.63097      -4.40540
                        -----------------------------------------
Total Dipole Moment    :     -1.68086       0.63994      -1.06197
                        -----------------------------------------
Magnitude (a.u.)       :      2.08868
Magnitude (Debye)      :      5.30901



--------------------
Rotational spectrum 
--------------------
 
Rotational constants in cm-1:     0.319732     0.134414     0.104753 
Rotational constants in MHz :  9585.336550  4029.633034  3140.404334 

 Dipole components along the rotational axes: 
x,y,z [a.u.] :    -2.007912     0.518560    -0.248958 
x,y,z [Debye]:    -5.103706     1.318075    -0.632800 

 

Timings for individual modules:

Sum of individual times         ...       17.128 sec (=   0.285 min)
GTO integral calculation        ...        2.397 sec (=   0.040 min)  14.0 %
SCF iterations                  ...       14.731 sec (=   0.246 min)  86.0 %
                             ****ORCA TERMINATED NORMALLY****
TOTAL RUN TIME: 0 days 0 hours 0 minutes 17 seconds 649 msec
