
                                        *****************
                                        * O   R   C   A *
                                        *****************

                                            #,                                       
                                            ###                                      
                                            ####                                     
                                            #####                                    
                                            ######                                   
                                           ########,                                 
                                     ,,################,,,,,                         
                               ,,#################################,,                 
                          ,,##########################################,,             
                       ,#########################################, ''#####,          
                    ,#############################################,,   '####,        
                  ,##################################################,,,,####,       
                ,###########''''           ''''###############################       
              ,#####''   ,,,,##########,,,,          '''####'''          '####       
            ,##' ,,,,###########################,,,                        '##       
           ' ,,###''''                  '''############,,,                           
         ,,##''                                '''############,,,,        ,,,,,,###''
      ,#''                                            '''#######################'''  
     '                                                          ''''####''''         
             ,#######,   #######,   ,#######,      ##                                
            ,#'     '#,  ##    ##  ,#'     '#,    #''#        ######   ,####,        
            ##       ##  ##   ,#'  ##            #'  '#       #        #'  '#        
            ##       ##  #######   ##           ,######,      #####,   #    #        
            '#,     ,#'  ##    ##  '#,     ,#' ,#      #,         ##   #,  ,#        
             '#######'   ##     ##  '#######'  #'      '#     #####' # '####'        



                  #######################################################
                  #                        -***-                        #
                  #          Department of theory and spectroscopy      #
                  #    Directorship and core code : Frank Neese         #
                  #        Max Planck Institute fuer Kohlenforschung    #
                  #                Kaiser Wilhelm Platz 1               #
                  #                 D-45470 Muelheim/Ruhr               #
                  #                      Germany                        #
                  #                                                     #
                  #                  All rights reserved                #
                  #                        -***-                        #
                  #######################################################


                         Program Version 5.0.0 -  RELEASE  -
                                (SVN: $Rev: 19529$)
                ($Date: 2021-06-28 11:36:33 +0200 (Mo, 28 Jun 2021) $)


 With contributions from (in alphabetic order):
   Daniel Aravena         : Magnetic Suceptibility
   Michael Atanasov       : Ab Initio Ligand Field Theory (pilot matlab implementation)
   Alexander A. Auer      : GIAO ZORA, VPT2 properties, NMR spectrum
   Ute Becker             : Parallelization
   Giovanni Bistoni       : ED, misc. LED, open-shell LED, HFLD
   Martin Brehm           : Molecular dynamics
   Dmytro Bykov           : SCF Hessian
   Vijay G. Chilkuri      : MRCI spin determinant printing, contributions to CSF-ICE
   Dipayan Datta          : RHF DLPNO-CCSD density
   Achintya Kumar Dutta   : EOM-CC, STEOM-CC
   Dmitry Ganyushin       : Spin-Orbit,Spin-Spin,Magnetic field MRCI
   Miquel Garcia          : C-PCM Hessian, Gaussian charge scheme
   Yang Guo               : DLPNO-NEVPT2, F12-NEVPT2, CIM, IAO-localization
   Andreas Hansen         : Spin unrestricted coupled pair/coupled cluster methods
   Benjamin Helmich-Paris : MC-RPA, TRAH-SCF, COSX integrals
   Lee Huntington         : MR-EOM, pCC
   Robert Izsak           : Overlap fitted RIJCOSX, COSX-SCS-MP3, EOM
   Marcus Kettner         : VPT2
   Christian Kollmar      : KDIIS, OOCD, Brueckner-CCSD(T), CCSD density, CASPT2, CASPT2-K
   Simone Kossmann        : Meta GGA functionals, TD-DFT gradient, OOMP2, MP2 Hessian
   Martin Krupicka        : Initial AUTO-CI
   Lucas Lang             : DCDCAS
   Marvin Lechner         : AUTO-CI (C++ implementation), FIC-MRCC
   Dagmar Lenk            : GEPOL surface, SMD
   Dimitrios Liakos       : Extrapolation schemes; Compound Job, initial MDCI parallelization
   Dimitrios Manganas     : Further ROCIS development; embedding schemes
   Dimitrios Pantazis     : SARC Basis sets
   Anastasios Papadopoulos: AUTO-CI, single reference methods and gradients
   Taras Petrenko         : DFT Hessian,TD-DFT gradient, ASA, ECA, R-Raman, ABS, FL, XAS/XES, NRVS
   Peter Pinski           : DLPNO-MP2, DLPNO-MP2 Gradient
   Christoph Reimann      : Effective Core Potentials
   Marius Retegan         : Local ZFS, SOC
   Christoph Riplinger    : Optimizer, TS searches, QM/MM, DLPNO-CCSD(T), (RO)-DLPNO pert. Triples
   Tobias Risthaus        : Range-separated hybrids, TD-DFT gradient, RPA, STAB
   Michael Roemelt        : Original ROCIS implementation
   Masaaki Saitow         : Open-shell DLPNO-CCSD energy and density
   Barbara Sandhoefer     : DKH picture change effects
   Avijit Sen             : IP-ROCIS
   Kantharuban Sivalingam : CASSCF convergence, NEVPT2, FIC-MRCI
   Bernardo de Souza      : ESD, SOC TD-DFT
   Georgi Stoychev        : AutoAux, RI-MP2 NMR
   Willem Van den Heuvel  : Paramagnetic NMR
   Boris Wezisla          : Elementary symmetry handling
   Frank Wennmohs         : Technical directorship


 We gratefully acknowledge several colleagues who have allowed us to
 interface, adapt or use parts of their codes:
   Stefan Grimme, W. Hujo, H. Kruse, P. Pracht,  : VdW corrections, initial TS optimization,
                  C. Bannwarth, S. Ehlert          DFT functionals, gCP, sTDA/sTD-DF
   Ed Valeev, F. Pavosevic, A. Kumar             : LibInt (2-el integral package), F12 methods
   Garnet Chan, S. Sharma, J. Yang, R. Olivares  : DMRG
   Ulf Ekstrom                                   : XCFun DFT Library
   Mihaly Kallay                                 : mrcc  (arbitrary order and MRCC methods)
   Jiri Pittner, Ondrej Demel                    : Mk-CCSD
   Frank Weinhold                                : gennbo (NPA and NBO analysis)
   Christopher J. Cramer and Donald G. Truhlar   : smd solvation model
   Lars Goerigk                                  : TD-DFT with DH, B97 family of functionals
   V. Asgeirsson, H. Jonsson                     : NEB implementation
   FAccTs GmbH                                   : IRC, NEB, NEB-TS, DLPNO-Multilevel, CI-OPT
                                                   MM, QMMM, 2- and 3-layer-ONIOM, Crystal-QMMM,
                                                   LR-CPCM, SF, NACMEs, symmetry and pop. for TD-DFT,
                                                   nearIR, NL-DFT gradient (VV10), updates on ESD,
                                                   ML-optimized integration grids
   S Lehtola, MJT Oliveira, MAL Marques          : LibXC Library
   Liviu Ungur et al                             : ANISO software


 Your calculation uses the libint2 library for the computation of 2-el integrals
 For citations please refer to: http://libint.valeyev.net

 Your ORCA version has been built with support for libXC version: 5.1.0
 For citations please refer to: https://tddft.org/programs/libxc/

 This ORCA versions uses:
   CBLAS   interface :  Fast vector & matrix operations
   LAPACKE interface :  Fast linear algebra routines
   SCALAPACK package :  Parallel linear algebra routines
   Shared memory     :  Shared parallel matrices
   BLAS/LAPACK       :  OpenBLAS 0.3.15  USE64BITINT DYNAMIC_ARCH NO_AFFINITY Haswell SINGLE_THREADED
        Core in use  :  Haswell
   Copyright (c) 2011-2014, The OpenBLAS Project




***************************************
The coordinates will be read from file: D1.xyz
***************************************


XCFun DFT library Copyright 2009-2010 Ulf Ekstrom and contributors.
See http://admol.org/xcfun for more information.
This is free software; see the source code for copying conditions.
There is ABSOLUTELY NO WARRANTY; not even for MERCHANTABILITY or FITNESS FOR A PARTICULAR PURPOSE.
For details see the documentation.
Scientific users of this library should cite U. Ekstrom, L. Visscher, R. Bast, A. J. Thorvaldsen and K. Ruud;
J.Chem.Theor.Comp. 2010, DOI: 10.1021/ct100117s
XCFun Version 0.99 

================================================================================

----- Orbital basis set information -----
Your calculation utilizes the basis: def2-TZVP
   F. Weigend and R. Ahlrichs, Phys. Chem. Chem. Phys. 7, 3297 (2005).

----- AuxJ basis set information -----
Your calculation utilizes the auxiliary basis: def2/J
   F. Weigend, Phys. Chem. Chem. Phys. 8, 1057 (2006).

================================================================================
                                        WARNINGS
                       Please study these warnings very carefully!
================================================================================


INFO   : the flag for use of the SHARK integral package has been found!

================================================================================
                                       INPUT FILE
================================================================================
NAME = LC_BLYP_D1_wb97.com
|  1> !LC-BLYP RIJCOSX def2-TZVP def2/J TightSCF xyzfile                                                                                         
|  2> 
|  3> *xyzfile 0 1 D1.xyz
|  4> 
|  5> %MaxCore 64000
|  6> 
|  7> %pal nprocs 18                                                                                                                                                  
|  8> end  
|  9> 
| 10> %scf
| 11>   MaxIter 150
| 12> end
| 13> 
| 14> 
| 15>                          ****END OF INPUT****
================================================================================

                       ****************************
                       * Single Point Calculation *
                       ****************************

---------------------------------
CARTESIAN COORDINATES (ANGSTROEM)
---------------------------------
  C     -0.699123    3.489451    3.755163
  H     -0.966716    4.349013    3.140491
  C     -1.080669    3.792957    5.156857
  C      0.776956    3.138391    3.617408
  H     -1.331455    2.656510    3.446323
  H      1.371398    3.888342    4.149744
  H      1.046926    3.232057    2.561331
  C      1.118917    1.731170    4.115155
  H      2.200573    1.654226    4.254882
  C      0.659466    0.635182    3.153306
  H      0.677024    1.576674    5.103150
  H      1.312288    0.638870    2.274207
  H     -0.339563    0.868049    2.772876
  C      0.639957   -0.771175    3.755619
  C     -0.341821   -0.965537    4.915046
  H      1.648266   -1.028665    4.097015
  H      0.398568   -1.482386    2.958453
  H     -0.279892   -2.005646    5.252547
  C     -1.789164   -0.639231    4.557496
  H     -0.032380   -0.352918    5.765118
  H     -2.107151   -1.270102    3.719619
  H     -1.856352    0.391636    4.197604
  C     -2.790700   -0.785275    5.702812
  H     -2.867308   -1.835651    6.001675
  H     -3.774554   -0.486577    5.334807
  C     -2.453797    0.055101    6.941445
  C     -2.078419    1.480421    6.564098
  H     -1.625584   -0.382163    7.498914
  H     -3.325274    0.087746    7.599175
  H     -0.874488    4.762737    5.427344
  H     -0.680793    3.134762    5.839000
  H     -2.057550    3.531691    5.346197
  F     -0.901252    1.858156    6.828104
  O     -2.936582    2.177309    5.964151

----------------------------
CARTESIAN COORDINATES (A.U.)
----------------------------
  NO LB      ZA    FRAG     MASS         X           Y           Z
   0 C     6.0000    0    12.011   -1.321151    6.594107    7.096230
   1 H     1.0000    0     1.008   -1.826828    8.218444    5.934667
   2 C     6.0000    0    12.011   -2.042169    7.167650    9.745048
   3 C     6.0000    0    12.011    1.468234    5.930700    6.835910
   4 H     1.0000    0     1.008   -2.516086    5.020077    6.512606
   5 H     1.0000    0     1.008    2.591567    7.347901    7.841880
   6 H     1.0000    0     1.008    1.978404    6.107702    4.840214
   7 C     6.0000    0    12.011    2.114447    3.271437    7.776517
   8 H     1.0000    0     1.008    4.158481    3.126034    8.040562
   9 C     6.0000    0    12.011    1.246211    1.200320    5.958884
  10 H     1.0000    0     1.008    1.279390    2.979482    9.643557
  11 H     1.0000    0     1.008    2.479865    1.207290    4.297628
  12 H     1.0000    0     1.008   -0.641681    1.640376    5.239977
  13 C     6.0000    0    12.011    1.209343   -1.457310    7.097091
  14 C     6.0000    0    12.011   -0.645948   -1.824600    9.288090
  15 H     1.0000    0     1.008    3.114771   -1.943894    7.742235
  16 H     1.0000    0     1.008    0.753184   -2.801304    5.590665
  17 H     1.0000    0     1.008   -0.528920   -3.790122    9.925875
  18 C     6.0000    0    12.011   -3.381030   -1.207972    8.612420
  19 H     1.0000    0     1.008   -0.061190   -0.666919   10.894494
  20 H     1.0000    0     1.008   -3.981939   -2.400145    7.029062
  21 H     1.0000    0     1.008   -3.507997    0.740085    7.932321
  22 C     6.0000    0    12.011   -5.273660   -1.483954   10.776754
  23 H     1.0000    0     1.008   -5.418427   -3.468878   11.341521
  24 H     1.0000    0     1.008   -7.132873   -0.919497   10.081324
  25 C     6.0000    0    12.011   -4.637004    0.104127   13.117430
  26 C     6.0000    0    12.011   -3.927642    2.797591   12.404347
  27 H     1.0000    0     1.008   -3.071909   -0.722184   14.170894
  28 H     1.0000    0     1.008   -6.283856    0.165815   14.360359
  29 H     1.0000    0     1.008   -1.652543    9.000268   10.256194
  30 H     1.0000    0     1.008   -1.286512    5.923842   11.034111
  31 H     1.0000    0     1.008   -3.888205    6.673929   10.102848
  32 F     9.0000    0    18.998   -1.703119    3.511406   12.903246
  33 O     8.0000    0    15.999   -5.549337    4.114519   11.270612

--------------------------------
INTERNAL COORDINATES (ANGSTROEM)
--------------------------------
 C      0   0   0     0.000000000000     0.00000000     0.00000000
 H      1   0   0     1.090080228683     0.00000000     0.00000000
 C      1   2   0     1.484062228195   107.95122044     0.00000000
 C      1   2   3     1.523491800646   111.62661466   235.94596881
 H      1   2   3     1.090420731016   107.47412343   113.86924961
 H      4   1   2     1.095066167671   108.91577889    73.33917988
 H      4   1   2     1.094054880658   107.85660037   318.65236204
 C      4   1   2     1.531326886329   113.49856294   196.88181580
 H      8   4   1     1.093354418470   109.09474713   196.07266807
 C      8   4   1     1.528868410480   112.77807530    74.67573945
 H      8   4   1     1.093285351030   109.47166696   311.56695916
 H     10   8   4     1.094990772295   108.87506388    72.92500559
 H     10   8   4     1.094081201665   109.91261362   318.01630685
 C     10   8   4     1.530033711332   114.52478952   195.30562967
 C     14  10   8     1.531644259627   115.01190684    63.47928589
 H     14  10   8     1.095234367908   109.09071856   300.78217065
 H     14  10   8     1.095245678813   108.24979681   185.76432750
 H     15  14  10     1.095248772797   108.51357735   179.14060860
 C     15  14  10     1.526145061463   113.79206563    57.36072420
 H     15  14  10     1.092555458239   109.65012441   294.57223887
 H     19  15  14     1.095970359150   109.34142877    58.32926859
 H     19  15  14     1.093949227903   109.68221703   302.67407563
 C     19  15  14     1.528448093895   115.17877748   181.61636269
 H     23  19  15     1.094749933178   110.00458220   294.17702094
 H     23  19  15     1.092069575690   108.16095550   177.70450850
 C     23  19  15     1.534257813282   114.12475746    56.64138246
 C     26  23  19     1.521458757783   111.53558820    46.24945948
 H     26  23  19     1.089912023595   111.10262837   285.21676599
 H     26  23  19     1.092312251082   109.10486811   166.16318888
 H      3   1   2     1.027689618689   112.95431010   319.55314779
 H      3   1   2     1.028805246152   113.29568519   192.85156167
 H      3   1   2     1.028788000072   111.47002385    87.28894026
 F     27  26  23     1.264161770161   117.24973237   243.52466920
 O     27  26  23     1.257789344546   117.97033462    60.57688874

---------------------------
INTERNAL COORDINATES (A.U.)
---------------------------
 C      0   0   0     0.000000000000     0.00000000     0.00000000
 H      1   0   0     2.059953096213     0.00000000     0.00000000
 C      1   2   0     2.804471176985   107.95122044     0.00000000
 C      1   2   3     2.878982270496   111.62661466   235.94596881
 H      1   2   3     2.060596552371   107.47412343   113.86924961
 H      4   1   2     2.069375155421   108.91577889    73.33917988
 H      4   1   2     2.067464099924   107.85660037   318.65236204
 C      4   1   2     2.893788436671   113.49856294   196.88181580
 H      8   4   1     2.066140418220   109.09474713   196.07266807
 C      8   4   1     2.889142590612   112.77807530    74.67573945
 H      8   4   1     2.066009899675   109.47166696   311.56695916
 H     10   8   4     2.069232678809   108.87506388    72.92500559
 H     10   8   4     2.067513839417   109.91261362   318.01630685
 C     10   8   4     2.891344690085   114.52478952   195.30562967
 C     14  10   8     2.894388185287   115.01190684    63.47928589
 H     14  10   8     2.069693007805   109.09071856   300.78217065
 H     14  10   8     2.069714382317   108.24979681   185.76432750
 H     15  14  10     2.069720229100   108.51357735   179.14060860
 C     15  14  10     2.883996206801   113.79206563    57.36072420
 H     15  14  10     2.064630602193   109.65012441   294.57223887
 H     19  15  14     2.071083829688   109.34142877    58.32926859
 H     19  15  14     2.067264445151   109.68221703   302.67407563
 C     19  15  14     2.888348307375   115.17877748   181.61636269
 H     23  19  15     2.068777558836   110.00458220   294.17702094
 H     23  19  15     2.063712417241   108.16095550   177.70450850
 C     23  19  15     2.899327085932   114.12475746    56.64138246
 C     26  23  19     2.875140376265   111.53558820    46.24945948
 H     26  23  19     2.059635234663   111.10262837   285.21676599
 H     26  23  19     2.064171007272   109.10486811   166.16318888
 H      3   1   2     1.942051929996   112.95431010   319.55314779
 H      3   1   2     1.944160160370   113.29568519   192.85156167
 H      3   1   2     1.944127570001   111.47002385    87.28894026
 F     27  26  23     2.388919534577   117.24973237   243.52466920
 O     27  26  23     2.376877395356   117.97033462    60.57688874

---------------------
BASIS SET INFORMATION
---------------------
There are 4 groups of distinct atoms

 Group   1 Type C   : 11s6p2d1f contracted to 5s3p2d1f pattern {62111/411/11/1}
 Group   2 Type H   : 5s1p contracted to 3s1p pattern {311/1}
 Group   3 Type F   : 11s6p2d1f contracted to 5s3p2d1f pattern {62111/411/11/1}
 Group   4 Type O   : 11s6p2d1f contracted to 5s3p2d1f pattern {62111/411/11/1}

Atom   0C    basis set group =>   1
Atom   1H    basis set group =>   2
Atom   2C    basis set group =>   1
Atom   3C    basis set group =>   1
Atom   4H    basis set group =>   2
Atom   5H    basis set group =>   2
Atom   6H    basis set group =>   2
Atom   7C    basis set group =>   1
Atom   8H    basis set group =>   2
Atom   9C    basis set group =>   1
Atom  10H    basis set group =>   2
Atom  11H    basis set group =>   2
Atom  12H    basis set group =>   2
Atom  13C    basis set group =>   1
Atom  14C    basis set group =>   1
Atom  15H    basis set group =>   2
Atom  16H    basis set group =>   2
Atom  17H    basis set group =>   2
Atom  18C    basis set group =>   1
Atom  19H    basis set group =>   2
Atom  20H    basis set group =>   2
Atom  21H    basis set group =>   2
Atom  22C    basis set group =>   1
Atom  23H    basis set group =>   2
Atom  24H    basis set group =>   2
Atom  25C    basis set group =>   1
Atom  26C    basis set group =>   1
Atom  27H    basis set group =>   2
Atom  28H    basis set group =>   2
Atom  29H    basis set group =>   2
Atom  30H    basis set group =>   2
Atom  31H    basis set group =>   2
Atom  32F    basis set group =>   3
Atom  33O    basis set group =>   4
---------------------------------
AUXILIARY/J BASIS SET INFORMATION
---------------------------------
There are 4 groups of distinct atoms

 Group   1 Type C   : 12s5p4d2f1g contracted to 6s4p3d1f1g pattern {711111/2111/211/2/1}
 Group   2 Type H   : 5s2p1d contracted to 3s1p1d pattern {311/2/1}
 Group   3 Type F   : 12s5p4d2f1g contracted to 6s4p3d1f1g pattern {711111/2111/211/2/1}
 Group   4 Type O   : 12s5p4d2f1g contracted to 6s4p3d1f1g pattern {711111/2111/211/2/1}

Atom   0C    basis set group =>   1
Atom   1H    basis set group =>   2
Atom   2C    basis set group =>   1
Atom   3C    basis set group =>   1
Atom   4H    basis set group =>   2
Atom   5H    basis set group =>   2
Atom   6H    basis set group =>   2
Atom   7C    basis set group =>   1
Atom   8H    basis set group =>   2
Atom   9C    basis set group =>   1
Atom  10H    basis set group =>   2
Atom  11H    basis set group =>   2
Atom  12H    basis set group =>   2
Atom  13C    basis set group =>   1
Atom  14C    basis set group =>   1
Atom  15H    basis set group =>   2
Atom  16H    basis set group =>   2
Atom  17H    basis set group =>   2
Atom  18C    basis set group =>   1
Atom  19H    basis set group =>   2
Atom  20H    basis set group =>   2
Atom  21H    basis set group =>   2
Atom  22C    basis set group =>   1
Atom  23H    basis set group =>   2
Atom  24H    basis set group =>   2
Atom  25C    basis set group =>   1
Atom  26C    basis set group =>   1
Atom  27H    basis set group =>   2
Atom  28H    basis set group =>   2
Atom  29H    basis set group =>   2
Atom  30H    basis set group =>   2
Atom  31H    basis set group =>   2
Atom  32F    basis set group =>   3
Atom  33O    basis set group =>   4


           ************************************************************
           *        Program running with 18 parallel MPI-processes    *
           *              working on a common directory               *
           ************************************************************
------------------------------------------------------------------------------
                           ORCA GTO INTEGRAL CALCULATION
                           -- RI-GTO INTEGRALS CHOSEN --
------------------------------------------------------------------------------
------------------------------------------------------------------------------
                   ___                                                        
                  /   \      - P O W E R E D   B Y -                         
                 /     \                                                     
                 |  |  |   _    _      __       _____    __    __             
                 |  |  |  | |  | |    /  \     |  _  \  |  |  /  |          
                  \  \/   | |  | |   /    \    | | | |  |  | /  /          
                 / \  \   | |__| |  /  /\  \   | |_| |  |  |/  /          
                |  |  |   |  __  | /  /__\  \  |    /   |      \           
                |  |  |   | |  | | |   __   |  |    \   |  |\   \          
                \     /   | |  | | |  |  |  |  | |\  \  |  | \   \       
                 \___/    |_|  |_| |__|  |__|  |_| \__\ |__|  \__/        
                                                                              
                      - O R C A' S   B I G   F R I E N D -                    
                                      &                                       
                       - I N T E G R A L  F E E D E R -                       
                                                                              
 v1 FN, 2020, v2 2021                                                         
------------------------------------------------------------------------------


Reading SHARK input file LC_BLYP_D1_wb97.SHARKINP.tmp ... ok
----------------------
SHARK INTEGRAL PACKAGE
----------------------

Number of atoms                             ...     34
Number of basis functions                   ...    529
Number of shells                            ...    227
Maximum angular momentum                    ...      3
Integral batch strategy                     ... SHARK/LIBINT Hybrid
RI-J (if used) integral strategy            ... SPLIT-RIJ (Revised 2003 algorithm where possible)
Printlevel                                  ...      1
Contraction scheme used                     ... SEGMENTED contraction
Coulomb Range Separation                    ... NOT USED
Exchange Range Separation                   ... Long Range
   Mu parameter                             ...  0.330000
   Scaling (regular/separated)              ...  0.000000  1.000000
Finite Nucleus Model                        ... NOT USED
Auxiliary Coulomb fitting basis             ... AVAILABLE
   # of basis functions in Aux-J            ...    868
   # of shells in Aux-J                     ...    300
   Maximum angular momentum in Aux-J        ...      4
Auxiliary J/K fitting basis                 ... NOT available
Auxiliary Correlation fitting basis         ... NOT available
Auxiliary 'external' fitting basis          ... NOT available
Integral threshold                          ...     2.500000e-11
Primitive cut-off                           ...     2.500000e-12
Primitive pair pre-selection threshold      ...     2.500000e-12

Calculating pre-screening integrals         ... done (  0.3 sec) Dimension = 227
Organizing shell pair data                  ... done (  0.3 sec)
Shell pair information
Total number of shell pairs                 ...     25878
Shell pairs after pre-screening             ...     22067
Total number of primitive shell pairs       ...     75040
Primitive shell pairs kept                  ...     45292
          la=0 lb=0:   6884 shell pairs
          la=1 lb=0:   6585 shell pairs
          la=1 lb=1:   1617 shell pairs
          la=2 lb=0:   2857 shell pairs
          la=2 lb=1:   1385 shell pairs
          la=2 lb=2:    314 shell pairs
          la=3 lb=0:   1370 shell pairs
          la=3 lb=1:    670 shell pairs
          la=3 lb=2:    301 shell pairs
          la=3 lb=3:     84 shell pairs

Calculating one electron integrals          ... done (  0.0 sec)
Calculating RI/J V-Matrix + Cholesky decomp.... done (  0.1 sec)
Calculating Nuclear repulsion               ... done (  0.0 sec) ENN=    915.231136548176 Eh

SHARK setup successfully completed in   0.9 seconds

Maximum memory used throughout the entire GTOINT-calculation: 33.2 MB


           ************************************************************
           *        Program running with 18 parallel MPI-processes    *
           *              working on a common directory               *
           ************************************************************
-------------------------------------------------------------------------------
                                 ORCA SCF
-------------------------------------------------------------------------------

------------
SCF SETTINGS
------------
Hamiltonian:
 Density Functional     Method          .... DFT(GTOs)
 Exchange Functional    Exchange        .... WB88
 Correlation Functional Correlation     .... LYP
 Gradients option       PostSCFGGA      .... off
   Density functional embedding theory  .... OFF
 Long-range corrected/Screened/Range-Separated Hybrid DFT is turned on
   Amount of maximum screened exact exchange              ....  1.000000
   Range separation parameter mu (erf(mu*r12)/r12)        ....  0.330000
 RI-approximation to the Coulomb term is turned on
   Number of AuxJ basis functions       .... 868
   RIJ-COSX (HFX calculated with COS-X)).... on


General Settings:
 Integral files         IntName         .... LC_BLYP_D1_wb97
 Hartree-Fock type      HFTyp           .... RHF
 Total Charge           Charge          ....    0
 Multiplicity           Mult            ....    1
 Number of Electrons    NEL             ....  104
 Basis Dimension        Dim             ....  529
 Nuclear Repulsion      ENuc            ....    915.2311365482 Eh

Convergence Acceleration:
 DIIS                   CNVDIIS         .... on
   Start iteration      DIISMaxIt       ....    12
   Startup error        DIISStart       ....  0.200000
   # of expansion vecs  DIISMaxEq       ....     5
   Bias factor          DIISBfac        ....   1.050
   Max. coefficient     DIISMaxC        ....  10.000
 Trust-Rad. Augm. Hess. CNVTRAH         .... auto
   Auto Start mean grad. ratio tolernc. ....  1.125000
   Auto Start start iteration           ....    20
   Auto Start num. interpolation iter.  ....    10
   Max. Number of Micro iterations      ....    16
   Max. Number of Macro iterations      .... Maxiter - #DIIS iter
   Number of Davidson start vectors     ....     2
   Converg. threshold I  (grad. norm)   ....   1.000e-05
   Converg. threshold II (energy diff.) ....   1.000e-08
   Grad. Scal. Fac. for Micro threshold ....   0.100
   Minimum threshold for Micro iter.    ....   0.010
   NR start threshold (gradient norm)   ....   0.001
   Initial trust radius                 ....   0.400
   Minimum AH scaling param. (alpha)    ....   1.000
   Maximum AH scaling param. (alpha)    .... 1000.000
   Orbital update algorithm             .... Taylor
   White noise on init. David. guess    .... on
   Maximum white noise                  ....   0.010
   Quad. conv. algorithm                .... NR
 SOSCF                  CNVSOSCF        .... on
   Start iteration      SOSCFMaxIt      ....   150
   Startup grad/error   SOSCFStart      ....  0.003300
 Level Shifting         CNVShift        .... on
   Level shift para.    LevelShift      ....    0.2500
   Turn off err/grad.   ShiftErr        ....    0.0010
 Zerner damping         CNVZerner       .... off
 Static damping         CNVDamp         .... on
   Fraction old density DampFac         ....    0.7000
   Max. Damping (<1)    DampMax         ....    0.9800
   Min. Damping (>=0)   DampMin         ....    0.0000
   Turn off err/grad.   DampErr         ....    0.1000
 Fernandez-Rico         CNVRico         .... off

SCF Procedure:
 Maximum # iterations   MaxIter         ....   150
 SCF integral mode      SCFMode         .... Direct
   Integral package                     .... SHARK and LIBINT hybrid scheme
 Reset frequency        DirectResetFreq ....    20
 Integral Threshold     Thresh          ....  2.500e-11 Eh
 Primitive CutOff       TCut            ....  2.500e-12 Eh

Convergence Tolerance:
 Convergence Check Mode ConvCheckMode   .... Total+1el-Energy
 Convergence forced     ConvForced      .... 0
 Energy Change          TolE            ....  1.000e-08 Eh
 1-El. energy change                    ....  1.000e-05 Eh
 Orbital Gradient       TolG            ....  1.000e-05
 Orbital Rotation angle TolX            ....  1.000e-05
 DIIS Error             TolErr          ....  5.000e-07


Diagonalization of the overlap matrix:
Smallest eigenvalue                        ... 6.698e-05
Time for diagonalization                   ...    0.055 sec
Threshold for overlap eigenvalues          ... 1.000e-08
Number of eigenvalues below threshold      ... 0
Time for construction of square roots      ...    0.231 sec
Total time needed                          ...    0.290 sec

Time for model grid setup =    0.232 sec

------------------------------
INITIAL GUESS: MODEL POTENTIAL
------------------------------
Loading Hartree-Fock densities                     ... done
Calculating cut-offs                               ... done
Initializing the effective Hamiltonian             ... done
Setting up the integral package (SHARK)            ... done
Starting the Coulomb interaction                   ... done (   0.3 sec)
Reading the grid                                   ... done
Mapping shells                                     ... done
Starting the XC term evaluation                    ... done (   0.2 sec)
  promolecular density results
     # of electrons  =    103.984427259
     EX              =    -80.727083813
     EC              =     -3.472525430
     EX+EC           =    -84.199609243
Transforming the Hamiltonian                       ... done (   0.1 sec)
Diagonalizing the Hamiltonian                      ... done (   0.1 sec)
Back transforming the eigenvectors                 ... done (   0.0 sec)
Now organizing SCF variables                       ... done
                      ------------------
                      INITIAL GUESS DONE (   0.8 sec)
                      ------------------
-------------------
DFT GRID GENERATION
-------------------

General Integration Accuracy     IntAcc      ... 4.388
Radial Grid Type                 RadialGrid  ... OptM3 with GC (2021)
Angular Grid (max. ang.)         AngularGrid ... 4 (Lebedev-302)
Angular grid pruning method      GridPruning ... 4 (adaptive)
Weight generation scheme         WeightScheme... Becke
Basis function cutoff            BFCut       ... 1.0000e-11
Integration weight cutoff        WCut        ... 1.0000e-14
Angular grids for H and He will be reduced by one unit
Partially contracted basis set               ... off
Rotationally invariant grid construction     ... off

Total number of grid points                  ...   143691
Total number of batches                      ...     2264
Average number of points per batch           ...       63
Average number of grid points per atom       ...     4226
Time for grid setup =    1.167 sec

--------------------
COSX GRID GENERATION
--------------------

GRIDX 1
-------
General Integration Accuracy     IntAcc      ... 3.816
Radial Grid Type                 RadialGrid  ... OptM3 with GC (2021)
Angular Grid (max. ang.)         AngularGrid ... 1 (Lebedev-50)
Angular grid pruning method      GridPruning ... 4 (adaptive)
Weight generation scheme         WeightScheme... Becke
Basis function cutoff            BFCut       ... 1.0000e-11
Integration weight cutoff        WCut        ... 1.0000e-14
Angular grids for H and He will be reduced by one unit
Partially contracted basis set               ... on
Rotationally invariant grid construction     ... off

Total number of grid points                  ...    18326
Total number of batches                      ...      306
Average number of points per batch           ...       59
Average number of grid points per atom       ...      539
UseSFitting                                  ... on

GRIDX 2
-------
General Integration Accuracy     IntAcc      ... 4.020
Radial Grid Type                 RadialGrid  ... OptM3 with GC (2021)
Angular Grid (max. ang.)         AngularGrid ... 2 (Lebedev-110)
Angular grid pruning method      GridPruning ... 4 (adaptive)
Weight generation scheme         WeightScheme... Becke
Basis function cutoff            BFCut       ... 1.0000e-11
Integration weight cutoff        WCut        ... 1.0000e-14
Angular grids for H and He will be reduced by one unit
Partially contracted basis set               ... on
Rotationally invariant grid construction     ... off

Total number of grid points                  ...    38108
Total number of batches                      ...      613
Average number of points per batch           ...       62
Average number of grid points per atom       ...     1121
UseSFitting                                  ... on

GRIDX 3
-------
General Integration Accuracy     IntAcc      ... 4.338
Radial Grid Type                 RadialGrid  ... OptM3 with GC (2021)
Angular Grid (max. ang.)         AngularGrid ... 3 (Lebedev-194)
Angular grid pruning method      GridPruning ... 4 (adaptive)
Weight generation scheme         WeightScheme... Becke
Basis function cutoff            BFCut       ... 1.0000e-11
Integration weight cutoff        WCut        ... 1.0000e-14
Angular grids for H and He will be reduced by one unit
Partially contracted basis set               ... on
Rotationally invariant grid construction     ... off

Total number of grid points                  ...    82766
Total number of batches                      ...     1311
Average number of points per batch           ...       63
Average number of grid points per atom       ...     2434
UseSFitting                                  ... on

Time for X-Grid setup             =    1.229 sec

--------------
SCF ITERATIONS
--------------
ITER       Energy         Delta-E        Max-DP      RMS-DP      [F,P]     Damp
               ***  Starting incremental Fock matrix formation  ***
  0   -604.9973290662   0.000000000000 0.09022627  0.00096252  0.2691961 0.7000
  1   -605.2136716533  -0.216342587076 0.08189754  0.00075051  0.1267696 0.7000
                               ***Turning on DIIS***
  2   -605.3157064258  -0.102034772508 0.14731564  0.00151591  0.0624244 0.0000
  3   -605.4857775067  -0.170071080884 0.04622161  0.00039110  0.0548330 0.0000
  4   -605.5123581901  -0.026580683444 0.01289740  0.00011386  0.0178355 0.0000
  5   -605.5132229768  -0.000864786702 0.00687546  0.00005357  0.0129037 0.0000
                      *** Initiating the SOSCF procedure ***
                           *** Shutting down DIIS ***
                      *** Re-Reading the Fockian *** 
                      *** Removing any level shift *** 
ITER      Energy       Delta-E        Grad      Rot      Max-DP    RMS-DP
  6   -605.51349046  -0.0002674817  0.000527  0.000527  0.003437  0.000029
               *** Restarting incremental Fock matrix formation ***
  7   -605.51353718  -0.0000467251  0.000211  0.000421  0.001663  0.000023
  8   -605.51354076  -0.0000035766  0.000265  0.000688  0.001355  0.000015
  9   -605.51354165  -0.0000008921  0.000137  0.000201  0.000365  0.000007
 10   -605.51354194  -0.0000002926  0.000043  0.000052  0.000246  0.000003
 11   -605.51354198  -0.0000000307  0.000035  0.000031  0.000098  0.000001
 12   -605.51354200  -0.0000000213  0.000005  0.000012  0.000015  0.000000
                  ***Gradient check signals convergence***
              ***Rediagonalizing the Fockian in SOSCF/NRSCF***

               *****************************************************
               *                     SUCCESS                       *
               *           SCF CONVERGED AFTER  13 CYCLES          *
               *****************************************************


----------------
TOTAL SCF ENERGY
----------------

Total Energy       :         -605.51354201 Eh          -16476.86115 eV

Components:
Nuclear Repulsion  :          915.23113655 Eh           24904.70536 eV
Electronic Energy  :        -1520.74467856 Eh          -41381.56650 eV
One Electron Energy:        -2641.36140384 Eh          -71875.09786 eV
Two Electron Energy:         1120.61672528 Eh           30493.53136 eV
Max COSX asymmetry :            0.00000136 Eh               0.00004 eV

Virial components:
Potential Energy   :        -1209.40748231 Eh          -32909.65069 eV
Kinetic Energy     :          603.89394031 Eh           16432.78954 eV
Virial Ratio       :            2.00268193


DFT components:
N(Alpha)           :       51.999859211676 electrons
N(Beta)            :       51.999859211676 electrons
N(Total)           :      103.999718423352 electrons
E(XC)              :      -67.609687839596 Eh       
DFET-embed. en.    :        0.000000000000 Eh       

---------------
SCF CONVERGENCE
---------------

  Last Energy change         ...   -1.0993e-08  Tolerance :   1.0000e-08
  Last MAX-Density change    ...    2.2007e-05  Tolerance :   1.0000e-07
  Last RMS-Density change    ...    2.2059e-07  Tolerance :   5.0000e-09
  Last Orbital Gradient      ...    1.7991e-06  Tolerance :   1.0000e-05
  Last Orbital Rotation      ...    3.0585e-06  Tolerance :   1.0000e-05

             **** THE GBW FILE WAS UPDATED (LC_BLYP_D1_wb97.gbw) ****
             **** DENSITY LC_BLYP_D1_wb97.scfp WAS UPDATED ****
             **** ENERGY FILE WAS UPDATED (LC_BLYP_D1_wb97.en.tmp) ****
             **** THE GBW FILE WAS UPDATED (LC_BLYP_D1_wb97.gbw) ****
             **** DENSITY LC_BLYP_D1_wb97.scfp WAS UPDATED ****
----------------
ORBITAL ENERGIES
----------------

  NO   OCC          E(Eh)            E(eV) 
   0   2.0000     -24.532433      -667.5615 
   1   2.0000     -18.952292      -515.7181 
   2   2.0000     -10.260859      -279.2122 
   3   2.0000     -10.103674      -274.9349 
   4   2.0000     -10.085523      -274.4410 
   5   2.0000     -10.070798      -274.0403 
   6   2.0000     -10.067816      -273.9592 
   7   2.0000     -10.062567      -273.8164 
   8   2.0000     -10.055265      -273.6177 
   9   2.0000     -10.052594      -273.5450 
  10   2.0000     -10.045401      -273.3492 
  11   2.0000     -10.035782      -273.0875 
  12   2.0000      -9.982253      -271.6309 
  13   2.0000      -1.410845       -38.3910 
  14   2.0000      -1.140551       -31.0360 
  15   2.0000      -0.943446       -25.6725 
  16   2.0000      -0.919041       -25.0084 
  17   2.0000      -0.888047       -24.1650 
  18   2.0000      -0.859265       -23.3818 
  19   2.0000      -0.816938       -22.2300 
  20   2.0000      -0.792691       -21.5702 
  21   2.0000      -0.764909       -20.8142 
  22   2.0000      -0.735168       -20.0049 
  23   2.0000      -0.717183       -19.5155 
  24   2.0000      -0.675475       -18.3806 
  25   2.0000      -0.671597       -18.2751 
  26   2.0000      -0.661468       -17.9994 
  27   2.0000      -0.642778       -17.4909 
  28   2.0000      -0.625501       -17.0207 
  29   2.0000      -0.587897       -15.9975 
  30   2.0000      -0.584269       -15.8988 
  31   2.0000      -0.566844       -15.4246 
  32   2.0000      -0.564699       -15.3662 
  33   2.0000      -0.542027       -14.7493 
  34   2.0000      -0.532385       -14.4869 
  35   2.0000      -0.516460       -14.0536 
  36   2.0000      -0.510975       -13.9043 
  37   2.0000      -0.501732       -13.6528 
  38   2.0000      -0.491523       -13.3750 
  39   2.0000      -0.480413       -13.0727 
  40   2.0000      -0.468080       -12.7371 
  41   2.0000      -0.461039       -12.5455 
  42   2.0000      -0.451664       -12.2904 
  43   2.0000      -0.442960       -12.0536 
  44   2.0000      -0.437018       -11.8919 
  45   2.0000      -0.425519       -11.5790 
  46   2.0000      -0.421013       -11.4564 
  47   2.0000      -0.408739       -11.1224 
  48   2.0000      -0.404917       -11.0183 
  49   2.0000      -0.393998       -10.7212 
  50   2.0000      -0.391351       -10.6492 
  51   2.0000      -0.362994        -9.8776 
  52   0.0000       0.039083         1.0635 
  53   0.0000       0.092437         2.5153 
  54   0.0000       0.109662         2.9841 
  55   0.0000       0.112535         3.0622 
  56   0.0000       0.121163         3.2970 
  57   0.0000       0.135093         3.6761 
  58   0.0000       0.140883         3.8336 
  59   0.0000       0.146377         3.9831 
  60   0.0000       0.151998         4.1361 
  61   0.0000       0.162514         4.4222 
  62   0.0000       0.168161         4.5759 
  63   0.0000       0.175675         4.7804 
  64   0.0000       0.181792         4.9468 
  65   0.0000       0.184509         5.0207 
  66   0.0000       0.188356         5.1254 
  67   0.0000       0.198280         5.3955 
  68   0.0000       0.203688         5.5426 
  69   0.0000       0.215085         5.8528 
  70   0.0000       0.221086         6.0160 
  71   0.0000       0.226257         6.1568 
  72   0.0000       0.230774         6.2797 
  73   0.0000       0.243854         6.6356 
  74   0.0000       0.246459         6.7065 
  75   0.0000       0.249378         6.7859 
  76   0.0000       0.261780         7.1234 
  77   0.0000       0.272492         7.4149 
  78   0.0000       0.274405         7.4669 
  79   0.0000       0.279285         7.5997 
  80   0.0000       0.282574         7.6892 
  81   0.0000       0.290929         7.9166 
  82   0.0000       0.295594         8.0435 
  83   0.0000       0.300695         8.1823 
  84   0.0000       0.313312         8.5257 
  85   0.0000       0.321144         8.7388 
  86   0.0000       0.329128         8.9560 
  87   0.0000       0.333660         9.0793 
  88   0.0000       0.341775         9.3002 
  89   0.0000       0.346291         9.4231 
  90   0.0000       0.357646         9.7321 
  91   0.0000       0.360434         9.8079 
  92   0.0000       0.372504        10.1363 
  93   0.0000       0.375266        10.2115 
  94   0.0000       0.378989        10.3128 
  95   0.0000       0.390424        10.6240 
  96   0.0000       0.406452        11.0601 
  97   0.0000       0.408953        11.1282 
  98   0.0000       0.424138        11.5414 
  99   0.0000       0.433996        11.8096 
 100   0.0000       0.442685        12.0461 
 101   0.0000       0.450204        12.2507 
 102   0.0000       0.468016        12.7354 
 103   0.0000       0.468429        12.7466 
 104   0.0000       0.474784        12.9195 
 105   0.0000       0.475551        12.9404 
 106   0.0000       0.478459        13.0195 
 107   0.0000       0.485157        13.2018 
 108   0.0000       0.488701        13.2982 
 109   0.0000       0.500103        13.6085 
 110   0.0000       0.504691        13.7333 
 111   0.0000       0.508790        13.8449 
 112   0.0000       0.510900        13.9023 
 113   0.0000       0.520780        14.1711 
 114   0.0000       0.522005        14.2045 
 115   0.0000       0.524462        14.2713 
 116   0.0000       0.528879        14.3915 
 117   0.0000       0.533224        14.5098 
 118   0.0000       0.535214        14.5639 
 119   0.0000       0.536739        14.6054 
 120   0.0000       0.545519        14.8443 
 121   0.0000       0.550968        14.9926 
 122   0.0000       0.555691        15.1211 
 123   0.0000       0.556379        15.1398 
 124   0.0000       0.561768        15.2865 
 125   0.0000       0.566548        15.4166 
 126   0.0000       0.571857        15.5610 
 127   0.0000       0.575316        15.6551 
 128   0.0000       0.580226        15.7887 
 129   0.0000       0.583702        15.8833 
 130   0.0000       0.593151        16.1405 
 131   0.0000       0.598980        16.2991 
 132   0.0000       0.603166        16.4130 
 133   0.0000       0.624546        16.9948 
 134   0.0000       0.631423        17.1819 
 135   0.0000       0.637568        17.3491 
 136   0.0000       0.649581        17.6760 
 137   0.0000       0.661158        17.9910 
 138   0.0000       0.666052        18.1242 
 139   0.0000       0.678343        18.4586 
 140   0.0000       0.684172        18.6173 
 141   0.0000       0.690954        18.8018 
 142   0.0000       0.711616        19.3640 
 143   0.0000       0.716791        19.5049 
 144   0.0000       0.724130        19.7046 
 145   0.0000       0.731527        19.9059 
 146   0.0000       0.751226        20.4419 
 147   0.0000       0.764160        20.7939 
 148   0.0000       0.777338        21.1524 
 149   0.0000       0.806021        21.9329 
 150   0.0000       0.816219        22.2104 
 151   0.0000       0.824570        22.4377 
 152   0.0000       0.832837        22.6626 
 153   0.0000       0.850171        23.1343 
 154   0.0000       0.858732        23.3673 
 155   0.0000       0.871462        23.7137 
 156   0.0000       0.879969        23.9452 
 157   0.0000       0.884818        24.0771 
 158   0.0000       0.898450        24.4481 
 159   0.0000       0.901137        24.5212 
 160   0.0000       0.914624        24.8882 
 161   0.0000       0.926526        25.2120 
 162   0.0000       0.946452        25.7543 
 163   0.0000       0.952616        25.9220 
 164   0.0000       0.971956        26.4483 
 165   0.0000       0.979061        26.6416 
 166   0.0000       0.999365        27.1941 
 167   0.0000       1.004295        27.3283 
 168   0.0000       1.012301        27.5461 
 169   0.0000       1.014643        27.6098 
 170   0.0000       1.025010        27.8920 
 171   0.0000       1.038819        28.2677 
 172   0.0000       1.049976        28.5713 
 173   0.0000       1.055040        28.7091 
 174   0.0000       1.058901        28.8142 
 175   0.0000       1.075115        29.2554 
 176   0.0000       1.079486        29.3743 
 177   0.0000       1.089148        29.6372 
 178   0.0000       1.105983        30.0953 
 179   0.0000       1.132753        30.8238 
 180   0.0000       1.147593        31.2276 
 181   0.0000       1.150197        31.2985 
 182   0.0000       1.161841        31.6153 
 183   0.0000       1.165070        31.7032 
 184   0.0000       1.174815        31.9683 
 185   0.0000       1.184106        32.2212 
 186   0.0000       1.200183        32.6586 
 187   0.0000       1.203726        32.7550 
 188   0.0000       1.207741        32.8643 
 189   0.0000       1.223846        33.3025 
 190   0.0000       1.244301        33.8591 
 191   0.0000       1.250415        34.0255 
 192   0.0000       1.269909        34.5560 
 193   0.0000       1.278135        34.7798 
 194   0.0000       1.285476        34.9796 
 195   0.0000       1.296049        35.2673 
 196   0.0000       1.309571        35.6352 
 197   0.0000       1.313070        35.7304 
 198   0.0000       1.315281        35.7906 
 199   0.0000       1.317683        35.8560 
 200   0.0000       1.338836        36.4316 
 201   0.0000       1.347385        36.6642 
 202   0.0000       1.357001        36.9259 
 203   0.0000       1.358141        36.9569 
 204   0.0000       1.372323        37.3428 
 205   0.0000       1.390796        37.8455 
 206   0.0000       1.407847        38.3095 
 207   0.0000       1.411637        38.4126 
 208   0.0000       1.428678        38.8763 
 209   0.0000       1.443674        39.2844 
 210   0.0000       1.458292        39.6821 
 211   0.0000       1.472631        40.0723 
 212   0.0000       1.490602        40.5613 
 213   0.0000       1.502484        40.8847 
 214   0.0000       1.529851        41.6294 
 215   0.0000       1.590158        43.2704 
 216   0.0000       1.606144        43.7054 
 217   0.0000       1.615183        43.9514 
 218   0.0000       1.621735        44.1296 
 219   0.0000       1.631788        44.4032 
 220   0.0000       1.642611        44.6977 
 221   0.0000       1.650631        44.9160 
 222   0.0000       1.660614        45.1876 
 223   0.0000       1.663458        45.2650 
 224   0.0000       1.670849        45.4661 
 225   0.0000       1.682750        45.7900 
 226   0.0000       1.689958        45.9861 
 227   0.0000       1.697497        46.1912 
 228   0.0000       1.703579        46.3567 
 229   0.0000       1.712582        46.6017 
 230   0.0000       1.714723        46.6600 
 231   0.0000       1.722541        46.8727 
 232   0.0000       1.738300        47.3016 
 233   0.0000       1.742947        47.4280 
 234   0.0000       1.753222        47.7076 
 235   0.0000       1.763316        47.9823 
 236   0.0000       1.770805        48.1861 
 237   0.0000       1.788961        48.6801 
 238   0.0000       1.801547        49.0226 
 239   0.0000       1.814275        49.3689 
 240   0.0000       1.828394        49.7531 
 241   0.0000       1.843611        50.1672 
 242   0.0000       1.853244        50.4293 
 243   0.0000       1.868635        50.8481 
 244   0.0000       1.880939        51.1830 
 245   0.0000       1.896856        51.6161 
 246   0.0000       1.902411        51.7672 
 247   0.0000       1.914981        52.1093 
 248   0.0000       1.915784        52.1311 
 249   0.0000       1.928975        52.4901 
 250   0.0000       1.936542        52.6960 
 251   0.0000       1.948563        53.0231 
 252   0.0000       1.949626        53.0520 
 253   0.0000       1.978189        53.8292 
 254   0.0000       1.985912        54.0394 
 255   0.0000       1.997006        54.3413 
 256   0.0000       2.021859        55.0176 
 257   0.0000       2.025401        55.1140 
 258   0.0000       2.042165        55.5701 
 259   0.0000       2.045628        55.6644 
 260   0.0000       2.054932        55.9175 
 261   0.0000       2.067124        56.2493 
 262   0.0000       2.071241        56.3613 
 263   0.0000       2.088118        56.8206 
 264   0.0000       2.099903        57.1413 
 265   0.0000       2.108465        57.3742 
 266   0.0000       2.139695        58.2241 
 267   0.0000       2.154817        58.6355 
 268   0.0000       2.159370        58.7594 
 269   0.0000       2.168912        59.0191 
 270   0.0000       2.175212        59.1905 
 271   0.0000       2.181191        59.3532 
 272   0.0000       2.193069        59.6764 
 273   0.0000       2.216342        60.3097 
 274   0.0000       2.227095        60.6023 
 275   0.0000       2.236662        60.8627 
 276   0.0000       2.239924        60.9514 
 277   0.0000       2.248389        61.1818 
 278   0.0000       2.263503        61.5931 
 279   0.0000       2.292995        62.3956 
 280   0.0000       2.315301        63.0026 
 281   0.0000       2.329828        63.3979 
 282   0.0000       2.335662        63.5566 
 283   0.0000       2.355924        64.1080 
 284   0.0000       2.362871        64.2970 
 285   0.0000       2.387227        64.9597 
 286   0.0000       2.406894        65.4949 
 287   0.0000       2.420969        65.8779 
 288   0.0000       2.431986        66.1777 
 289   0.0000       2.437274        66.3216 
 290   0.0000       2.451904        66.7197 
 291   0.0000       2.465466        67.0887 
 292   0.0000       2.481163        67.5159 
 293   0.0000       2.502843        68.1058 
 294   0.0000       2.509705        68.2925 
 295   0.0000       2.519644        68.5630 
 296   0.0000       2.529552        68.8326 
 297   0.0000       2.537663        69.0533 
 298   0.0000       2.543629        69.2157 
 299   0.0000       2.548975        69.3611 
 300   0.0000       2.566496        69.8379 
 301   0.0000       2.577103        70.1265 
 302   0.0000       2.595718        70.6331 
 303   0.0000       2.604329        70.8674 
 304   0.0000       2.610818        71.0440 
 305   0.0000       2.622101        71.3510 
 306   0.0000       2.640535        71.8526 
 307   0.0000       2.648391        72.0664 
 308   0.0000       2.653653        72.2096 
 309   0.0000       2.667026        72.5735 
 310   0.0000       2.669829        72.6497 
 311   0.0000       2.673943        72.7617 
 312   0.0000       2.686117        73.0930 
 313   0.0000       2.694577        73.3232 
 314   0.0000       2.703733        73.5723 
 315   0.0000       2.711155        73.7743 
 316   0.0000       2.716155        73.9103 
 317   0.0000       2.726451        74.1905 
 318   0.0000       2.736908        74.4751 
 319   0.0000       2.739247        74.5387 
 320   0.0000       2.747858        74.7730 
 321   0.0000       2.761428        75.1423 
 322   0.0000       2.763892        75.2093 
 323   0.0000       2.766627        75.2837 
 324   0.0000       2.778281        75.6009 
 325   0.0000       2.792883        75.9982 
 326   0.0000       2.805815        76.3501 
 327   0.0000       2.810631        76.4812 
 328   0.0000       2.812412        76.5296 
 329   0.0000       2.821752        76.7838 
 330   0.0000       2.830535        77.0228 
 331   0.0000       2.835563        77.1596 
 332   0.0000       2.846552        77.4586 
 333   0.0000       2.848510        77.5119 
 334   0.0000       2.864689        77.9522 
 335   0.0000       2.869855        78.0927 
 336   0.0000       2.873792        78.1999 
 337   0.0000       2.882631        78.4404 
 338   0.0000       2.892018        78.6958 
 339   0.0000       2.897122        78.8347 
 340   0.0000       2.907507        79.1173 
 341   0.0000       2.916380        79.3587 
 342   0.0000       2.921923        79.5096 
 343   0.0000       2.937917        79.9448 
 344   0.0000       2.944803        80.1322 
 345   0.0000       2.948782        80.2404 
 346   0.0000       2.967372        80.7463 
 347   0.0000       2.984192        81.2040 
 348   0.0000       3.002603        81.7050 
 349   0.0000       3.017044        82.0979 
 350   0.0000       3.039091        82.6979 
 351   0.0000       3.056622        83.1749 
 352   0.0000       3.067981        83.4840 
 353   0.0000       3.080716        83.8306 
 354   0.0000       3.096904        84.2710 
 355   0.0000       3.102503        84.4234 
 356   0.0000       3.115897        84.7879 
 357   0.0000       3.129315        85.1530 
 358   0.0000       3.151148        85.7471 
 359   0.0000       3.159117        85.9639 
 360   0.0000       3.179553        86.5200 
 361   0.0000       3.188671        86.7682 
 362   0.0000       3.194387        86.9237 
 363   0.0000       3.212113        87.4060 
 364   0.0000       3.220194        87.6259 
 365   0.0000       3.234108        88.0046 
 366   0.0000       3.239040        88.1388 
 367   0.0000       3.245499        88.3145 
 368   0.0000       3.256761        88.6210 
 369   0.0000       3.278575        89.2146 
 370   0.0000       3.288238        89.4775 
 371   0.0000       3.293286        89.6149 
 372   0.0000       3.301805        89.8467 
 373   0.0000       3.319838        90.3374 
 374   0.0000       3.332307        90.6767 
 375   0.0000       3.339512        90.8727 
 376   0.0000       3.347144        91.0804 
 377   0.0000       3.353497        91.2533 
 378   0.0000       3.357877        91.3725 
 379   0.0000       3.372242        91.7634 
 380   0.0000       3.374172        91.8159 
 381   0.0000       3.377837        91.9156 
 382   0.0000       3.395691        92.4015 
 383   0.0000       3.403320        92.6091 
 384   0.0000       3.406185        92.6870 
 385   0.0000       3.415880        92.9508 
 386   0.0000       3.424633        93.1890 
 387   0.0000       3.438504        93.5665 
 388   0.0000       3.447953        93.8236 
 389   0.0000       3.451513        93.9205 
 390   0.0000       3.469157        94.4006 
 391   0.0000       3.472104        94.4807 
 392   0.0000       3.484705        94.8236 
 393   0.0000       3.491172        94.9996 
 394   0.0000       3.497102        95.1610 
 395   0.0000       3.507951        95.4562 
 396   0.0000       3.527572        95.9901 
 397   0.0000       3.531275        96.0909 
 398   0.0000       3.541900        96.3800 
 399   0.0000       3.556172        96.7684 
 400   0.0000       3.565110        97.0116 
 401   0.0000       3.569252        97.1243 
 402   0.0000       3.583503        97.5121 
 403   0.0000       3.596396        97.8629 
 404   0.0000       3.599839        97.9566 
 405   0.0000       3.621026        98.5331 
 406   0.0000       3.630181        98.7822 
 407   0.0000       3.635781        98.9346 
 408   0.0000       3.641326        99.0855 
 409   0.0000       3.646975        99.2392 
 410   0.0000       3.660674        99.6120 
 411   0.0000       3.670295        99.8738 
 412   0.0000       3.691529       100.4516 
 413   0.0000       3.697730       100.6204 
 414   0.0000       3.714100       101.0658 
 415   0.0000       3.724028       101.3360 
 416   0.0000       3.739864       101.7669 
 417   0.0000       3.752991       102.1241 
 418   0.0000       3.760148       102.3188 
 419   0.0000       3.791098       103.1610 
 420   0.0000       3.805134       103.5430 
 421   0.0000       3.838252       104.4442 
 422   0.0000       3.841644       104.5364 
 423   0.0000       3.857740       104.9744 
 424   0.0000       3.861121       105.0665 
 425   0.0000       3.880420       105.5916 
 426   0.0000       3.888362       105.8077 
 427   0.0000       3.915280       106.5402 
 428   0.0000       3.948117       107.4337 
 429   0.0000       3.953569       107.5821 
 430   0.0000       3.956479       107.6613 
 431   0.0000       3.985474       108.4503 
 432   0.0000       3.992783       108.6492 
 433   0.0000       4.004262       108.9615 
 434   0.0000       4.018256       109.3423 
 435   0.0000       4.023927       109.4966 
 436   0.0000       4.037958       109.8784 
 437   0.0000       4.052847       110.2836 
 438   0.0000       4.064387       110.5976 
 439   0.0000       4.074399       110.8700 
 440   0.0000       4.081203       111.0552 
 441   0.0000       4.105814       111.7249 
 442   0.0000       4.110513       111.8528 
 443   0.0000       4.121698       112.1571 
 444   0.0000       4.145563       112.8065 
 445   0.0000       4.153343       113.0182 
 446   0.0000       4.158962       113.1711 
 447   0.0000       4.187342       113.9434 
 448   0.0000       4.194863       114.1480 
 449   0.0000       4.207324       114.4871 
 450   0.0000       4.213408       114.6527 
 451   0.0000       4.253980       115.7567 
 452   0.0000       4.266445       116.0959 
 453   0.0000       4.308351       117.2362 
 454   0.0000       4.322004       117.6077 
 455   0.0000       4.329795       117.8197 
 456   0.0000       4.340070       118.0993 
 457   0.0000       4.366660       118.8229 
 458   0.0000       4.406385       119.9038 
 459   0.0000       4.433319       120.6367 
 460   0.0000       4.467467       121.5659 
 461   0.0000       4.494476       122.3009 
 462   0.0000       4.507100       122.6444 
 463   0.0000       4.519056       122.9698 
 464   0.0000       4.540102       123.5424 
 465   0.0000       4.574789       124.4863 
 466   0.0000       4.598291       125.1259 
 467   0.0000       4.623712       125.8176 
 468   0.0000       4.645559       126.4121 
 469   0.0000       4.673594       127.1750 
 470   0.0000       4.706080       128.0589 
 471   0.0000       4.718790       128.4048 
 472   0.0000       4.743088       129.0660 
 473   0.0000       4.762005       129.5808 
 474   0.0000       4.773799       129.9017 
 475   0.0000       4.789735       130.3353 
 476   0.0000       4.796727       130.5256 
 477   0.0000       4.828431       131.3883 
 478   0.0000       4.857119       132.1689 
 479   0.0000       4.877167       132.7145 
 480   0.0000       4.906091       133.5015 
 481   0.0000       4.926678       134.0617 
 482   0.0000       4.950420       134.7078 
 483   0.0000       4.973377       135.3325 
 484   0.0000       4.994398       135.9045 
 485   0.0000       4.997520       135.9894 
 486   0.0000       5.053089       137.5016 
 487   0.0000       5.075512       138.1117 
 488   0.0000       5.100293       138.7860 
 489   0.0000       5.185992       141.1180 
 490   0.0000       5.199689       141.4907 
 491   0.0000       5.239392       142.5711 
 492   0.0000       5.291487       143.9887 
 493   0.0000       5.351051       145.6095 
 494   0.0000       5.547847       150.9646 
 495   0.0000       5.656859       153.9310 
 496   0.0000       5.995152       163.1364 
 497   0.0000       6.199693       168.7022 
 498   0.0000       6.259546       170.3309 
 499   0.0000       6.438539       175.2016 
 500   0.0000       6.635377       180.5578 
 501   0.0000       6.811997       185.3638 
 502   0.0000       6.867511       186.8745 
 503   0.0000       6.893133       187.5717 
 504   0.0000       6.919029       188.2764 
 505   0.0000       7.061513       192.1535 
 506   0.0000       7.094487       193.0508 
 507   0.0000       7.199317       195.9034 
 508   0.0000       7.357915       200.2190 
 509   0.0000       7.504859       204.2176 
 510   0.0000       7.830903       213.0897 
 511   0.0000       8.378545       227.9918 
 512   0.0000       8.565754       233.0860 
 513   0.0000       8.822803       240.0807 
 514   0.0000       9.007879       245.1169 
 515   0.0000       9.036656       245.8999 
 516   0.0000      22.365252       608.5894 
 517   0.0000      22.380904       609.0154 
 518   0.0000      22.397591       609.4694 
 519   0.0000      22.419156       610.0562 
 520   0.0000      22.440703       610.6426 
 521   0.0000      22.449189       610.8735 
 522   0.0000      22.459885       611.1645 
 523   0.0000      22.493416       612.0770 
 524   0.0000      22.511063       612.5572 
 525   0.0000      22.684600       617.2794 
 526   0.0000      23.131643       629.4440 
 527   0.0000      43.693151      1188.9511 
 528   0.0000      57.058752      1552.6476 

                    ********************************
                    * MULLIKEN POPULATION ANALYSIS *
                    ********************************

-----------------------
MULLIKEN ATOMIC CHARGES
-----------------------
   0 C :   -0.253840
   1 H :    0.113908
   2 C :   -0.453376
   3 C :   -0.198378
   4 H :    0.116233
   5 H :    0.120958
   6 H :    0.111933
   7 C :   -0.250942
   8 H :    0.125354
   9 C :   -0.298924
  10 H :    0.103977
  11 H :    0.131579
  12 H :    0.147702
  13 C :   -0.215860
  14 C :   -0.289549
  15 H :    0.128195
  16 H :    0.130812
  17 H :    0.132875
  18 C :   -0.322804
  19 H :    0.138582
  20 H :    0.138818
  21 H :    0.154009
  22 C :   -0.219921
  23 H :    0.138599
  24 H :    0.153550
  25 C :   -0.316308
  26 C :    0.330084
  27 H :    0.166273
  28 H :    0.170142
  29 H :    0.122095
  30 H :    0.115036
  31 H :    0.182041
  32 F :   -0.075526
  33 O :   -0.277329
Sum of atomic charges:   -0.0000000

--------------------------------
MULLIKEN REDUCED ORBITAL CHARGES
--------------------------------
  0 C s       :     3.284259  s :     3.284259
      pz      :     0.939733  p :     2.874770
      px      :     0.882578
      py      :     1.052459
      dz2     :     0.012060  d :     0.089225
      dxz     :     0.031567
      dyz     :     0.018570
      dx2y2   :     0.011563
      dxy     :     0.015465
      f0      :     0.001356  f :     0.005586
      f+1     :     0.000921
      f-1     :     0.000835
      f+2     :     0.000830
      f-2     :     0.000154
      f+3     :     0.000856
      f-3     :     0.000632
  1 H s       :     0.866162  s :     0.866162
      pz      :     0.006619  p :     0.019931
      px      :     0.004498
      py      :     0.008814
  2 C s       :     3.279076  s :     3.279076
      pz      :     0.912947  p :     3.125655
      px      :     1.140039
      py      :     1.072670
      dz2     :     0.005841  d :     0.045582
      dxz     :     0.010313
      dyz     :     0.020613
      dx2y2   :     0.006170
      dxy     :     0.002645
      f0      :     0.000863  f :     0.003062
      f+1     :     0.000663
      f-1     :     0.000896
      f+2     :     0.000175
      f-2     :    -0.000021
      f+3     :     0.000205
      f-3     :     0.000282
  3 C s       :     3.252240  s :     3.252240
      pz      :     1.018108  p :     2.856569
      px      :     0.923728
      py      :     0.914732
      dz2     :     0.014610  d :     0.084337
      dxz     :     0.017183
      dyz     :     0.012376
      dx2y2   :     0.011811
      dxy     :     0.028357
      f0      :     0.000983  f :     0.005231
      f+1     :     0.000293
      f-1     :     0.000510
      f+2     :     0.000728
      f-2     :     0.000384
      f+3     :     0.001151
      f-3     :     0.001182
  4 H s       :     0.863024  s :     0.863024
      pz      :     0.005026  p :     0.020743
      px      :     0.007121
      py      :     0.008596
  5 H s       :     0.859201  s :     0.859201
      pz      :     0.005674  p :     0.019841
      px      :     0.006379
      py      :     0.007789
  6 H s       :     0.868106  s :     0.868106
      pz      :     0.011260  p :     0.019961
      px      :     0.004694
      py      :     0.004006
  7 C s       :     3.276396  s :     3.276396
      pz      :     0.944956  p :     2.890086
      px      :     1.050550
      py      :     0.894581
      dz2     :     0.020888  d :     0.079377
      dxz     :     0.008879
      dyz     :     0.014720
      dx2y2   :     0.020506
      dxy     :     0.014385
      f0      :     0.000390  f :     0.005082
      f+1     :     0.000428
      f-1     :     0.001219
      f+2     :     0.000955
      f-2     :     0.000459
      f+3     :     0.001062
      f-3     :     0.000569
  8 H s       :     0.854703  s :     0.854703
      pz      :     0.004196  p :     0.019943
      px      :     0.011739
      py      :     0.004008
  9 C s       :     3.297471  s :     3.297471
      pz      :     0.967021  p :     2.912686
      px      :     1.065287
      py      :     0.880378
      dz2     :     0.018289  d :     0.083661
      dxz     :     0.016319
      dyz     :     0.014971
      dx2y2   :     0.019017
      dxy     :     0.015065
      f0      :     0.000254  f :     0.005106
      f+1     :     0.000323
      f-1     :     0.001107
      f+2     :     0.001477
      f-2     :     0.000685
      f+3     :     0.000719
      f-3     :     0.000540
 10 H s       :     0.874330  s :     0.874330
      pz      :     0.011749  p :     0.021693
      px      :     0.005525
      py      :     0.004418
 11 H s       :     0.848481  s :     0.848481
      pz      :     0.009401  p :     0.019940
      px      :     0.006647
      py      :     0.003892
 12 H s       :     0.831304  s :     0.831304
      pz      :     0.005384  p :     0.020994
      px      :     0.011189
      py      :     0.004421
 13 C s       :     3.268944  s :     3.268944
      pz      :     0.946478  p :     2.853829
      px      :     0.982504
      py      :     0.924847
      dz2     :     0.016565  d :     0.087885
      dxz     :     0.010710
      dyz     :     0.027859
      dx2y2   :     0.015071
      dxy     :     0.017680
      f0      :     0.000485  f :     0.005202
      f+1     :     0.000488
      f-1     :     0.000948
      f+2     :     0.001358
      f-2     :     0.000755
      f+3     :     0.000741
      f-3     :     0.000428
 14 C s       :     3.293104  s :     3.293104
      pz      :     0.969624  p :     2.907836
      px      :     0.865328
      py      :     1.072884
      dz2     :     0.017185  d :     0.083521
      dxz     :     0.016757
      dyz     :     0.017595
      dx2y2   :     0.019597
      dxy     :     0.012386
      f0      :     0.000614  f :     0.005088
      f+1     :     0.000992
      f-1     :     0.000359
      f+2     :     0.001189
      f-2     :     0.000623
      f+3     :     0.000460
      f-3     :     0.000851
 15 H s       :     0.851985  s :     0.851985
      pz      :     0.004520  p :     0.019819
      px      :     0.010815
      py      :     0.004485
 16 H s       :     0.849389  s :     0.849389
      pz      :     0.008034  p :     0.019799
      px      :     0.004243
      py      :     0.007521
 17 H s       :     0.847208  s :     0.847208
      pz      :     0.004928  p :     0.019917
      px      :     0.003910
      py      :     0.011079
 18 C s       :     3.310187  s :     3.310187
      pz      :     0.976474  p :     2.924702
      px      :     0.872110
      py      :     1.076119
      dz2     :     0.015221  d :     0.082824
      dxz     :     0.019304
      dyz     :     0.016345
      dx2y2   :     0.018265
      dxy     :     0.013688
      f0      :     0.000539  f :     0.005091
      f+1     :     0.001007
      f-1     :     0.000348
      f+2     :     0.001204
      f-2     :     0.000691
      f+3     :     0.000512
      f-3     :     0.000790
 19 H s       :     0.840441  s :     0.840441
      pz      :     0.009400  p :     0.020977
      px      :     0.004808
      py      :     0.006769
 20 H s       :     0.841253  s :     0.841253
      pz      :     0.009085  p :     0.019928
      px      :     0.004446
      py      :     0.006398
 21 H s       :     0.824803  s :     0.824803
      pz      :     0.005270  p :     0.021188
      px      :     0.003961
      py      :     0.011958
 22 C s       :     3.277379  s :     3.277379
      pz      :     0.870369  p :     2.852101
      px      :     0.989813
      py      :     0.991918
      dz2     :     0.022539  d :     0.085231
      dxz     :     0.017158
      dyz     :     0.019633
      dx2y2   :     0.017860
      dxy     :     0.008041
      f0      :     0.000899  f :     0.005210
      f+1     :     0.000827
      f-1     :     0.000584
      f+2     :     0.001307
      f-2     :     0.000966
      f+3     :     0.000154
      f-3     :     0.000473
 23 H s       :     0.841532  s :     0.841532
      pz      :     0.004155  p :     0.019869
      px      :     0.004123
      py      :     0.011591
 24 H s       :     0.826266  s :     0.826266
      pz      :     0.004658  p :     0.020183
      px      :     0.011013
      py      :     0.004512
 25 C s       :     3.310941  s :     3.310941
      pz      :     0.983404  p :     2.930651
      px      :     1.093251
      py      :     0.853997
      dz2     :     0.013342  d :     0.069797
      dxz     :     0.020900
      dyz     :     0.010167
      dx2y2   :     0.016868
      dxy     :     0.008521
      f0      :     0.000792  f :     0.004919
      f+1     :     0.000334
      f-1     :     0.000607
      f+2     :     0.001343
      f-2     :     0.000782
      f+3     :     0.000533
      f-3     :     0.000528
 26 C s       :     3.135507  s :     3.135507
      pz      :     0.730735  p :     2.219516
      px      :     0.662395
      py      :     0.826386
      dz2     :     0.032764  d :     0.286449
      dxz     :     0.060617
      dyz     :     0.034663
      dx2y2   :     0.091613
      dxy     :     0.066793
      f0      :     0.002102  f :     0.028443
      f+1     :     0.003562
      f-1     :     0.002076
      f+2     :     0.004703
      f-2     :     0.003332
      f+3     :     0.007087
      f-3     :     0.005582
 27 H s       :     0.813332  s :     0.813332
      pz      :     0.006339  p :     0.020395
      px      :     0.008643
      py      :     0.005413
 28 H s       :     0.809176  s :     0.809176
      pz      :     0.007507  p :     0.020682
      px      :     0.009582
      py      :     0.003593
 29 H s       :     0.856175  s :     0.856175
      pz      :     0.005341  p :     0.021730
      px      :     0.005889
      py      :     0.010500
 30 H s       :     0.852737  s :     0.852737
      pz      :     0.011771  p :     0.032227
      px      :     0.008479
      py      :     0.011976
 31 H s       :     0.785239  s :     0.785239
      pz      :     0.006991  p :     0.032719
      px      :     0.016154
      py      :     0.009575
 32 F s       :     3.897370  s :     3.897370
      pz      :     1.814062  p :     5.159053
      px      :     1.501433
      py      :     1.843558
      dz2     :     0.002078  d :     0.018280
      dxz     :     0.004594
      dyz     :     0.001459
      dx2y2   :     0.005567
      dxy     :     0.004582
      f0      :     0.000073  f :     0.000823
      f+1     :     0.000127
      f-1     :     0.000022
      f+2     :     0.000123
      f-2     :     0.000067
      f+3     :     0.000200
      f-3     :     0.000211
 33 O s       :     3.817302  s :     3.817302
      pz      :     1.342980  p :     4.430921
      px      :     1.507845
      py      :     1.580096
      dz2     :     0.005500  d :     0.027599
      dxz     :     0.006097
      dyz     :     0.003764
      dx2y2   :     0.005248
      dxy     :     0.006990
      f0      :     0.000077  f :     0.001507
      f+1     :     0.000253
      f-1     :     0.000162
      f+2     :     0.000193
      f-2     :     0.000270
      f+3     :     0.000273
      f-3     :     0.000280


                     *******************************
                     * LOEWDIN POPULATION ANALYSIS *
                     *******************************

----------------------
LOEWDIN ATOMIC CHARGES
----------------------
   0 C :   -0.311372
   1 H :    0.137256
   2 C :   -0.346204
   3 C :   -0.276210
   4 H :    0.133593
   5 H :    0.139755
   6 H :    0.137823
   7 C :   -0.274248
   8 H :    0.138864
   9 C :   -0.279299
  10 H :    0.134110
  11 H :    0.140848
  12 H :    0.138543
  13 C :   -0.276679
  14 C :   -0.279203
  15 H :    0.141311
  16 H :    0.141238
  17 H :    0.141543
  18 C :   -0.277421
  19 H :    0.134908
  20 H :    0.145767
  21 H :    0.144155
  22 C :   -0.263587
  23 H :    0.144980
  24 H :    0.150389
  25 C :   -0.241643
  26 C :   -0.496164
  27 H :    0.148011
  28 H :    0.163074
  29 H :    0.104803
  30 H :    0.102381
  31 H :    0.114162
  32 F :    0.341777
  33 O :    0.102738

-------------------------------
LOEWDIN REDUCED ORBITAL CHARGES
-------------------------------
  0 C s       :     2.758305  s :     2.758305
      pz      :     1.054736  p :     3.088969
      px      :     1.013239
      py      :     1.020995
      dz2     :     0.077518  d :     0.420769
      dxz     :     0.106548
      dyz     :     0.092449
      dx2y2   :     0.061762
      dxy     :     0.082493
      f0      :     0.008989  f :     0.043327
      f+1     :     0.008377
      f-1     :     0.005056
      f+2     :     0.006944
      f-2     :     0.004112
      f+3     :     0.005682
      f-3     :     0.004167
  1 H s       :     0.805628  s :     0.805628
      pz      :     0.018653  p :     0.057116
      px      :     0.013620
      py      :     0.024843
  2 C s       :     2.776438  s :     2.776438
      pz      :     1.061221  p :     3.258511
      px      :     1.121960
      py      :     1.075330
      dz2     :     0.066350  d :     0.281521
      dxz     :     0.062569
      dyz     :     0.084441
      dx2y2   :     0.048967
      dxy     :     0.019195
      f0      :     0.005829  f :     0.029733
      f+1     :     0.005841
      f-1     :     0.006505
      f+2     :     0.002568
      f-2     :     0.004814
      f+3     :     0.001718
      f-3     :     0.002459
  3 C s       :     2.770248  s :     2.770248
      pz      :     1.028981  p :     3.073379
      px      :     1.032060
      py      :     1.012338
      dz2     :     0.075452  d :     0.394116
      dxz     :     0.069655
      dyz     :     0.058110
      dx2y2   :     0.080921
      dxy     :     0.109978
      f0      :     0.005537  f :     0.038467
      f+1     :     0.003067
      f-1     :     0.003433
      f+2     :     0.005936
      f-2     :     0.005757
      f+3     :     0.007321
      f-3     :     0.007416
  4 H s       :     0.808498  s :     0.808498
      pz      :     0.015155  p :     0.057909
      px      :     0.018786
      py      :     0.023968
  5 H s       :     0.803353  s :     0.803353
      pz      :     0.017762  p :     0.056892
      px      :     0.017907
      py      :     0.021223
  6 H s       :     0.805096  s :     0.805096
      pz      :     0.030390  p :     0.057082
      px      :     0.014143
      py      :     0.012548
  7 C s       :     2.766873  s :     2.766873
      pz      :     1.033247  p :     3.079253
      px      :     1.030138
      py      :     1.015867
      dz2     :     0.093950  d :     0.389641
      dxz     :     0.046667
      dyz     :     0.084097
      dx2y2   :     0.105055
      dxy     :     0.059872
      f0      :     0.003278  f :     0.038481
      f+1     :     0.004523
      f-1     :     0.007896
      f+2     :     0.005099
      f-2     :     0.005843
      f+3     :     0.007263
      f-3     :     0.004578
  8 H s       :     0.803639  s :     0.803639
      pz      :     0.013517  p :     0.057497
      px      :     0.031148
      py      :     0.012831
  9 C s       :     2.767661  s :     2.767661
      pz      :     1.029316  p :     3.079964
      px      :     1.036330
      py      :     1.014317
      dz2     :     0.070573  d :     0.393588
      dxz     :     0.079672
      dyz     :     0.083432
      dx2y2   :     0.096579
      dxy     :     0.063332
      f0      :     0.004198  f :     0.038087
      f+1     :     0.003268
      f-1     :     0.008274
      f+2     :     0.005727
      f-2     :     0.004985
      f+3     :     0.006611
      f-3     :     0.005024
 10 H s       :     0.806390  s :     0.806390
      pz      :     0.028655  p :     0.059500
      px      :     0.017178
      py      :     0.013667
 11 H s       :     0.801912  s :     0.801912
      pz      :     0.024606  p :     0.057240
      px      :     0.020184
      py      :     0.012450
 12 H s       :     0.802346  s :     0.802346
      pz      :     0.015340  p :     0.059110
      px      :     0.029942
      py      :     0.013828
 13 C s       :     2.770711  s :     2.770711
      pz      :     1.028327  p :     3.076209
      px      :     1.022350
      py      :     1.025532
      dz2     :     0.068590  d :     0.392270
      dxz     :     0.063482
      dyz     :     0.113408
      dx2y2   :     0.084174
      dxy     :     0.062616
      f0      :     0.005421  f :     0.037489
      f+1     :     0.003994
      f-1     :     0.007109
      f+2     :     0.005062
      f-2     :     0.005982
      f+3     :     0.005903
      f-3     :     0.004018
 14 C s       :     2.766453  s :     2.766453
      pz      :     1.031019  p :     3.080461
      px      :     1.018901
      py      :     1.030541
      dz2     :     0.071676  d :     0.394167
      dxz     :     0.092130
      dyz     :     0.075910
      dx2y2   :     0.097037
      dxy     :     0.057415
      f0      :     0.005631  f :     0.038122
      f+1     :     0.006634
      f-1     :     0.003734
      f+2     :     0.005235
      f-2     :     0.005766
      f+3     :     0.004304
      f-3     :     0.006819
 15 H s       :     0.801579  s :     0.801579
      pz      :     0.014655  p :     0.057111
      px      :     0.028704
      py      :     0.013752
 16 H s       :     0.801719  s :     0.801719
      pz      :     0.022754  p :     0.057043
      px      :     0.013871
      py      :     0.020418
 17 H s       :     0.801249  s :     0.801249
      pz      :     0.014660  p :     0.057209
      px      :     0.012617
      py      :     0.029933
 18 C s       :     2.765377  s :     2.765377
      pz      :     1.023050  p :     3.080442
      px      :     1.019514
      py      :     1.037878
      dz2     :     0.066240  d :     0.393401
      dxz     :     0.096702
      dyz     :     0.073021
      dx2y2   :     0.097533
      dxy     :     0.059904
      f0      :     0.005550  f :     0.038202
      f+1     :     0.006801
      f-1     :     0.003372
      f+2     :     0.005340
      f-2     :     0.005979
      f+3     :     0.004397
      f-3     :     0.006762
 19 H s       :     0.806130  s :     0.806130
      pz      :     0.024117  p :     0.058963
      px      :     0.014713
      py      :     0.020133
 20 H s       :     0.797019  s :     0.797019
      pz      :     0.023662  p :     0.057214
      px      :     0.013810
      py      :     0.019742
 21 H s       :     0.796225  s :     0.796225
      pz      :     0.015348  p :     0.059620
      px      :     0.012994
      py      :     0.031278
 22 C s       :     2.770018  s :     2.770018
      pz      :     1.014041  p :     3.067571
      px      :     1.035283
      py      :     1.018247
      dz2     :     0.096829  d :     0.388161
      dxz     :     0.087085
      dyz     :     0.083143
      dx2y2   :     0.087179
      dxy     :     0.033926
      f0      :     0.007897  f :     0.037836
      f+1     :     0.005707
      f-1     :     0.005374
      f+2     :     0.005147
      f-2     :     0.007494
      f+3     :     0.002241
      f-3     :     0.003976
 23 H s       :     0.797553  s :     0.797553
      pz      :     0.013562  p :     0.057467
      px      :     0.013254
      py      :     0.030650
 24 H s       :     0.791365  s :     0.791365
      pz      :     0.014707  p :     0.058246
      px      :     0.029019
      py      :     0.014519
 25 C s       :     2.776548  s :     2.776548
      pz      :     1.035997  p :     3.077193
      px      :     1.047192
      py      :     0.994004
      dz2     :     0.056948  d :     0.351547
      dxz     :     0.092308
      dyz     :     0.069897
      dx2y2   :     0.077202
      dxy     :     0.055192
      f0      :     0.007320  f :     0.036354
      f+1     :     0.002560
      f-1     :     0.005613
      f+2     :     0.006139
      f-2     :     0.004473
      f+3     :     0.004978
      f-3     :     0.005271
 26 C s       :     2.775347  s :     2.775347
      pz      :     0.775772  p :     2.606520
      px      :     0.856614
      py      :     0.974134
      dz2     :     0.111903  d :     0.941252
      dxz     :     0.189070
      dyz     :     0.109162
      dx2y2   :     0.297381
      dxy     :     0.233736
      f0      :     0.013871  f :     0.173045
      f+1     :     0.018341
      f-1     :     0.010850
      f+2     :     0.028375
      f-2     :     0.020853
      f+3     :     0.043767
      f-3     :     0.036987
 27 H s       :     0.792880  s :     0.792880
      pz      :     0.018239  p :     0.059109
      px      :     0.025314
      py      :     0.015556
 28 H s       :     0.778285  s :     0.778285
      pz      :     0.019998  p :     0.058641
      px      :     0.026984
      py      :     0.011659
 29 H s       :     0.824202  s :     0.824202
      pz      :     0.017934  p :     0.070994
      px      :     0.020453
      py      :     0.032607
 30 H s       :     0.796648  s :     0.796648
      pz      :     0.035882  p :     0.100971
      px      :     0.025731
      py      :     0.039358
 31 H s       :     0.783376  s :     0.783376
      pz      :     0.021231  p :     0.102462
      px      :     0.051103
      py      :     0.030128
 32 F s       :     3.530952  s :     3.530952
      pz      :     1.725106  p :     5.085722
      px      :     1.594127
      py      :     1.766489
      dz2     :     0.004704  d :     0.039496
      dxz     :     0.008615
      dyz     :     0.003070
      dx2y2   :     0.011871
      dxy     :     0.011235
      f0      :     0.000176  f :     0.002053
      f+1     :     0.000321
      f-1     :     0.000064
      f+2     :     0.000312
      f-2     :     0.000126
      f+3     :     0.000510
      f-3     :     0.000545
 33 O s       :     3.422078  s :     3.422078
      pz      :     1.337854  p :     4.407729
      px      :     1.518220
      py      :     1.551656
      dz2     :     0.007211  d :     0.062278
      dxz     :     0.013892
      dyz     :     0.010998
      dx2y2   :     0.011607
      dxy     :     0.018569
      f0      :     0.000473  f :     0.005177
      f+1     :     0.000486
      f-1     :     0.000301
      f+2     :     0.000718
      f-2     :     0.001354
      f+3     :     0.000884
      f-3     :     0.000960


                      *****************************
                      * MAYER POPULATION ANALYSIS *
                      *****************************

  NA   - Mulliken gross atomic population
  ZA   - Total nuclear charge
  QA   - Mulliken gross atomic charge
  VA   - Mayer's total valence
  BVA  - Mayer's bonded valence
  FA   - Mayer's free valence

  ATOM       NA         ZA         QA         VA         BVA        FA
  0 C      6.2538     6.0000    -0.2538     3.7214     3.7214    -0.0000
  1 H      0.8861     1.0000     0.1139     0.9718     0.9718    -0.0000
  2 C      6.4534     6.0000    -0.4534     3.6284     3.6284    -0.0000
  3 C      6.1984     6.0000    -0.1984     3.7439     3.7439     0.0000
  4 H      0.8838     1.0000     0.1162     0.9749     0.9749    -0.0000
  5 H      0.8790     1.0000     0.1210     0.9651     0.9651     0.0000
  6 H      0.8881     1.0000     0.1119     0.9647     0.9647     0.0000
  7 C      6.2509     6.0000    -0.2509     3.7300     3.7300     0.0000
  8 H      0.8746     1.0000     0.1254     0.9704     0.9704    -0.0000
  9 C      6.2989     6.0000    -0.2989     3.7100     3.7100    -0.0000
 10 H      0.8960     1.0000     0.1040     0.9669     0.9669     0.0000
 11 H      0.8684     1.0000     0.1316     0.9693     0.9693    -0.0000
 12 H      0.8523     1.0000     0.1477     0.9536     0.9536    -0.0000
 13 C      6.2159     6.0000    -0.2159     3.7541     3.7541    -0.0000
 14 C      6.2895     6.0000    -0.2895     3.6940     3.6940     0.0000
 15 H      0.8718     1.0000     0.1282     0.9652     0.9652    -0.0000
 16 H      0.8692     1.0000     0.1308     0.9631     0.9631    -0.0000
 17 H      0.8671     1.0000     0.1329     0.9700     0.9700     0.0000
 18 C      6.3228     6.0000    -0.3228     3.6720     3.6720     0.0000
 19 H      0.8614     1.0000     0.1386     0.9576     0.9576     0.0000
 20 H      0.8612     1.0000     0.1388     0.9708     0.9708     0.0000
 21 H      0.8460     1.0000     0.1540     0.9675     0.9675    -0.0000
 22 C      6.2199     6.0000    -0.2199     3.7803     3.7803    -0.0000
 23 H      0.8614     1.0000     0.1386     0.9619     0.9619    -0.0000
 24 H      0.8464     1.0000     0.1536     0.9663     0.9663    -0.0000
 25 C      6.3163     6.0000    -0.3163     3.7541     3.7541     0.0000
 26 C      5.6699     6.0000     0.3301     4.1243     4.1243    -0.0000
 27 H      0.8337     1.0000     0.1663     0.9527     0.9527     0.0000
 28 H      0.8299     1.0000     0.1701     0.9662     0.9662    -0.0000
 29 H      0.8779     1.0000     0.1221     0.9759     0.9759    -0.0000
 30 H      0.8850     1.0000     0.1150     0.9854     0.9854    -0.0000
 31 H      0.8180     1.0000     0.1820     1.0016     1.0016    -0.0000
 32 F      9.0755     9.0000    -0.0755     1.2226     1.2226    -0.0000
 33 O      8.2773     8.0000    -0.2773     2.1435     2.1435     0.0000

  Mayer bond orders larger than 0.100000
B(  0-C ,  1-H ) :   0.9899 B(  0-C ,  2-C ) :   0.8624 B(  0-C ,  3-C ) :   0.9125 
B(  0-C ,  4-H ) :   1.0184 B(  2-C , 29-H ) :   0.9696 B(  2-C , 30-H ) :   0.9924 
B(  2-C , 31-H ) :   0.9648 B(  3-C ,  5-H ) :   0.9814 B(  3-C ,  6-H ) :   0.9826 
B(  3-C ,  7-C ) :   0.9441 B(  7-C ,  8-H ) :   0.9801 B(  7-C ,  9-C ) :   0.8779 
B(  7-C , 10-H ) :   1.0010 B(  9-C , 11-H ) :   0.9804 B(  9-C , 12-H ) :   0.9967 
B(  9-C , 13-C ) :   0.9180 B( 13-C , 14-C ) :   0.9374 B( 13-C , 15-H ) :   0.9903 
B( 13-C , 16-H ) :   0.9888 B( 14-C , 17-H ) :   0.9817 B( 14-C , 18-C ) :   0.8566 
B( 14-C , 19-H ) :   0.9903 B( 18-C , 20-H ) :   0.9781 B( 18-C , 21-H ) :   0.9817 
B( 18-C , 22-C ) :   0.9404 B( 22-C , 23-H ) :   0.9803 B( 22-C , 24-H ) :   0.9789 
B( 22-C , 25-C ) :   0.9026 B( 25-C , 26-C ) :   0.9344 B( 25-C , 27-H ) :   0.9750 
B( 25-C , 28-H ) :   0.9595 B( 26-C , 32-F ) :   1.1501 B( 26-C , 33-O ) :   2.0364 


-------
TIMINGS
-------

Total SCF time: 0 days 0 hours 1 min 24 sec 

Total time                  ....      84.401 sec
Sum of individual times     ....      83.265 sec  ( 98.7%)

Fock matrix formation       ....      78.142 sec  ( 92.6%)
  Split-RI-J                ....       5.989 sec  (  7.7% of F)
  Chain of spheres X        ....      64.787 sec  ( 82.9% of F)
  XC integration            ....       7.024 sec  (  9.0% of F)
    Basis function eval.    ....       1.294 sec  ( 18.4% of XC)
    Density eval.           ....       1.526 sec  ( 21.7% of XC)
    XC-Functional eval.     ....       0.191 sec  (  2.7% of XC)
    XC-Potential eval.      ....       1.323 sec  ( 18.8% of XC)
Diagonalization             ....       0.724 sec  (  0.9%)
Density matrix formation    ....       0.057 sec  (  0.1%)
Population analysis         ....       0.115 sec  (  0.1%)
Initial guess               ....       0.588 sec  (  0.7%)
Orbital Transformation      ....       0.000 sec  (  0.0%)
Orbital Orthonormalization  ....       0.000 sec  (  0.0%)
DIIS solution               ....       0.411 sec  (  0.5%)
SOSCF solution              ....       0.599 sec  (  0.7%)
Grid generation             ....       2.629 sec  (  3.1%)

Maximum memory used throughout the entire SCF-calculation: 91.4 MB

-------------------------   --------------------
FINAL SINGLE POINT ENERGY      -605.513542007904
-------------------------   --------------------


                            ***************************************
                            *     ORCA property calculations      *
                            ***************************************

                                    ---------------------
                                    Active property flags
                                    ---------------------
   (+) Dipole Moment


------------------------------------------------------------------------------
                       ORCA ELECTRIC PROPERTIES CALCULATION
------------------------------------------------------------------------------

Dipole Moment Calculation                       ... on
Quadrupole Moment Calculation                   ... off
Polarizability Calculation                      ... off
GBWName                                         ... LC_BLYP_D1_wb97.gbw
Electron density file                           ... LC_BLYP_D1_wb97.scfp
The origin for moment calculation is the CENTER OF MASS  = (-1.748606,  2.271251  9.535071)

-------------
DIPOLE MOMENT
-------------
                                X             Y             Z
Electronic contribution:     -5.47552       2.47475      10.84502
Nuclear contribution   :      5.54676      -3.70047     -10.28793
                        -----------------------------------------
Total Dipole Moment    :      0.07124      -1.22572       0.55709
                        -----------------------------------------
Magnitude (a.u.)       :      1.34826
Magnitude (Debye)      :      3.42702



--------------------
Rotational spectrum 
--------------------
 
Rotational constants in cm-1:     0.028503     0.023389     0.015214 
Rotational constants in MHz :   854.502405   701.197575   456.108322 

 Dipole components along the rotational axes: 
x,y,z [a.u.] :    -0.886898     0.876208     0.513312 
x,y,z [Debye]:    -2.254315     2.227145     1.304735 

 

Timings for individual modules:

Sum of individual times         ...       86.610 sec (=   1.444 min)
GTO integral calculation        ...        1.741 sec (=   0.029 min)   2.0 %
SCF iterations                  ...       84.869 sec (=   1.414 min)  98.0 %
                             ****ORCA TERMINATED NORMALLY****
TOTAL RUN TIME: 0 days 0 hours 1 minutes 27 seconds 297 msec
