
                                        *****************
                                        * O   R   C   A *
                                        *****************

                                            #,                                       
                                            ###                                      
                                            ####                                     
                                            #####                                    
                                            ######                                   
                                           ########,                                 
                                     ,,################,,,,,                         
                               ,,#################################,,                 
                          ,,##########################################,,             
                       ,#########################################, ''#####,          
                    ,#############################################,,   '####,        
                  ,##################################################,,,,####,       
                ,###########''''           ''''###############################       
              ,#####''   ,,,,##########,,,,          '''####'''          '####       
            ,##' ,,,,###########################,,,                        '##       
           ' ,,###''''                  '''############,,,                           
         ,,##''                                '''############,,,,        ,,,,,,###''
      ,#''                                            '''#######################'''  
     '                                                          ''''####''''         
             ,#######,   #######,   ,#######,      ##                                
            ,#'     '#,  ##    ##  ,#'     '#,    #''#        ######   ,####,        
            ##       ##  ##   ,#'  ##            #'  '#       #        #'  '#        
            ##       ##  #######   ##           ,######,      #####,   #    #        
            '#,     ,#'  ##    ##  '#,     ,#' ,#      #,         ##   #,  ,#        
             '#######'   ##     ##  '#######'  #'      '#     #####' # '####'        



                  #######################################################
                  #                        -***-                        #
                  #          Department of theory and spectroscopy      #
                  #    Directorship and core code : Frank Neese         #
                  #        Max Planck Institute fuer Kohlenforschung    #
                  #                Kaiser Wilhelm Platz 1               #
                  #                 D-45470 Muelheim/Ruhr               #
                  #                      Germany                        #
                  #                                                     #
                  #                  All rights reserved                #
                  #                        -***-                        #
                  #######################################################


                         Program Version 5.0.0 -  RELEASE  -
                                (SVN: $Rev: 19529$)
                ($Date: 2021-06-28 11:36:33 +0200 (Mo, 28 Jun 2021) $)


 With contributions from (in alphabetic order):
   Daniel Aravena         : Magnetic Suceptibility
   Michael Atanasov       : Ab Initio Ligand Field Theory (pilot matlab implementation)
   Alexander A. Auer      : GIAO ZORA, VPT2 properties, NMR spectrum
   Ute Becker             : Parallelization
   Giovanni Bistoni       : ED, misc. LED, open-shell LED, HFLD
   Martin Brehm           : Molecular dynamics
   Dmytro Bykov           : SCF Hessian
   Vijay G. Chilkuri      : MRCI spin determinant printing, contributions to CSF-ICE
   Dipayan Datta          : RHF DLPNO-CCSD density
   Achintya Kumar Dutta   : EOM-CC, STEOM-CC
   Dmitry Ganyushin       : Spin-Orbit,Spin-Spin,Magnetic field MRCI
   Miquel Garcia          : C-PCM Hessian, Gaussian charge scheme
   Yang Guo               : DLPNO-NEVPT2, F12-NEVPT2, CIM, IAO-localization
   Andreas Hansen         : Spin unrestricted coupled pair/coupled cluster methods
   Benjamin Helmich-Paris : MC-RPA, TRAH-SCF, COSX integrals
   Lee Huntington         : MR-EOM, pCC
   Robert Izsak           : Overlap fitted RIJCOSX, COSX-SCS-MP3, EOM
   Marcus Kettner         : VPT2
   Christian Kollmar      : KDIIS, OOCD, Brueckner-CCSD(T), CCSD density, CASPT2, CASPT2-K
   Simone Kossmann        : Meta GGA functionals, TD-DFT gradient, OOMP2, MP2 Hessian
   Martin Krupicka        : Initial AUTO-CI
   Lucas Lang             : DCDCAS
   Marvin Lechner         : AUTO-CI (C++ implementation), FIC-MRCC
   Dagmar Lenk            : GEPOL surface, SMD
   Dimitrios Liakos       : Extrapolation schemes; Compound Job, initial MDCI parallelization
   Dimitrios Manganas     : Further ROCIS development; embedding schemes
   Dimitrios Pantazis     : SARC Basis sets
   Anastasios Papadopoulos: AUTO-CI, single reference methods and gradients
   Taras Petrenko         : DFT Hessian,TD-DFT gradient, ASA, ECA, R-Raman, ABS, FL, XAS/XES, NRVS
   Peter Pinski           : DLPNO-MP2, DLPNO-MP2 Gradient
   Christoph Reimann      : Effective Core Potentials
   Marius Retegan         : Local ZFS, SOC
   Christoph Riplinger    : Optimizer, TS searches, QM/MM, DLPNO-CCSD(T), (RO)-DLPNO pert. Triples
   Tobias Risthaus        : Range-separated hybrids, TD-DFT gradient, RPA, STAB
   Michael Roemelt        : Original ROCIS implementation
   Masaaki Saitow         : Open-shell DLPNO-CCSD energy and density
   Barbara Sandhoefer     : DKH picture change effects
   Avijit Sen             : IP-ROCIS
   Kantharuban Sivalingam : CASSCF convergence, NEVPT2, FIC-MRCI
   Bernardo de Souza      : ESD, SOC TD-DFT
   Georgi Stoychev        : AutoAux, RI-MP2 NMR
   Willem Van den Heuvel  : Paramagnetic NMR
   Boris Wezisla          : Elementary symmetry handling
   Frank Wennmohs         : Technical directorship


 We gratefully acknowledge several colleagues who have allowed us to
 interface, adapt or use parts of their codes:
   Stefan Grimme, W. Hujo, H. Kruse, P. Pracht,  : VdW corrections, initial TS optimization,
                  C. Bannwarth, S. Ehlert          DFT functionals, gCP, sTDA/sTD-DF
   Ed Valeev, F. Pavosevic, A. Kumar             : LibInt (2-el integral package), F12 methods
   Garnet Chan, S. Sharma, J. Yang, R. Olivares  : DMRG
   Ulf Ekstrom                                   : XCFun DFT Library
   Mihaly Kallay                                 : mrcc  (arbitrary order and MRCC methods)
   Jiri Pittner, Ondrej Demel                    : Mk-CCSD
   Frank Weinhold                                : gennbo (NPA and NBO analysis)
   Christopher J. Cramer and Donald G. Truhlar   : smd solvation model
   Lars Goerigk                                  : TD-DFT with DH, B97 family of functionals
   V. Asgeirsson, H. Jonsson                     : NEB implementation
   FAccTs GmbH                                   : IRC, NEB, NEB-TS, DLPNO-Multilevel, CI-OPT
                                                   MM, QMMM, 2- and 3-layer-ONIOM, Crystal-QMMM,
                                                   LR-CPCM, SF, NACMEs, symmetry and pop. for TD-DFT,
                                                   nearIR, NL-DFT gradient (VV10), updates on ESD,
                                                   ML-optimized integration grids
   S Lehtola, MJT Oliveira, MAL Marques          : LibXC Library
   Liviu Ungur et al                             : ANISO software


 Your calculation uses the libint2 library for the computation of 2-el integrals
 For citations please refer to: http://libint.valeyev.net

 Your ORCA version has been built with support for libXC version: 5.1.0
 For citations please refer to: https://tddft.org/programs/libxc/

 This ORCA versions uses:
   CBLAS   interface :  Fast vector & matrix operations
   LAPACKE interface :  Fast linear algebra routines
   SCALAPACK package :  Parallel linear algebra routines
   Shared memory     :  Shared parallel matrices
   BLAS/LAPACK       :  OpenBLAS 0.3.15  USE64BITINT DYNAMIC_ARCH NO_AFFINITY Haswell SINGLE_THREADED
        Core in use  :  Haswell
   Copyright (c) 2011-2014, The OpenBLAS Project




***************************************
The coordinates will be read from file: D1.xyz
***************************************


================================================================================

----- Orbital basis set information -----
Your calculation utilizes the basis: def2-TZVPD
   F. Weigend and R. Ahlrichs, Phys. Chem. Chem. Phys. 7, 3297 (2005).
   D. Rappoport and F. Furche, J. Chem. Phys. 133 134105 (2010).

----- AuxJ basis set information -----
Your calculation utilizes the auxiliary basis: def2/J
   F. Weigend, Phys. Chem. Chem. Phys. 8, 1057 (2006).

================================================================================
                                        WARNINGS
                       Please study these warnings very carefully!
================================================================================


INFO   : the flag for use of the SHARK integral package has been found!

================================================================================
                                       INPUT FILE
================================================================================
NAME = 28Oct_TZVPD_LC_PBE_D1_wb97.com
|  1> !LC-PBE RIJCOSX def2-TZVPD def2/J TightSCF xyzfile                                                                                         
|  2> 
|  3> *xyzfile 0 1 D1.xyz
|  4> 
|  5> %MaxCore 64000
|  6> 
|  7> %pal nprocs 4                                                                                                                                                  
|  8> end  
|  9> 
| 10> %scf
| 11>   MaxIter 150
| 12> end
| 13> 
| 14> 
| 15>                          ****END OF INPUT****
================================================================================

                       ****************************
                       * Single Point Calculation *
                       ****************************

---------------------------------
CARTESIAN COORDINATES (ANGSTROEM)
---------------------------------
  C     -4.382623   -1.670889    1.216201
  C     -5.763539   -1.915170    0.705012
  C     -3.281728   -2.191272    0.294361
  C     -5.572364   -5.807798   -0.816445
  S     -6.903179   -4.619033   -0.528458
  H     -5.840812   -2.115205   -0.300646
  H     -6.408823   -1.148656    0.936124
  H     -6.174781   -2.790606    1.051433
  F     -8.114853   -5.250932   -0.957007
  O     -6.532715   -3.426838   -1.314848
  H     -4.328618   -2.139223    2.198103
  H     -4.261583   -0.597399    1.357248
  O     -6.865632   -4.294957    0.914118
  C     -3.474641   -3.605898   -0.259608
  H     -2.354548   -2.127602    0.871433
  H     -3.166611   -1.499693   -0.545037
  C     -3.827078   -4.661097    0.786174
  H     -2.560559   -3.889391   -0.788050
  H     -4.255932   -3.570040   -1.019300
  C     -4.457800   -5.941875    0.229195
  H     -5.177347   -5.542575   -1.797714
  H     -6.074202   -6.768894   -0.921272
  H     -4.530506   -4.253640    1.511979
  H     -2.933400   -4.932302    1.356825
  H     -3.681064   -6.562236   -0.229885
  H     -4.843942   -6.512728    1.075805

----------------------------
CARTESIAN COORDINATES (A.U.)
----------------------------
  NO LB      ZA    FRAG     MASS         X           Y           Z
   0 C     6.0000    0    12.011   -8.281957   -3.157523    2.298287
   1 C     6.0000    0    12.011  -10.891510   -3.619147    1.332280
   2 C     6.0000    0    12.011   -6.201567   -4.140905    0.556262
   3 C     6.0000    0    12.011  -10.530242  -10.975147   -1.542857
   4 S    16.0000    0    32.060  -13.045117   -8.728707   -0.998641
   5 H     1.0000    0     1.008  -11.037536   -3.997158   -0.568139
   6 H     1.0000    0     1.008  -12.110920   -2.170644    1.769018
   7 H     1.0000    0     1.008  -11.668644   -5.273482    1.986920
   8 F     9.0000    0    18.998  -15.334849   -9.922823   -1.808482
   9 O     8.0000    0    15.999  -12.345041   -6.475785   -2.484703
  10 H     1.0000    0     1.008   -8.179903   -4.042546    4.153812
  11 H     1.0000    0     1.008   -8.053225   -1.128920    2.564827
  12 O     8.0000    0    15.999  -12.974164   -8.116293    1.727433
  13 C     6.0000    0    12.011   -6.566120   -6.814159   -0.490588
  14 H     1.0000    0     1.008   -4.449451   -4.020585    1.646770
  15 H     1.0000    0     1.008   -5.984027   -2.834008   -1.029971
  16 C     6.0000    0    12.011   -7.232129   -8.808197    1.485654
  17 H     1.0000    0     1.008   -4.838755   -7.349884   -1.489199
  18 H     1.0000    0     1.008   -8.042547   -6.746398   -1.926198
  19 C     6.0000    0    12.011   -8.424022  -11.228516    0.433116
  20 H     1.0000    0     1.008   -9.783769  -10.473949   -3.397187
  21 H     1.0000    0     1.008  -11.478579  -12.791355   -1.740953
  22 H     1.0000    0     1.008   -8.561415   -8.038215    2.857225
  23 H     1.0000    0     1.008   -5.543323   -9.320699    2.564028
  24 H     1.0000    0     1.008   -6.956203  -12.400830   -0.434419
  25 H     1.0000    0     1.008   -9.153725  -12.307272    2.032977

--------------------------------
INTERNAL COORDINATES (ANGSTROEM)
--------------------------------
 C      0   0   0     0.000000000000     0.00000000     0.00000000
 C      1   0   0     1.492620404576     0.00000000     0.00000000
 C      1   2   0     1.527271165696   113.85364860     0.00000000
 C      2   1   3     4.183769830082   103.56450803    41.65278983
 S      4   2   1     1.807530340894    45.29229929   171.88188071
 H      2   1   3     1.028267675998   115.86869106   341.16570027
 H      2   1   3     1.028274655845   112.43314417   215.56454340
 H      2   1   3     1.027382923456   113.22232162    92.88232079
 F      5   4   2     1.432167869849   106.56210639   179.65209807
 O      5   4   2     1.475459680108   105.16679956    58.10432916
 H      1   2   3     1.089212531080   106.51329602   237.05832219
 H      1   2   3     1.089461707082   107.96192227   121.80372268
 O      5   4   2     1.479006672739   106.30903041   301.84106447
 C      3   1   2     1.531424886912   116.24922617   314.06375280
 H      3   1   2     1.093951362295   105.82537570   190.90535411
 H      3   1   2     1.093674824362   108.88497077    77.12130327
 C     14   3   1     1.526865075683   114.81550265   310.61575984
 H     14   3   1     1.093236557125   108.00289044   187.26461446
 H     14   3   1     1.090336855166   108.17526248    73.28183800
 C     17  14   3     1.532458496274   115.06540973   161.03160049
 H      4   2   1     1.090536698315    96.74735693   275.60637407
 H      4   2   1     1.089282104870   146.60189605   139.64586714
 H     17  14   3     1.089781485131   110.28956843    40.17259369
 H     17  14   3     1.094465523081   109.87001624   283.91065690
 H     20  17  14     1.094952852592   109.50797599    76.39555392
 H     20  17  14     1.091662821498   107.50289791   191.41833857

---------------------------
INTERNAL COORDINATES (A.U.)
---------------------------
 C      0   0   0     0.000000000000     0.00000000     0.00000000
 C      1   0   0     2.820643786551     0.00000000     0.00000000
 C      1   2   0     2.886124235400   113.85364860     0.00000000
 C      2   1   3     7.906179186217   103.56450803    41.65278983
 S      4   2   1     3.415737323043    45.29229929   171.88188071
 H      2   1   3     1.943144300000   115.86869106   341.16570027
 H      2   1   3     1.943157490000   112.43314417   215.56454340
 H      2   1   3     1.941472360000   113.22232162    92.88232079
 F      5   4   2     2.706405051817   106.56210639   179.65209807
 O      5   4   2     2.788214717047   105.16679956    58.10432916
 H      1   2   3     2.058313385376   106.51329602   237.05832219
 H      1   2   3     2.058784259779   107.96192227   121.80372268
 O      5   4   2     2.794917561719   106.30903041   301.84106447
 C      3   1   2     2.893973630936   116.24922617   314.06375280
 H      3   1   2     2.067268478568   105.82537570   190.90535411
 H      3   1   2     2.066745897609   108.88497077    77.12130327
 C     14   3   1     2.885356836490   114.81550265   310.61575984
 H     14   3   1     2.065917692557   108.00289044   187.26461446
 H     14   3   1     2.060438049985   108.17526248    73.28183800
 C     17  14   3     2.895926869558   115.06540973   161.03160049
 H      4   2   1     2.060815698807    96.74735693   275.60637407
 H      4   2   1     2.058444860785   146.60189605   139.64586714
 H     17  14   3     2.059388552715   110.28956843    40.17259369
 H     17  14   3     2.068240101641   109.87001624   283.91065690
 H     20  17  14     2.069161020955   109.50797599    76.39555392
 H     20  17  14     2.062943763215   107.50289791   191.41833857

---------------------
BASIS SET INFORMATION
---------------------
There are 5 groups of distinct atoms

 Group   1 Type C   : 12s6p3d1f contracted to 6s3p3d1f pattern {621111/411/111/1}
 Group   2 Type S   : 15s10p4d1f contracted to 6s6p3d1f pattern {732111/511111/211/1}
 Group   3 Type H   : 5s2p contracted to 3s2p pattern {311/11}
 Group   4 Type F   : 12s7p3d1f contracted to 6s4p3d1f pattern {621111/4111/111/1}
 Group   5 Type O   : 12s7p3d1f contracted to 6s4p3d1f pattern {621111/4111/111/1}

Atom   0C    basis set group =>   1
Atom   1C    basis set group =>   1
Atom   2C    basis set group =>   1
Atom   3C    basis set group =>   1
Atom   4S    basis set group =>   2
Atom   5H    basis set group =>   3
Atom   6H    basis set group =>   3
Atom   7H    basis set group =>   3
Atom   8F    basis set group =>   4
Atom   9O    basis set group =>   5
Atom  10H    basis set group =>   3
Atom  11H    basis set group =>   3
Atom  12O    basis set group =>   5
Atom  13C    basis set group =>   1
Atom  14H    basis set group =>   3
Atom  15H    basis set group =>   3
Atom  16C    basis set group =>   1
Atom  17H    basis set group =>   3
Atom  18H    basis set group =>   3
Atom  19C    basis set group =>   1
Atom  20H    basis set group =>   3
Atom  21H    basis set group =>   3
Atom  22H    basis set group =>   3
Atom  23H    basis set group =>   3
Atom  24H    basis set group =>   3
Atom  25H    basis set group =>   3
---------------------------------
AUXILIARY/J BASIS SET INFORMATION
---------------------------------
There are 5 groups of distinct atoms

 Group   1 Type C   : 12s5p4d2f1g contracted to 6s4p3d1f1g pattern {711111/2111/211/2/1}
 Group   2 Type S   : 14s5p5d2f1g contracted to 8s4p3d1f1g pattern {71111111/2111/311/2/1}
 Group   3 Type H   : 5s2p1d contracted to 3s1p1d pattern {311/2/1}
 Group   4 Type F   : 12s5p4d2f1g contracted to 6s4p3d1f1g pattern {711111/2111/211/2/1}
 Group   5 Type O   : 12s5p4d2f1g contracted to 6s4p3d1f1g pattern {711111/2111/211/2/1}

Atom   0C    basis set group =>   1
Atom   1C    basis set group =>   1
Atom   2C    basis set group =>   1
Atom   3C    basis set group =>   1
Atom   4S    basis set group =>   2
Atom   5H    basis set group =>   3
Atom   6H    basis set group =>   3
Atom   7H    basis set group =>   3
Atom   8F    basis set group =>   4
Atom   9O    basis set group =>   5
Atom  10H    basis set group =>   3
Atom  11H    basis set group =>   3
Atom  12O    basis set group =>   5
Atom  13C    basis set group =>   1
Atom  14H    basis set group =>   3
Atom  15H    basis set group =>   3
Atom  16C    basis set group =>   1
Atom  17H    basis set group =>   3
Atom  18H    basis set group =>   3
Atom  19C    basis set group =>   1
Atom  20H    basis set group =>   3
Atom  21H    basis set group =>   3
Atom  22H    basis set group =>   3
Atom  23H    basis set group =>   3
Atom  24H    basis set group =>   3
Atom  25H    basis set group =>   3


           ************************************************************
           *        Program running with 4 parallel MPI-processes     *
           *              working on a common directory               *
           ************************************************************
------------------------------------------------------------------------------
                           ORCA GTO INTEGRAL CALCULATION
                           -- RI-GTO INTEGRALS CHOSEN --
------------------------------------------------------------------------------
------------------------------------------------------------------------------
                   ___                                                        
                  /   \      - P O W E R E D   B Y -                         
                 /     \                                                     
                 |  |  |   _    _      __       _____    __    __             
                 |  |  |  | |  | |    /  \     |  _  \  |  |  /  |          
                  \  \/   | |  | |   /    \    | | | |  |  | /  /          
                 / \  \   | |__| |  /  /\  \   | |_| |  |  |/  /          
                |  |  |   |  __  | /  /__\  \  |    /   |      \           
                |  |  |   | |  | | |   __   |  |    \   |  |\   \          
                \     /   | |  | | |  |  |  |  | |\  \  |  | \   \       
                 \___/    |_|  |_| |__|  |__|  |_| \__\ |__|  \__/        
                                                                              
                      - O R C A' S   B I G   F R I E N D -                    
                                      &                                       
                       - I N T E G R A L  F E E D E R -                       
                                                                              
 v1 FN, 2020, v2 2021                                                         
------------------------------------------------------------------------------


Reading SHARK input file 28Oct_TZVPD_LC_PBE_D1_wb97.SHARKINP.tmp ... ok
----------------------
SHARK INTEGRAL PACKAGE
----------------------

Number of atoms                             ...     26
Number of basis functions                   ...    560
Number of shells                            ...    224
Maximum angular momentum                    ...      3
Integral batch strategy                     ... SHARK/LIBINT Hybrid
RI-J (if used) integral strategy            ... SPLIT-RIJ (Revised 2003 algorithm where possible)
Printlevel                                  ...      1
Contraction scheme used                     ... SEGMENTED contraction
Coulomb Range Separation                    ... NOT USED
Exchange Range Separation                   ... Long Range
   Mu parameter                             ...  0.470000
   Scaling (regular/separated)              ...  0.000000  1.000000
Finite Nucleus Model                        ... NOT USED
Auxiliary Coulomb fitting basis             ... AVAILABLE
   # of basis functions in Aux-J            ...    706
   # of shells in Aux-J                     ...    242
   Maximum angular momentum in Aux-J        ...      4
Auxiliary J/K fitting basis                 ... NOT available
Auxiliary Correlation fitting basis         ... NOT available
Auxiliary 'external' fitting basis          ... NOT available
Integral threshold                          ...     2.500000e-11
Primitive cut-off                           ...     2.500000e-12
Primitive pair pre-selection threshold      ...     2.500000e-12

Calculating pre-screening integrals         ... done (  0.2 sec) Dimension = 224
Organizing shell pair data                  ... done (  0.2 sec)
Shell pair information
Total number of shell pairs                 ...     25200
Shell pairs after pre-screening             ...     23089
Total number of primitive shell pairs       ...     64562
Primitive shell pairs kept                  ...     45563
          la=0 lb=0:   5455 shell pairs
          la=1 lb=0:   7067 shell pairs
          la=1 lb=1:   2307 shell pairs
          la=2 lb=0:   3383 shell pairs
          la=2 lb=1:   2173 shell pairs
          la=2 lb=2:    536 shell pairs
          la=3 lb=0:   1056 shell pairs
          la=3 lb=1:    707 shell pairs
          la=3 lb=2:    344 shell pairs
          la=3 lb=3:     61 shell pairs

Calculating one electron integrals          ... done (  0.1 sec)
Calculating RI/J V-Matrix + Cholesky decomp.... done (  0.0 sec)
Calculating Nuclear repulsion               ... done (  0.0 sec) ENN=    871.142753830754 Eh

SHARK setup successfully completed in   0.6 seconds

Maximum memory used throughout the entire GTOINT-calculation: 34.4 MB


           ************************************************************
           *        Program running with 4 parallel MPI-processes     *
           *              working on a common directory               *
           ************************************************************
-------------------------------------------------------------------------------
                                 ORCA SCF
-------------------------------------------------------------------------------

------------
SCF SETTINGS
------------
Hamiltonian:
 Density Functional     Method          .... DFT(GTOs)
 Exchange Functional    Exchange        .... LC-PBE
 Correlation Functional Correlation     .... PBE
   PBE beta parameter  CBetaPBE         ....  0.066725
 LDA part of GGA corr.  LDAOpt          .... PW91-LDA
 Gradients option       PostSCFGGA      .... off
   Density functional embedding theory  .... OFF
 Long-range corrected/Screened/Range-Separated Hybrid DFT is turned on
   Amount of maximum screened exact exchange              ....  1.000000
   Range separation parameter mu (erf(mu*r12)/r12)        ....  0.470000
   NL short-range parameter             ....  6.400000
 RI-approximation to the Coulomb term is turned on
   Number of AuxJ basis functions       .... 706
   RIJ-COSX (HFX calculated with COS-X)).... on


General Settings:
 Integral files         IntName         .... 28Oct_TZVPD_LC_PBE_D1_wb97
 Hartree-Fock type      HFTyp           .... RHF
 Total Charge           Charge          ....    0
 Multiplicity           Mult            ....    1
 Number of Electrons    NEL             ....   98
 Basis Dimension        Dim             ....  560
 Nuclear Repulsion      ENuc            ....    871.1427538308 Eh

Convergence Acceleration:
 DIIS                   CNVDIIS         .... on
   Start iteration      DIISMaxIt       ....    12
   Startup error        DIISStart       ....  0.200000
   # of expansion vecs  DIISMaxEq       ....     5
   Bias factor          DIISBfac        ....   1.050
   Max. coefficient     DIISMaxC        ....  10.000
 Trust-Rad. Augm. Hess. CNVTRAH         .... auto
   Auto Start mean grad. ratio tolernc. ....  1.125000
   Auto Start start iteration           ....    20
   Auto Start num. interpolation iter.  ....    10
   Max. Number of Micro iterations      ....    16
   Max. Number of Macro iterations      .... Maxiter - #DIIS iter
   Number of Davidson start vectors     ....     2
   Converg. threshold I  (grad. norm)   ....   1.000e-05
   Converg. threshold II (energy diff.) ....   1.000e-08
   Grad. Scal. Fac. for Micro threshold ....   0.100
   Minimum threshold for Micro iter.    ....   0.010
   NR start threshold (gradient norm)   ....   0.001
   Initial trust radius                 ....   0.400
   Minimum AH scaling param. (alpha)    ....   1.000
   Maximum AH scaling param. (alpha)    .... 1000.000
   Orbital update algorithm             .... Taylor
   White noise on init. David. guess    .... on
   Maximum white noise                  ....   0.010
   Quad. conv. algorithm                .... NR
 SOSCF                  CNVSOSCF        .... on
   Start iteration      SOSCFMaxIt      ....   150
   Startup grad/error   SOSCFStart      ....  0.003300
 Level Shifting         CNVShift        .... on
   Level shift para.    LevelShift      ....    0.2500
   Turn off err/grad.   ShiftErr        ....    0.0010
 Zerner damping         CNVZerner       .... off
 Static damping         CNVDamp         .... on
   Fraction old density DampFac         ....    0.7000
   Max. Damping (<1)    DampMax         ....    0.9800
   Min. Damping (>=0)   DampMin         ....    0.0000
   Turn off err/grad.   DampErr         ....    0.1000
 Fernandez-Rico         CNVRico         .... off

SCF Procedure:
 Maximum # iterations   MaxIter         ....   150
 SCF integral mode      SCFMode         .... Direct
   Integral package                     .... SHARK and LIBINT hybrid scheme
 Reset frequency        DirectResetFreq ....    20
 Integral Threshold     Thresh          ....  2.500e-11 Eh
 Primitive CutOff       TCut            ....  2.500e-12 Eh

Convergence Tolerance:
 Convergence Check Mode ConvCheckMode   .... Total+1el-Energy
 Convergence forced     ConvForced      .... 0
 Energy Change          TolE            ....  1.000e-08 Eh
 1-El. energy change                    ....  1.000e-05 Eh
 Orbital Gradient       TolG            ....  1.000e-05
 Orbital Rotation angle TolX            ....  1.000e-05
 DIIS Error             TolErr          ....  5.000e-07


Diagonalization of the overlap matrix:
Smallest eigenvalue                        ... 1.219e-06
Time for diagonalization                   ...    0.070 sec
Threshold for overlap eigenvalues          ... 1.000e-08
Number of eigenvalues below threshold      ... 0
Time for construction of square roots      ...    0.082 sec
Total time needed                          ...    0.155 sec

Time for model grid setup =    0.299 sec

------------------------------
INITIAL GUESS: MODEL POTENTIAL
------------------------------
Loading Hartree-Fock densities                     ... done
Calculating cut-offs                               ... done
Initializing the effective Hamiltonian             ... done
Setting up the integral package (SHARK)            ... done
Starting the Coulomb interaction                   ... done (   0.5 sec)
Reading the grid                                   ... done
Mapping shells                                     ... done
Starting the XC term evaluation                    ... done (   0.7 sec)
  promolecular density results
     # of electrons  =     97.991769500
     EX              =    -68.360640617
     EC              =     -3.411294918
     EX+EC           =    -71.771935535
Transforming the Hamiltonian                       ... done (   0.0 sec)
Diagonalizing the Hamiltonian                      ... done (   0.1 sec)
Back transforming the eigenvectors                 ... done (   0.0 sec)
Now organizing SCF variables                       ... done
                      ------------------
                      INITIAL GUESS DONE (   1.6 sec)
                      ------------------
-------------------
DFT GRID GENERATION
-------------------

General Integration Accuracy     IntAcc      ... 4.388
Radial Grid Type                 RadialGrid  ... OptM3 with GC (2021)
Angular Grid (max. ang.)         AngularGrid ... 4 (Lebedev-302)
Angular grid pruning method      GridPruning ... 4 (adaptive)
Weight generation scheme         WeightScheme... Becke
Basis function cutoff            BFCut       ... 1.0000e-11
Integration weight cutoff        WCut        ... 1.0000e-14
Angular grids for H and He will be reduced by one unit
Partially contracted basis set               ... off
Rotationally invariant grid construction     ... off

Total number of grid points                  ...   119568
Total number of batches                      ...     1883
Average number of points per batch           ...       63
Average number of grid points per atom       ...     4599
Time for grid setup =    1.132 sec

--------------------
COSX GRID GENERATION
--------------------

GRIDX 1
-------
General Integration Accuracy     IntAcc      ... 3.816
Radial Grid Type                 RadialGrid  ... OptM3 with GC (2021)
Angular Grid (max. ang.)         AngularGrid ... 1 (Lebedev-50)
Angular grid pruning method      GridPruning ... 4 (adaptive)
Weight generation scheme         WeightScheme... Becke
Basis function cutoff            BFCut       ... 1.0000e-11
Integration weight cutoff        WCut        ... 1.0000e-14
Angular grids for H and He will be reduced by one unit
Partially contracted basis set               ... on
Rotationally invariant grid construction     ... off

Total number of grid points                  ...    14886
Total number of batches                      ...      245
Average number of points per batch           ...       60
Average number of grid points per atom       ...      573
UseSFitting                                  ... on

GRIDX 2
-------
General Integration Accuracy     IntAcc      ... 4.020
Radial Grid Type                 RadialGrid  ... OptM3 with GC (2021)
Angular Grid (max. ang.)         AngularGrid ... 2 (Lebedev-110)
Angular grid pruning method      GridPruning ... 4 (adaptive)
Weight generation scheme         WeightScheme... Becke
Basis function cutoff            BFCut       ... 1.0000e-11
Integration weight cutoff        WCut        ... 1.0000e-14
Angular grids for H and He will be reduced by one unit
Partially contracted basis set               ... on
Rotationally invariant grid construction     ... off

Total number of grid points                  ...    34494
Total number of batches                      ...      554
Average number of points per batch           ...       62
Average number of grid points per atom       ...     1327
UseSFitting                                  ... on

GRIDX 3
-------
General Integration Accuracy     IntAcc      ... 4.338
Radial Grid Type                 RadialGrid  ... OptM3 with GC (2021)
Angular Grid (max. ang.)         AngularGrid ... 3 (Lebedev-194)
Angular grid pruning method      GridPruning ... 4 (adaptive)
Weight generation scheme         WeightScheme... Becke
Basis function cutoff            BFCut       ... 1.0000e-11
Integration weight cutoff        WCut        ... 1.0000e-14
Angular grids for H and He will be reduced by one unit
Partially contracted basis set               ... on
Rotationally invariant grid construction     ... off

Total number of grid points                  ...    77280
Total number of batches                      ...     1223
Average number of points per batch           ...       63
Average number of grid points per atom       ...     2972
UseSFitting                                  ... on

Time for X-Grid setup             =    1.859 sec

--------------
SCF ITERATIONS
--------------
ITER       Energy         Delta-E        Max-DP      RMS-DP      [F,P]     Damp
               ***  Starting incremental Fock matrix formation  ***
  0   -922.1532887929   0.000000000000 0.29281409  0.00169044  0.1713348 0.7000
  1   -922.2847829410  -0.131494148038 0.24772749  0.00129169  0.0901797 0.7000
                               ***Turning on DIIS***
  2   -922.3454755218  -0.060692580859 0.65161998  0.00294604  0.0436297 0.0000
  3   -922.4516790195  -0.106203497720 0.07049090  0.00079859  0.0392522 0.0000
  4   -922.4674132436  -0.015734224079 0.05872545  0.00038873  0.0123583 0.0000
  5   -922.4682496140  -0.000836370364 0.02736251  0.00021390  0.0073487 0.0000
                      *** Initiating the SOSCF procedure ***
                           *** Shutting down DIIS ***
                      *** Re-Reading the Fockian *** 
                      *** Removing any level shift *** 
ITER      Energy       Delta-E        Grad      Rot      Max-DP    RMS-DP
  6   -922.46849968  -0.0002500657  0.000330  0.000330  0.012068  0.000134
               *** Restarting incremental Fock matrix formation ***
  7   -922.46851746  -0.0000177766  0.000076  0.000123  0.007663  0.000107
  8   -922.46851854  -0.0000010849  0.000062  0.000065  0.005363  0.000034
  9   -922.46851882  -0.0000002752  0.000016  0.000018  0.002567  0.000020
 10   -922.46851883  -0.0000000133  0.000009  0.000007  0.003535  0.000013
                  ***Gradient check signals convergence***
              ***Rediagonalizing the Fockian in SOSCF/NRSCF***

               *****************************************************
               *                     SUCCESS                       *
               *           SCF CONVERGED AFTER  11 CYCLES          *
               *****************************************************


----------------
TOTAL SCF ENERGY
----------------

Total Energy       :         -922.46851883 Eh          -25101.64454 eV

Components:
Nuclear Repulsion  :          871.14275383 Eh           23704.99947 eV
Electronic Energy  :        -1793.61127266 Eh          -48806.64401 eV
One Electron Energy:        -2997.73673095 Eh          -81572.56352 eV
Two Electron Energy:         1204.12545828 Eh           32765.91951 eV
Max COSX asymmetry :            0.00000768 Eh               0.00021 eV

Virial components:
Potential Energy   :        -1842.19771478 Eh          -50128.74832 eV
Kinetic Energy     :          919.72919595 Eh           25027.10378 eV
Virial Ratio       :            2.00297840


DFT components:
N(Alpha)           :       48.999945629784 electrons
N(Beta)            :       48.999945629784 electrons
N(Total)           :       97.999891259568 electrons
E(X)               :      -69.327156330009 Eh       
E(C)               :       -3.397695290031 Eh       
E(XC)              :      -72.724851620039 Eh       
DFET-embed. en.    :        0.000000000000 Eh       

---------------
SCF CONVERGENCE
---------------

  Last Energy change         ...    4.9909e-11  Tolerance :   1.0000e-08
  Last MAX-Density change    ...    3.6041e-03  Tolerance :   1.0000e-07
  Last RMS-Density change    ...    1.4515e-05  Tolerance :   5.0000e-09
  Last Orbital Gradient      ...    1.2277e-06  Tolerance :   1.0000e-05
  Last Orbital Rotation      ...    1.9201e-06  Tolerance :   1.0000e-05

             **** THE GBW FILE WAS UPDATED (28Oct_TZVPD_LC_PBE_D1_wb97.gbw) ****
             **** DENSITY 28Oct_TZVPD_LC_PBE_D1_wb97.scfp WAS UPDATED ****
             **** ENERGY FILE WAS UPDATED (28Oct_TZVPD_LC_PBE_D1_wb97.en.tmp) ****
             **** THE GBW FILE WAS UPDATED (28Oct_TZVPD_LC_PBE_D1_wb97.gbw) ****
             **** DENSITY 28Oct_TZVPD_LC_PBE_D1_wb97.scfp WAS UPDATED ****
----------------
ORBITAL ENERGIES
----------------

  NO   OCC          E(Eh)            E(eV) 
   0   2.0000     -88.545722     -2409.4516 
   1   2.0000     -24.628744      -670.1822 
   2   2.0000     -18.992922      -516.8237 
   3   2.0000     -18.992045      -516.7998 
   4   2.0000     -10.185711      -277.1673 
   5   2.0000     -10.145397      -276.0703 
   6   2.0000     -10.111060      -275.1359 
   7   2.0000     -10.100134      -274.8386 
   8   2.0000     -10.091440      -274.6021 
   9   2.0000     -10.076865      -274.2054 
  10   2.0000     -10.016228      -272.5554 
  11   2.0000      -8.157041      -221.9644 
  12   2.0000      -6.177228      -168.0909 
  13   2.0000      -6.170486      -167.9075 
  14   2.0000      -6.170008      -167.8944 
  15   2.0000      -1.563353       -42.5410 
  16   2.0000      -1.281563       -34.8731 
  17   2.0000      -1.175948       -31.9992 
  18   2.0000      -1.018882       -27.7252 
  19   2.0000      -0.976041       -26.5594 
  20   2.0000      -0.927295       -25.2330 
  21   2.0000      -0.897673       -24.4269 
  22   2.0000      -0.859901       -23.3991 
  23   2.0000      -0.812591       -22.1117 
  24   2.0000      -0.775926       -21.1140 
  25   2.0000      -0.761161       -20.7122 
  26   2.0000      -0.744048       -20.2466 
  27   2.0000      -0.708592       -19.2818 
  28   2.0000      -0.695701       -18.9310 
  29   2.0000      -0.647338       -17.6150 
  30   2.0000      -0.642997       -17.4968 
  31   2.0000      -0.620655       -16.8889 
  32   2.0000      -0.614215       -16.7136 
  33   2.0000      -0.585653       -15.9364 
  34   2.0000      -0.576288       -15.6816 
  35   2.0000      -0.560856       -15.2617 
  36   2.0000      -0.548416       -14.9232 
  37   2.0000      -0.523860       -14.2550 
  38   2.0000      -0.515916       -14.0388 
  39   2.0000      -0.511047       -13.9063 
  40   2.0000      -0.481144       -13.0926 
  41   2.0000      -0.476007       -12.9528 
  42   2.0000      -0.469475       -12.7751 
  43   2.0000      -0.463917       -12.6238 
  44   2.0000      -0.452396       -12.3103 
  45   2.0000      -0.438863       -11.9421 
  46   2.0000      -0.418683       -11.3929 
  47   2.0000      -0.413257       -11.2453 
  48   2.0000      -0.391240       -10.6462 
  49   0.0000       0.034377         0.9355 
  50   0.0000       0.055438         1.5086 
  51   0.0000       0.056917         1.5488 
  52   0.0000       0.071896         1.9564 
  53   0.0000       0.087684         2.3860 
  54   0.0000       0.090173         2.4537 
  55   0.0000       0.093748         2.5510 
  56   0.0000       0.099769         2.7148 
  57   0.0000       0.106363         2.8943 
  58   0.0000       0.120020         3.2659 
  59   0.0000       0.121407         3.3037 
  60   0.0000       0.128146         3.4870 
  61   0.0000       0.136802         3.7226 
  62   0.0000       0.138863         3.7787 
  63   0.0000       0.146321         3.9816 
  64   0.0000       0.146942         3.9985 
  65   0.0000       0.149612         4.0712 
  66   0.0000       0.160458         4.3663 
  67   0.0000       0.163501         4.4491 
  68   0.0000       0.175789         4.7835 
  69   0.0000       0.178477         4.8566 
  70   0.0000       0.182985         4.9793 
  71   0.0000       0.187875         5.1123 
  72   0.0000       0.189964         5.1692 
  73   0.0000       0.197140         5.3645 
  74   0.0000       0.199657         5.4330 
  75   0.0000       0.207536         5.6473 
  76   0.0000       0.214244         5.8299 
  77   0.0000       0.219257         5.9663 
  78   0.0000       0.224061         6.0970 
  79   0.0000       0.225547         6.1375 
  80   0.0000       0.238656         6.4941 
  81   0.0000       0.241649         6.5756 
  82   0.0000       0.244942         6.6652 
  83   0.0000       0.251225         6.8362 
  84   0.0000       0.256010         6.9664 
  85   0.0000       0.264079         7.1859 
  86   0.0000       0.272950         7.4273 
  87   0.0000       0.275156         7.4874 
  88   0.0000       0.278257         7.5718 
  89   0.0000       0.284187         7.7331 
  90   0.0000       0.285897         7.7796 
  91   0.0000       0.292421         7.9572 
  92   0.0000       0.295832         8.0500 
  93   0.0000       0.299604         8.1526 
  94   0.0000       0.304373         8.2824 
  95   0.0000       0.309732         8.4282 
  96   0.0000       0.314717         8.5639 
  97   0.0000       0.318571         8.6687 
  98   0.0000       0.320451         8.7199 
  99   0.0000       0.329091         8.9550 
 100   0.0000       0.331787         9.0284 
 101   0.0000       0.335414         9.1271 
 102   0.0000       0.345325         9.3968 
 103   0.0000       0.346876         9.4390 
 104   0.0000       0.348668         9.4877 
 105   0.0000       0.353582         9.6214 
 106   0.0000       0.358439         9.7536 
 107   0.0000       0.363595         9.8939 
 108   0.0000       0.369089        10.0434 
 109   0.0000       0.372056        10.1242 
 110   0.0000       0.375768        10.2252 
 111   0.0000       0.378288        10.2937 
 112   0.0000       0.382388        10.4053 
 113   0.0000       0.385093        10.4789 
 114   0.0000       0.385843        10.4993 
 115   0.0000       0.393372        10.7042 
 116   0.0000       0.400209        10.8902 
 117   0.0000       0.405382        11.0310 
 118   0.0000       0.407056        11.0765 
 119   0.0000       0.412972        11.2376 
 120   0.0000       0.416063        11.3217 
 121   0.0000       0.419904        11.4262 
 122   0.0000       0.423718        11.5299 
 123   0.0000       0.428404        11.6575 
 124   0.0000       0.430472        11.7137 
 125   0.0000       0.431995        11.7552 
 126   0.0000       0.435536        11.8515 
 127   0.0000       0.441100        12.0029 
 128   0.0000       0.443842        12.0776 
 129   0.0000       0.452029        12.3003 
 130   0.0000       0.453164        12.3312 
 131   0.0000       0.461803        12.5663 
 132   0.0000       0.467787        12.7291 
 133   0.0000       0.468809        12.7570 
 134   0.0000       0.472332        12.8528 
 135   0.0000       0.475528        12.9398 
 136   0.0000       0.476642        12.9701 
 137   0.0000       0.488323        13.2880 
 138   0.0000       0.494101        13.4452 
 139   0.0000       0.499821        13.6008 
 140   0.0000       0.505509        13.7556 
 141   0.0000       0.507960        13.8223 
 142   0.0000       0.513892        13.9837 
 143   0.0000       0.516632        14.0583 
 144   0.0000       0.517809        14.0903 
 145   0.0000       0.524941        14.2844 
 146   0.0000       0.529933        14.4202 
 147   0.0000       0.530969        14.4484 
 148   0.0000       0.534300        14.5390 
 149   0.0000       0.539802        14.6888 
 150   0.0000       0.543793        14.7974 
 151   0.0000       0.548675        14.9302 
 152   0.0000       0.555598        15.1186 
 153   0.0000       0.565696        15.3934 
 154   0.0000       0.565827        15.3969 
 155   0.0000       0.569104        15.4861 
 156   0.0000       0.572705        15.5841 
 157   0.0000       0.583740        15.8844 
 158   0.0000       0.586142        15.9497 
 159   0.0000       0.591666        16.1000 
 160   0.0000       0.594644        16.1811 
 161   0.0000       0.602848        16.4043 
 162   0.0000       0.607158        16.5216 
 163   0.0000       0.613134        16.6842 
 164   0.0000       0.622325        16.9343 
 165   0.0000       0.623581        16.9685 
 166   0.0000       0.626559        17.0495 
 167   0.0000       0.634479        17.2650 
 168   0.0000       0.638929        17.3861 
 169   0.0000       0.644555        17.5392 
 170   0.0000       0.650874        17.7112 
 171   0.0000       0.654647        17.8138 
 172   0.0000       0.662234        18.0203 
 173   0.0000       0.668105        18.1801 
 174   0.0000       0.673416        18.3246 
 175   0.0000       0.681311        18.5394 
 176   0.0000       0.686552        18.6820 
 177   0.0000       0.690503        18.7895 
 178   0.0000       0.697089        18.9688 
 179   0.0000       0.700587        19.0639 
 180   0.0000       0.707177        19.2433 
 181   0.0000       0.712137        19.3782 
 182   0.0000       0.718461        19.5503 
 183   0.0000       0.721843        19.6423 
 184   0.0000       0.727263        19.7898 
 185   0.0000       0.737568        20.0703 
 186   0.0000       0.742045        20.1921 
 187   0.0000       0.743895        20.2424 
 188   0.0000       0.753941        20.5158 
 189   0.0000       0.759801        20.6752 
 190   0.0000       0.763750        20.7827 
 191   0.0000       0.766028        20.8447 
 192   0.0000       0.774249        21.0684 
 193   0.0000       0.775988        21.1157 
 194   0.0000       0.784028        21.3345 
 195   0.0000       0.790182        21.5020 
 196   0.0000       0.795386        21.6436 
 197   0.0000       0.800655        21.7869 
 198   0.0000       0.803536        21.8653 
 199   0.0000       0.807842        21.9825 
 200   0.0000       0.819297        22.2942 
 201   0.0000       0.828505        22.5448 
 202   0.0000       0.831064        22.6144 
 203   0.0000       0.833425        22.6787 
 204   0.0000       0.839232        22.8367 
 205   0.0000       0.845023        22.9943 
 206   0.0000       0.850223        23.1357 
 207   0.0000       0.855661        23.2837 
 208   0.0000       0.857673        23.3385 
 209   0.0000       0.868228        23.6257 
 210   0.0000       0.873963        23.7817 
 211   0.0000       0.881661        23.9912 
 212   0.0000       0.883537        24.0423 
 213   0.0000       0.886044        24.1105 
 214   0.0000       0.891527        24.2597 
 215   0.0000       0.897616        24.4254 
 216   0.0000       0.905437        24.6382 
 217   0.0000       0.910688        24.7811 
 218   0.0000       0.913924        24.8691 
 219   0.0000       0.920128        25.0380 
 220   0.0000       0.927891        25.2492 
 221   0.0000       0.933665        25.4063 
 222   0.0000       0.935654        25.4604 
 223   0.0000       0.945237        25.7212 
 224   0.0000       0.951645        25.8956 
 225   0.0000       0.955149        25.9909 
 226   0.0000       0.960716        26.1424 
 227   0.0000       0.968342        26.3499 
 228   0.0000       0.982683        26.7402 
 229   0.0000       0.988082        26.8871 
 230   0.0000       0.995325        27.0842 
 231   0.0000       1.004505        27.3340 
 232   0.0000       1.010542        27.4983 
 233   0.0000       1.014830        27.6149 
 234   0.0000       1.019703        27.7475 
 235   0.0000       1.025850        27.9148 
 236   0.0000       1.027939        27.9716 
 237   0.0000       1.039310        28.2811 
 238   0.0000       1.050619        28.5888 
 239   0.0000       1.057209        28.7681 
 240   0.0000       1.060756        28.8646 
 241   0.0000       1.070037        29.1172 
 242   0.0000       1.073994        29.2249 
 243   0.0000       1.096879        29.8476 
 244   0.0000       1.102163        29.9914 
 245   0.0000       1.108692        30.1690 
 246   0.0000       1.113527        30.3006 
 247   0.0000       1.126798        30.6617 
 248   0.0000       1.133790        30.8520 
 249   0.0000       1.148457        31.2511 
 250   0.0000       1.153606        31.3912 
 251   0.0000       1.166788        31.7499 
 252   0.0000       1.189081        32.3565 
 253   0.0000       1.204522        32.7767 
 254   0.0000       1.207073        32.8461 
 255   0.0000       1.219133        33.1743 
 256   0.0000       1.219389        33.1813 
 257   0.0000       1.233712        33.5710 
 258   0.0000       1.242989        33.8234 
 259   0.0000       1.262005        34.3409 
 260   0.0000       1.276048        34.7230 
 261   0.0000       1.287873        35.0448 
 262   0.0000       1.303569        35.4719 
 263   0.0000       1.319062        35.8935 
 264   0.0000       1.325072        36.0570 
 265   0.0000       1.339684        36.4547 
 266   0.0000       1.352690        36.8086 
 267   0.0000       1.364049        37.1177 
 268   0.0000       1.375718        37.4352 
 269   0.0000       1.385420        37.6992 
 270   0.0000       1.400576        38.1116 
 271   0.0000       1.408610        38.3302 
 272   0.0000       1.415172        38.5088 
 273   0.0000       1.431630        38.9566 
 274   0.0000       1.436059        39.0772 
 275   0.0000       1.464006        39.8376 
 276   0.0000       1.479580        40.2614 
 277   0.0000       1.483760        40.3752 
 278   0.0000       1.495310        40.6895 
 279   0.0000       1.504572        40.9415 
 280   0.0000       1.517488        41.2929 
 281   0.0000       1.538635        41.8684 
 282   0.0000       1.555552        42.3287 
 283   0.0000       1.561253        42.4839 
 284   0.0000       1.569577        42.7104 
 285   0.0000       1.582544        43.0632 
 286   0.0000       1.601341        43.5747 
 287   0.0000       1.611096        43.8402 
 288   0.0000       1.619925        44.0804 
 289   0.0000       1.623647        44.1817 
 290   0.0000       1.664276        45.2873 
 291   0.0000       1.670414        45.4543 
 292   0.0000       1.681985        45.7691 
 293   0.0000       1.684156        45.8282 
 294   0.0000       1.722308        46.8664 
 295   0.0000       1.737406        47.2772 
 296   0.0000       1.760006        47.8922 
 297   0.0000       1.767790        48.1040 
 298   0.0000       1.783492        48.5313 
 299   0.0000       1.809449        49.2376 
 300   0.0000       1.827626        49.7322 
 301   0.0000       1.845770        50.2259 
 302   0.0000       1.900387        51.7122 
 303   0.0000       1.923933        52.3529 
 304   0.0000       1.928541        52.4783 
 305   0.0000       1.944960        52.9250 
 306   0.0000       1.947465        52.9932 
 307   0.0000       1.952103        53.1194 
 308   0.0000       1.960524        53.3486 
 309   0.0000       1.973533        53.7026 
 310   0.0000       1.983617        53.9770 
 311   0.0000       2.005042        54.5600 
 312   0.0000       2.009545        54.6825 
 313   0.0000       2.012945        54.7750 
 314   0.0000       2.015268        54.8382 
 315   0.0000       2.019864        54.9633 
 316   0.0000       2.031862        55.2898 
 317   0.0000       2.035845        55.3982 
 318   0.0000       2.040882        55.5352 
 319   0.0000       2.051195        55.8159 
 320   0.0000       2.056681        55.9651 
 321   0.0000       2.062220        56.1159 
 322   0.0000       2.069339        56.3096 
 323   0.0000       2.071422        56.3662 
 324   0.0000       2.075977        56.4902 
 325   0.0000       2.101585        57.1870 
 326   0.0000       2.110852        57.4392 
 327   0.0000       2.116214        57.5851 
 328   0.0000       2.139477        58.2181 
 329   0.0000       2.143394        58.3247 
 330   0.0000       2.163881        58.8822 
 331   0.0000       2.192110        59.6504 
 332   0.0000       2.213990        60.2457 
 333   0.0000       2.225451        60.5576 
 334   0.0000       2.232767        60.7567 
 335   0.0000       2.254861        61.3579 
 336   0.0000       2.264553        61.6216 
 337   0.0000       2.285611        62.1946 
 338   0.0000       2.291568        62.3567 
 339   0.0000       2.300102        62.5890 
 340   0.0000       2.310221        62.8643 
 341   0.0000       2.327399        63.3317 
 342   0.0000       2.338345        63.6296 
 343   0.0000       2.361331        64.2551 
 344   0.0000       2.372493        64.5588 
 345   0.0000       2.382138        64.8213 
 346   0.0000       2.388496        64.9943 
 347   0.0000       2.410324        65.5883 
 348   0.0000       2.418014        65.7975 
 349   0.0000       2.427047        66.0433 
 350   0.0000       2.446198        66.5644 
 351   0.0000       2.458133        66.8892 
 352   0.0000       2.483203        67.5714 
 353   0.0000       2.499635        68.0185 
 354   0.0000       2.506152        68.1959 
 355   0.0000       2.530206        68.8504 
 356   0.0000       2.565183        69.8022 
 357   0.0000       2.576782        70.1178 
 358   0.0000       2.579458        70.1906 
 359   0.0000       2.621911        71.3458 
 360   0.0000       2.626407        71.4682 
 361   0.0000       2.633482        71.6607 
 362   0.0000       2.644021        71.9475 
 363   0.0000       2.664899        72.5156 
 364   0.0000       2.698740        73.4365 
 365   0.0000       2.710399        73.7537 
 366   0.0000       2.724252        74.1307 
 367   0.0000       2.733761        74.3894 
 368   0.0000       2.756490        75.0079 
 369   0.0000       2.757604        75.0382 
 370   0.0000       2.778120        75.5965 
 371   0.0000       2.787709        75.8574 
 372   0.0000       2.795915        76.0807 
 373   0.0000       2.804095        76.3033 
 374   0.0000       2.810233        76.4703 
 375   0.0000       2.817608        76.6710 
 376   0.0000       2.825978        76.8988 
 377   0.0000       2.840736        77.3004 
 378   0.0000       2.855605        77.7050 
 379   0.0000       2.866214        77.9937 
 380   0.0000       2.882930        78.4485 
 381   0.0000       2.887079        78.5614 
 382   0.0000       2.891056        78.6696 
 383   0.0000       2.906356        79.0860 
 384   0.0000       2.909328        79.1668 
 385   0.0000       2.911923        79.2375 
 386   0.0000       2.924206        79.5717 
 387   0.0000       2.926628        79.6376 
 388   0.0000       2.946690        80.1835 
 389   0.0000       2.959391        80.5291 
 390   0.0000       2.967748        80.7565 
 391   0.0000       2.972677        80.8907 
 392   0.0000       2.990974        81.3885 
 393   0.0000       2.993015        81.4441 
 394   0.0000       3.016656        82.0874 
 395   0.0000       3.022123        82.2361 
 396   0.0000       3.033109        82.5351 
 397   0.0000       3.041002        82.7499 
 398   0.0000       3.063368        83.3585 
 399   0.0000       3.066749        83.4505 
 400   0.0000       3.087215        84.0074 
 401   0.0000       3.100934        84.3807 
 402   0.0000       3.109069        84.6021 
 403   0.0000       3.110517        84.6415 
 404   0.0000       3.147649        85.6519 
 405   0.0000       3.167706        86.1977 
 406   0.0000       3.179848        86.5281 
 407   0.0000       3.199602        87.0656 
 408   0.0000       3.214415        87.4687 
 409   0.0000       3.225062        87.7584 
 410   0.0000       3.243251        88.2533 
 411   0.0000       3.247570        88.3709 
 412   0.0000       3.261690        88.7551 
 413   0.0000       3.297087        89.7183 
 414   0.0000       3.305089        89.9360 
 415   0.0000       3.324467        90.4633 
 416   0.0000       3.351036        91.1863 
 417   0.0000       3.365691        91.5851 
 418   0.0000       3.367428        91.6324 
 419   0.0000       3.395500        92.3962 
 420   0.0000       3.408082        92.7386 
 421   0.0000       3.426751        93.2466 
 422   0.0000       3.428694        93.2995 
 423   0.0000       3.454316        93.9967 
 424   0.0000       3.467874        94.3656 
 425   0.0000       3.481516        94.7369 
 426   0.0000       3.492042        95.0233 
 427   0.0000       3.505976        95.4025 
 428   0.0000       3.514485        95.6340 
 429   0.0000       3.531108        96.0863 
 430   0.0000       3.535218        96.1982 
 431   0.0000       3.544642        96.4546 
 432   0.0000       3.553274        96.6895 
 433   0.0000       3.565163        97.0130 
 434   0.0000       3.580362        97.4266 
 435   0.0000       3.586270        97.5874 
 436   0.0000       3.595374        97.8351 
 437   0.0000       3.598885        97.9306 
 438   0.0000       3.627856        98.7190 
 439   0.0000       3.647075        99.2420 
 440   0.0000       3.648935        99.2926 
 441   0.0000       3.668010        99.8116 
 442   0.0000       3.671135        99.8967 
 443   0.0000       3.690529       100.4244 
 444   0.0000       3.699790       100.6764 
 445   0.0000       3.709552       100.9420 
 446   0.0000       3.715830       101.1129 
 447   0.0000       3.738305       101.7245 
 448   0.0000       3.751030       102.0707 
 449   0.0000       3.760004       102.3149 
 450   0.0000       3.772869       102.6650 
 451   0.0000       3.794243       103.2466 
 452   0.0000       3.804110       103.5151 
 453   0.0000       3.823899       104.0536 
 454   0.0000       3.829979       104.2190 
 455   0.0000       3.843292       104.5813 
 456   0.0000       3.864213       105.1506 
 457   0.0000       3.877374       105.5087 
 458   0.0000       3.891233       105.8858 
 459   0.0000       3.921012       106.6962 
 460   0.0000       3.942585       107.2832 
 461   0.0000       3.973113       108.1139 
 462   0.0000       3.988735       108.5390 
 463   0.0000       4.017260       109.3152 
 464   0.0000       4.041067       109.9630 
 465   0.0000       4.060109       110.4812 
 466   0.0000       4.077398       110.9516 
 467   0.0000       4.089704       111.2865 
 468   0.0000       4.119308       112.0921 
 469   0.0000       4.127829       112.3239 
 470   0.0000       4.170039       113.4725 
 471   0.0000       4.201019       114.3155 
 472   0.0000       4.225450       114.9803 
 473   0.0000       4.229861       115.1004 
 474   0.0000       4.250555       115.6635 
 475   0.0000       4.260705       115.9397 
 476   0.0000       4.289670       116.7279 
 477   0.0000       4.309789       117.2753 
 478   0.0000       4.314018       117.3904 
 479   0.0000       4.322433       117.6194 
 480   0.0000       4.336410       117.9997 
 481   0.0000       4.349282       118.3500 
 482   0.0000       4.382100       119.2430 
 483   0.0000       4.404382       119.8493 
 484   0.0000       4.416531       120.1799 
 485   0.0000       4.468245       121.5871 
 486   0.0000       4.491520       122.2205 
 487   0.0000       4.512293       122.7857 
 488   0.0000       4.607987       125.3897 
 489   0.0000       4.660511       126.8190 
 490   0.0000       4.681448       127.3887 
 491   0.0000       4.703133       127.9787 
 492   0.0000       4.728587       128.6714 
 493   0.0000       4.752867       129.3321 
 494   0.0000       4.823408       131.2516 
 495   0.0000       4.846603       131.8828 
 496   0.0000       4.849551       131.9630 
 497   0.0000       4.904389       133.4552 
 498   0.0000       4.937022       134.3432 
 499   0.0000       4.980809       135.5347 
 500   0.0000       4.985607       135.6653 
 501   0.0000       5.022512       136.6695 
 502   0.0000       5.054067       137.5282 
 503   0.0000       5.078159       138.1837 
 504   0.0000       5.113704       139.1510 
 505   0.0000       5.168847       140.6515 
 506   0.0000       5.197289       141.4254 
 507   0.0000       5.278400       143.6326 
 508   0.0000       5.308849       144.4611 
 509   0.0000       5.318951       144.7360 
 510   0.0000       5.330666       145.0548 
 511   0.0000       5.336712       145.2193 
 512   0.0000       5.347890       145.5235 
 513   0.0000       5.368833       146.0934 
 514   0.0000       5.405040       147.0786 
 515   0.0000       5.430808       147.7798 
 516   0.0000       5.486578       149.2974 
 517   0.0000       5.524327       150.3246 
 518   0.0000       5.590147       152.1156 
 519   0.0000       5.654124       153.8565 
 520   0.0000       5.672822       154.3653 
 521   0.0000       5.704899       155.2382 
 522   0.0000       5.769596       156.9987 
 523   0.0000       5.829850       158.6383 
 524   0.0000       6.620969       180.1657 
 525   0.0000       6.682913       181.8513 
 526   0.0000       6.704774       182.4462 
 527   0.0000       6.786326       184.6653 
 528   0.0000       6.820078       185.5838 
 529   0.0000       6.841927       186.1783 
 530   0.0000       6.853873       186.5034 
 531   0.0000       6.886543       187.3924 
 532   0.0000       6.942764       188.9222 
 533   0.0000       6.983527       190.0314 
 534   0.0000       7.037566       191.5019 
 535   0.0000       7.056534       192.0181 
 536   0.0000       7.087090       192.8495 
 537   0.0000       7.177127       195.2996 
 538   0.0000       7.198419       195.8789 
 539   0.0000       7.225353       196.6119 
 540   0.0000       7.251822       197.3321 
 541   0.0000       8.518206       231.7922 
 542   0.0000       8.528781       232.0799 
 543   0.0000       8.765767       238.5287 
 544   0.0000       8.782554       238.9854 
 545   0.0000       9.069778       246.8012 
 546   0.0000       9.588163       260.9072 
 547   0.0000       9.773366       265.9468 
 548   0.0000      10.049548       273.4621 
 549   0.0000      22.425245       610.2219 
 550   0.0000      22.717948       618.1868 
 551   0.0000      22.776210       619.7722 
 552   0.0000      22.854260       621.8960 
 553   0.0000      22.871435       622.3634 
 554   0.0000      22.896201       623.0373 
 555   0.0000      22.965132       624.9130 
 556   0.0000      23.115372       629.0012 
 557   0.0000      44.107027      1200.2132 
 558   0.0000      44.175817      1202.0851 
 559   0.0000      57.330629      1560.0457 

                    ********************************
                    * MULLIKEN POPULATION ANALYSIS *
                    ********************************

-----------------------
MULLIKEN ATOMIC CHARGES
-----------------------
   0 C :   -0.556309
   1 C :   -1.798388
   2 C :   -0.897787
   3 C :   -1.054592
   4 S :    1.112900
   5 H :    0.687200
   6 H :    0.461161
   7 H :    0.584825
   8 F :   -0.045706
   9 O :   -0.671199
  10 H :    0.397073
  11 H :    0.372064
  12 O :   -0.655204
  13 C :   -0.611815
  14 H :    0.337638
  15 H :    0.369156
  16 C :   -0.647541
  17 H :    0.396385
  18 H :    0.386645
  19 C :   -0.787067
  20 H :    0.535137
  21 H :    0.513289
  22 H :    0.397237
  23 H :    0.388606
  24 H :    0.384871
  25 H :    0.401420
Sum of atomic charges:   -0.0000000

--------------------------------
MULLIKEN REDUCED ORBITAL CHARGES
--------------------------------
  0 C s       :     3.259082  s :     3.259082
      pz      :     1.128163  p :     3.335698
      px      :     0.864308
      py      :     1.343228
      dz2     :     0.027350  d :    -0.043634
      dxz     :    -0.002165
      dyz     :    -0.020157
      dx2y2   :     0.025634
      dxy     :    -0.074295
      f0      :     0.000291  f :     0.005163
      f+1     :     0.001319
      f-1     :     0.000501
      f+2     :     0.000907
      f-2     :     0.000480
      f+3     :     0.000500
      f-3     :     0.001164
  1 C s       :     4.006805  s :     4.006805
      pz      :     1.280873  p :     3.764189
      px      :     1.074633
      py      :     1.408684
      dz2     :     0.051858  d :     0.024820
      dxz     :    -0.014390
      dyz     :    -0.003108
      dx2y2   :    -0.027651
      dxy     :     0.018111
      f0      :     0.000443  f :     0.002574
      f+1     :     0.000484
      f-1     :     0.000031
      f+2     :     0.000188
      f-2     :     0.000171
      f+3     :     0.000756
      f-3     :     0.000501
  2 C s       :     3.399210  s :     3.399210
      pz      :     1.189807  p :     3.515745
      px      :     1.266385
      py      :     1.059554
      dz2     :    -0.049788  d :    -0.022038
      dxz     :     0.016579
      dyz     :     0.014325
      dx2y2   :     0.033146
      dxy     :    -0.036301
      f0      :     0.000212  f :     0.004871
      f+1     :     0.000537
      f-1     :     0.000798
      f+2     :     0.001408
      f-2     :     0.000588
      f+3     :     0.000883
      f-3     :     0.000445
  3 C s       :     3.409864  s :     3.409864
      pz      :     1.265032  p :     3.553949
      px      :     1.092515
      py      :     1.196402
      dz2     :     0.004292  d :     0.086769
      dxz     :     0.010551
      dyz     :    -0.016720
      dx2y2   :     0.033174
      dxy     :     0.055471
      f0      :     0.000425  f :     0.004010
      f+1     :     0.001104
      f-1     :     0.000368
      f+2     :     0.000213
      f-2     :     0.000809
      f+3     :     0.000560
      f-3     :     0.000532
  4 S s       :     5.458394  s :     5.458394
      pz      :     2.634760  p :     8.049312
      px      :     2.685714
      py      :     2.728838
      dz2     :     0.302853  d :     1.247988
      dxz     :     0.263179
      dyz     :     0.259377
      dx2y2   :     0.119895
      dxy     :     0.302684
      f0      :     0.014785  f :     0.131406
      f+1     :     0.025337
      f-1     :     0.027696
      f+2     :     0.014015
      f-2     :     0.018355
      f+3     :     0.018955
      f-3     :     0.012264
  5 H s       :     0.296508  s :     0.296508
      pz      :    -0.015171  p :     0.016292
      px      :     0.017808
      py      :     0.013655
  6 H s       :     0.462202  s :     0.462202
      pz      :     0.024869  p :     0.076637
      px      :     0.032450
      py      :     0.019317
  7 H s       :     0.450373  s :     0.450373
      pz      :    -0.070677  p :    -0.035198
      px      :     0.010879
      py      :     0.024601
  8 F s       :     3.846035  s :     3.846035
      pz      :     1.818659  p :     5.172955
      px      :     1.571611
      py      :     1.782685
      dz2     :     0.003241  d :     0.025795
      dxz     :     0.005574
      dyz     :     0.001934
      dx2y2   :     0.008278
      dxy     :     0.006768
      f0      :     0.000090  f :     0.000922
      f+1     :     0.000143
      f-1     :     0.000046
      f+2     :     0.000097
      f-2     :     0.000144
      f+3     :     0.000192
      f-3     :     0.000211
  9 O s       :     4.017061  s :     4.017061
      pz      :     1.591156  p :     4.613023
      px      :     1.649028
      py      :     1.372838
      dz2     :     0.002656  d :     0.039269
      dxz     :     0.006355
      dyz     :     0.009026
      dx2y2   :     0.013145
      dxy     :     0.008087
      f0      :     0.000155  f :     0.001846
      f+1     :     0.000055
      f-1     :     0.000447
      f+2     :     0.000321
      f-2     :     0.000320
      f+3     :     0.000285
      f-3     :     0.000263
 10 H s       :     0.535479  s :     0.535479
      pz      :     0.030460  p :     0.067448
      px      :     0.023133
      py      :     0.013856
 11 H s       :     0.560703  s :     0.560703
      pz      :     0.017019  p :     0.067233
      px      :     0.014008
      py      :     0.036206
 12 O s       :     4.004460  s :     4.004460
      pz      :     1.240293  p :     4.621583
      px      :     1.685652
      py      :     1.695638
      dz2     :     0.008862  d :     0.027332
      dxz     :     0.010903
      dyz     :     0.006228
      dx2y2   :     0.001697
      dxy     :    -0.000358
      f0      :     0.000611  f :     0.001829
      f+1     :     0.000482
      f-1     :     0.000523
      f+2     :     0.000088
      f-2     :     0.000094
      f+3     :     0.000025
      f-3     :     0.000006
 13 C s       :     3.285300  s :     3.285300
      pz      :     1.017875  p :     3.345712
      px      :     1.382590
      py      :     0.945247
      dz2     :    -0.020618  d :    -0.023938
      dxz     :     0.022505
      dyz     :     0.014286
      dx2y2   :     0.015802
      dxy     :    -0.055914
      f0      :     0.000244  f :     0.004741
      f+1     :     0.000182
      f-1     :     0.001017
      f+2     :     0.001415
      f-2     :     0.000822
      f+3     :     0.000626
      f-3     :     0.000435
 14 H s       :     0.573393  s :     0.573393
      pz      :     0.026241  p :     0.088969
      px      :     0.042033
      py      :     0.020695
 15 H s       :     0.562805  s :     0.562805
      pz      :     0.022250  p :     0.068038
      px      :     0.025974
      py      :     0.019814
 16 C s       :     3.329471  s :     3.329471
      pz      :     1.035102  p :     3.334984
      px      :     1.341217
      py      :     0.958665
      dz2     :    -0.032027  d :    -0.021680
      dxz     :     0.018579
      dyz     :     0.003322
      dx2y2   :    -0.018773
      dxy     :     0.007220
      f0      :     0.000320  f :     0.004766
      f+1     :     0.000173
      f-1     :     0.000981
      f+2     :     0.001075
      f-2     :     0.001212
      f+3     :     0.000347
      f-3     :     0.000659
 17 H s       :     0.532800  s :     0.532800
      pz      :     0.014726  p :     0.070816
      px      :     0.038594
      py      :     0.017496
 18 H s       :     0.556372  s :     0.556372
      pz      :     0.021343  p :     0.056983
      px      :     0.025213
      py      :     0.010427
 19 C s       :     3.320526  s :     3.320526
      pz      :     1.156239  p :     3.500552
      px      :     1.140787
      py      :     1.203526
      dz2     :    -0.050695  d :    -0.038953
      dxz     :     0.005031
      dyz     :     0.019221
      dx2y2   :    -0.027788
      dxy     :     0.015277
      f0      :     0.000326  f :     0.004942
      f+1     :     0.000694
      f-1     :     0.000595
      f+2     :     0.000826
      f-2     :     0.001228
      f+3     :     0.000395
      f-3     :     0.000877
 20 H s       :     0.407806  s :     0.407806
      pz      :     0.029091  p :     0.057056
      px      :     0.027778
      py      :     0.000188
 21 H s       :     0.437100  s :     0.437100
      pz      :     0.017320  p :     0.049612
      px      :     0.010070
      py      :     0.022222
 22 H s       :     0.521886  s :     0.521886
      pz      :     0.007010  p :     0.080877
      px      :     0.030564
      py      :     0.043303
 23 H s       :     0.560071  s :     0.560071
      pz      :     0.013880  p :     0.051322
      px      :     0.020615
      py      :     0.016827
 24 H s       :     0.549397  s :     0.549397
      pz      :     0.008751  p :     0.065732
      px      :     0.028385
      py      :     0.028596
 25 H s       :     0.522967  s :     0.522967
      pz      :     0.028482  p :     0.075613
      px      :     0.018033
      py      :     0.029098


                     *******************************
                     * LOEWDIN POPULATION ANALYSIS *
                     *******************************

----------------------
LOEWDIN ATOMIC CHARGES
----------------------
   0 C :   -0.259942
   1 C :   -0.147794
   2 C :   -0.222520
   3 C :   -0.228553
   4 S :    0.647746
   5 H :    0.027134
   6 H :    0.074796
   7 H :   -0.003820
   8 F :   -0.017741
   9 O :   -0.302567
  10 H :    0.112497
  11 H :    0.112134
  12 O :   -0.292067
  13 C :   -0.218529
  14 H :    0.114491
  15 H :    0.121609
  16 C :   -0.216715
  17 H :    0.123088
  18 H :    0.092366
  19 C :   -0.221352
  20 H :    0.115672
  21 H :    0.106517
  22 H :    0.102643
  23 H :    0.129124
  24 H :    0.128267
  25 H :    0.123517

-------------------------------
LOEWDIN REDUCED ORBITAL CHARGES
-------------------------------
  0 C s       :     2.651558  s :     2.651558
      pz      :     0.931743  p :     2.798446
      px      :     0.943394
      py      :     0.923309
      dz2     :     0.178452  d :     0.767272
      dxz     :     0.165431
      dyz     :     0.080600
      dx2y2   :     0.203467
      dxy     :     0.139321
      f0      :     0.003316  f :     0.042665
      f+1     :     0.009061
      f-1     :     0.004917
      f+2     :     0.005884
      f-2     :     0.005540
      f+3     :     0.004609
      f-3     :     0.009338
  1 C s       :     2.661169  s :     2.661169
      pz      :     0.983351  p :     2.903674
      px      :     0.944426
      py      :     0.975897
      dz2     :     0.113815  d :     0.553459
      dxz     :     0.115288
      dyz     :     0.053221
      dx2y2   :     0.097733
      dxy     :     0.173402
      f0      :     0.004346  f :     0.029492
      f+1     :     0.004189
      f-1     :     0.001518
      f+2     :     0.004799
      f-2     :     0.004327
      f+3     :     0.006397
      f-3     :     0.003915
  2 C s       :     2.660830  s :     2.660830
      pz      :     0.933289  p :     2.781899
      px      :     0.931541
      py      :     0.917069
      dz2     :     0.108218  d :     0.741498
      dxz     :     0.139132
      dyz     :     0.190986
      dx2y2   :     0.175693
      dxy     :     0.127470
      f0      :     0.004037  f :     0.038293
      f+1     :     0.004492
      f-1     :     0.006912
      f+2     :     0.006869
      f-2     :     0.004458
      f+3     :     0.007177
      f-3     :     0.004348
  3 C s       :     2.703400  s :     2.703400
      pz      :     0.987192  p :     2.811730
      px      :     0.903157
      py      :     0.921381
      dz2     :     0.174486  d :     0.682728
      dxz     :     0.116904
      dyz     :     0.088272
      dx2y2   :     0.112459
      dxy     :     0.190607
      f0      :     0.003277  f :     0.030695
      f+1     :     0.005885
      f-1     :     0.004241
      f+2     :     0.003305
      f-2     :     0.004903
      f+3     :     0.004971
      f-3     :     0.004114
  4 S s       :     4.558348  s :     4.558348
      pz      :     2.780009  p :     8.277319
      px      :     2.716758
      py      :     2.780552
      dz2     :     0.497336  d :     2.129510
      dxz     :     0.395101
      dyz     :     0.440693
      dx2y2   :     0.322451
      dxy     :     0.473929
      f0      :     0.052426  f :     0.387078
      f+1     :     0.067946
      f-1     :     0.075747
      f+2     :     0.041231
      f-2     :     0.054088
      f+3     :     0.053196
      f-3     :     0.042444
  5 H s       :     0.644498  s :     0.644498
      pz      :     0.142332  p :     0.328368
      px      :     0.079911
      py      :     0.106126
  6 H s       :     0.703116  s :     0.703116
      pz      :     0.064443  p :     0.222089
      px      :     0.075797
      py      :     0.081849
  7 H s       :     0.637018  s :     0.637018
      pz      :     0.086207  p :     0.366802
      px      :     0.096936
      py      :     0.183660
  8 F s       :     3.594603  s :     3.594603
      pz      :     1.759574  p :     5.177673
      px      :     1.677098
      py      :     1.741000
      dz2     :     0.038833  d :     0.243504
      dxz     :     0.049650
      dyz     :     0.023985
      dx2y2   :     0.061508
      dxy     :     0.069527
      f0      :     0.000201  f :     0.001961
      f+1     :     0.000308
      f-1     :     0.000097
      f+2     :     0.000197
      f-2     :     0.000311
      f+3     :     0.000344
      f-3     :     0.000503
  9 O s       :     3.435169  s :     3.435169
      pz      :     1.559131  p :     4.535149
      px      :     1.515797
      py      :     1.460220
      dz2     :     0.062008  d :     0.327765
      dxz     :     0.031991
      dyz     :     0.098061
      dx2y2   :     0.069933
      dxy     :     0.065772
      f0      :     0.000559  f :     0.004484
      f+1     :     0.000121
      f-1     :     0.000843
      f+2     :     0.001003
      f-2     :     0.000781
      f+3     :     0.000644
      f-3     :     0.000533
 10 H s       :     0.675166  s :     0.675166
      pz      :     0.086204  p :     0.212336
      px      :     0.052245
      py      :     0.073887
 11 H s       :     0.683195  s :     0.683195
      pz      :     0.053479  p :     0.204671
      px      :     0.054910
      py      :     0.096283
 12 O s       :     3.432365  s :     3.432365
      pz      :     1.429666  p :     4.528360
      px      :     1.540856
      py      :     1.557838
      dz2     :     0.112521  d :     0.326779
      dxz     :     0.057202
      dyz     :     0.075088
      dx2y2   :     0.039294
      dxy     :     0.042676
      f0      :     0.001909  f :     0.004562
      f+1     :     0.000801
      f-1     :     0.001406
      f+2     :     0.000147
      f-2     :     0.000177
      f+3     :     0.000109
      f-3     :     0.000012
 13 C s       :     2.648635  s :     2.648635
      pz      :     0.928058  p :     2.770546
      px      :     0.925828
      py      :     0.916661
      dz2     :     0.112058  d :     0.760901
      dxz     :     0.169117
      dyz     :     0.178664
      dx2y2   :     0.162345
      dxy     :     0.138717
      f0      :     0.004734  f :     0.038447
      f+1     :     0.002544
      f-1     :     0.008066
      f+2     :     0.006802
      f-2     :     0.005218
      f+3     :     0.006095
      f-3     :     0.004987
 14 H s       :     0.681982  s :     0.681982
      pz      :     0.067660  p :     0.203527
      px      :     0.085174
      py      :     0.050693
 15 H s       :     0.677840  s :     0.677840
      pz      :     0.080323  p :     0.200550
      px      :     0.051594
      py      :     0.068634
 16 C s       :     2.649383  s :     2.649383
      pz      :     0.935163  p :     2.771545
      px      :     0.931321
      py      :     0.905062
      dz2     :     0.113953  d :     0.757397
      dxz     :     0.166517
      dyz     :     0.175456
      dx2y2   :     0.156647
      dxy     :     0.144823
      f0      :     0.005231  f :     0.038390
      f+1     :     0.002804
      f-1     :     0.007543
      f+2     :     0.005633
      f-2     :     0.006311
      f+3     :     0.004375
      f-3     :     0.006493
 17 H s       :     0.679273  s :     0.679273
      pz      :     0.061755  p :     0.197639
      px      :     0.081798
      py      :     0.054086
 18 H s       :     0.641242  s :     0.641242
      pz      :     0.075221  p :     0.266392
      px      :     0.123355
      py      :     0.067816
 19 C s       :     2.661365  s :     2.661365
      pz      :     0.929042  p :     2.786082
      px      :     0.912246
      py      :     0.944794
      dz2     :     0.112255  d :     0.736024
      dxz     :     0.161787
      dyz     :     0.174484
      dx2y2   :     0.120557
      dxy     :     0.166940
      f0      :     0.004417  f :     0.037881
      f+1     :     0.005349
      f-1     :     0.005545
      f+2     :     0.005078
      f-2     :     0.006741
      f+3     :     0.003898
      f-3     :     0.006852
 20 H s       :     0.662062  s :     0.662062
      pz      :     0.091868  p :     0.222266
      px      :     0.063500
      py      :     0.066898
 21 H s       :     0.676400  s :     0.676400
      pz      :     0.055358  p :     0.217083
      px      :     0.067434
      py      :     0.094291
 22 H s       :     0.640921  s :     0.640921
      pz      :     0.071712  p :     0.256436
      px      :     0.102144
      py      :     0.082580
 23 H s       :     0.675645  s :     0.675645
      pz      :     0.063143  p :     0.195232
      px      :     0.081835
      py      :     0.050253
 24 H s       :     0.669548  s :     0.669548
      pz      :     0.061489  p :     0.202185
      px      :     0.076375
      py      :     0.064321
 25 H s       :     0.670544  s :     0.670544
      pz      :     0.081216  p :     0.205939
      px      :     0.059765
      py      :     0.064958


                      *****************************
                      * MAYER POPULATION ANALYSIS *
                      *****************************

  NA   - Mulliken gross atomic population
  ZA   - Total nuclear charge
  QA   - Mulliken gross atomic charge
  VA   - Mayer's total valence
  BVA  - Mayer's bonded valence
  FA   - Mayer's free valence

  ATOM       NA         ZA         QA         VA         BVA        FA
  0 C      6.5563     6.0000    -0.5563     2.8213     2.8213    -0.0000
  1 C      7.7984     6.0000    -1.7984     2.6928     2.6928     0.0000
  2 C      6.8978     6.0000    -0.8978     3.6577     3.6577    -0.0000
  3 C      7.0546     6.0000    -1.0546     3.4493     3.4493    -0.0000
  4 S     14.8871    16.0000     1.1129     5.2539     5.2539     0.0000
  5 H      0.3128     1.0000     0.6872     0.3847     0.3847    -0.0000
  6 H      0.5388     1.0000     0.4612     0.8664     0.8664     0.0000
  7 H      0.4152     1.0000     0.5848     0.4932     0.4932    -0.0000
  8 F      9.0457     9.0000    -0.0457     1.0131     1.0131    -0.0000
  9 O      8.6712     8.0000    -0.6712     1.7943     1.7943     0.0000
 10 H      0.6029     1.0000     0.3971     0.9075     0.9075    -0.0000
 11 H      0.6279     1.0000     0.3721     0.9339     0.9339    -0.0000
 12 O      8.6552     8.0000    -0.6552     1.7440     1.7440    -0.0000
 13 C      6.6118     6.0000    -0.6118     3.0533     3.0533     0.0000
 14 H      0.6624     1.0000     0.3376     1.0395     1.0395    -0.0000
 15 H      0.6308     1.0000     0.3692     0.9561     0.9561     0.0000
 16 C      6.6475     6.0000    -0.6475     2.9927     2.9927    -0.0000
 17 H      0.6036     1.0000     0.3964     0.9739     0.9739     0.0000
 18 H      0.6134     1.0000     0.3866     0.9390     0.9390    -0.0000
 19 C      6.7871     6.0000    -0.7871     3.3573     3.3573     0.0000
 20 H      0.4649     1.0000     0.5351     0.7509     0.7509    -0.0000
 21 H      0.4867     1.0000     0.5133     0.8151     0.8151     0.0000
 22 H      0.6028     1.0000     0.3972     0.9134     0.9134    -0.0000
 23 H      0.6114     1.0000     0.3886     0.9321     0.9321    -0.0000
 24 H      0.6151     1.0000     0.3849     0.9707     0.9707     0.0000
 25 H      0.5986     1.0000     0.4014     0.9481     0.9481     0.0000

  Mayer bond orders larger than 0.100000
B(  0-C ,  1-C ) :   0.2613 B(  0-C ,  2-C ) :   0.7223 B(  0-C , 10-H ) :   0.9008 
B(  0-C , 11-H ) :   0.9167 B(  0-C , 16-C ) :   0.1229 B(  1-C ,  5-H ) :   0.5451 
B(  1-C ,  6-H ) :   0.8407 B(  1-C ,  7-H ) :   0.7479 B(  1-C ,  9-O ) :   0.1580 
B(  1-C , 12-O ) :   0.1754 B(  2-C , 13-C ) :   0.8767 B(  2-C , 14-H ) :   0.9479 
B(  2-C , 15-H ) :   0.9242 B(  3-C ,  4-S ) :   0.8964 B(  3-C ,  9-O ) :   0.1183 
B(  3-C , 13-C ) :   0.1143 B(  3-C , 19-C ) :   0.6560 B(  3-C , 20-H ) :   0.7982 
B(  3-C , 21-H ) :   0.7723 B(  4-S ,  8-F ) :   0.9502 B(  4-S ,  9-O ) :   1.6509 
B(  4-S , 12-O ) :   1.6889 B(  5-H ,  9-O ) :  -0.1863 B(  7-H , 12-O ) :  -0.3038 
B(  9-O , 12-O ) :   0.1660 B( 13-C , 16-C ) :   0.3978 B( 13-C , 17-H ) :   0.8766 
B( 13-C , 18-H ) :   1.0104 B( 16-C , 18-H ) :  -0.1035 B( 16-C , 19-C ) :   0.8193 
B( 16-C , 22-H ) :   0.9853 B( 16-C , 23-H ) :   0.8674 B( 19-C , 24-H ) :   0.9217 
B( 19-C , 25-H ) :   0.8848 

-------
TIMINGS
-------

Total SCF time: 0 days 0 hours 3 min 53 sec 

Total time                  ....     233.782 sec
Sum of individual times     ....     232.910 sec  ( 99.6%)

Fock matrix formation       ....     226.548 sec  ( 96.9%)
  Split-RI-J                ....      11.166 sec  (  4.9% of F)
  Chain of spheres X        ....     189.692 sec  ( 83.7% of F)
  XC integration            ....      25.425 sec  ( 11.2% of F)
    Basis function eval.    ....       5.189 sec  ( 20.4% of XC)
    Density eval.           ....       8.809 sec  ( 34.6% of XC)
    XC-Functional eval.     ....       0.596 sec  (  2.3% of XC)
    XC-Potential eval.      ....      10.188 sec  ( 40.1% of XC)
Diagonalization             ....       0.776 sec  (  0.3%)
Density matrix formation    ....       0.046 sec  (  0.0%)
Population analysis         ....       0.092 sec  (  0.0%)
Initial guess               ....       1.322 sec  (  0.6%)
Orbital Transformation      ....       0.000 sec  (  0.0%)
Orbital Orthonormalization  ....       0.000 sec  (  0.0%)
DIIS solution               ....       0.426 sec  (  0.2%)
SOSCF solution              ....       0.411 sec  (  0.2%)
Grid generation             ....       3.289 sec  (  1.4%)

Maximum memory used throughout the entire SCF-calculation: 98.9 MB

-------------------------   --------------------
FINAL SINGLE POINT ENERGY      -922.468518829656
-------------------------   --------------------


                            ***************************************
                            *     ORCA property calculations      *
                            ***************************************

                                    ---------------------
                                    Active property flags
                                    ---------------------
   (+) Dipole Moment


------------------------------------------------------------------------------
                       ORCA ELECTRIC PROPERTIES CALCULATION
------------------------------------------------------------------------------

Dipole Moment Calculation                       ... on
Quadrupole Moment Calculation                   ... off
Polarizability Calculation                      ... off
GBWName                                         ... 28Oct_TZVPD_LC_PBE_D1_wb97.gbw
Electron density file                           ... 28Oct_TZVPD_LC_PBE_D1_wb97.scfp
The origin for moment calculation is the CENTER OF MASS  = (-10.642670, -7.632210 -0.112577)

-------------
DIPOLE MOMENT
-------------
                                X             Y             Z
Electronic contribution:    -18.95794      -8.73640      -6.75623
Nuclear contribution   :     19.08524       6.89775       6.14221
                        -----------------------------------------
Total Dipole Moment    :      0.12730      -1.83865      -0.61402
                        -----------------------------------------
Magnitude (a.u.)       :      1.94264
Magnitude (Debye)      :      4.93779



--------------------
Rotational spectrum 
--------------------
 
Rotational constants in cm-1:     0.049343     0.024787     0.019726 
Rotational constants in MHz :  1479.262779   743.087234   591.370705 

 Dipole components along the rotational axes: 
x,y,z [a.u.] :    -1.129356     1.565485    -0.218295 
x,y,z [Debye]:    -2.870595     3.979147    -0.554861 

 

Timings for individual modules:

Sum of individual times         ...      235.116 sec (=   3.919 min)
GTO integral calculation        ...        0.973 sec (=   0.016 min)   0.4 %
SCF iterations                  ...      234.143 sec (=   3.902 min)  99.6 %
                             ****ORCA TERMINATED NORMALLY****
TOTAL RUN TIME: 0 days 0 hours 3 minutes 55 seconds 778 msec
