
                                        *****************
                                        * O   R   C   A *
                                        *****************

                                            #,                                       
                                            ###                                      
                                            ####                                     
                                            #####                                    
                                            ######                                   
                                           ########,                                 
                                     ,,################,,,,,                         
                               ,,#################################,,                 
                          ,,##########################################,,             
                       ,#########################################, ''#####,          
                    ,#############################################,,   '####,        
                  ,##################################################,,,,####,       
                ,###########''''           ''''###############################       
              ,#####''   ,,,,##########,,,,          '''####'''          '####       
            ,##' ,,,,###########################,,,                        '##       
           ' ,,###''''                  '''############,,,                           
         ,,##''                                '''############,,,,        ,,,,,,###''
      ,#''                                            '''#######################'''  
     '                                                          ''''####''''         
             ,#######,   #######,   ,#######,      ##                                
            ,#'     '#,  ##    ##  ,#'     '#,    #''#        ######   ,####,        
            ##       ##  ##   ,#'  ##            #'  '#       #        #'  '#        
            ##       ##  #######   ##           ,######,      #####,   #    #        
            '#,     ,#'  ##    ##  '#,     ,#' ,#      #,         ##   #,  ,#        
             '#######'   ##     ##  '#######'  #'      '#     #####' # '####'        



                  #######################################################
                  #                        -***-                        #
                  #          Department of theory and spectroscopy      #
                  #    Directorship and core code : Frank Neese         #
                  #        Max Planck Institute fuer Kohlenforschung    #
                  #                Kaiser Wilhelm Platz 1               #
                  #                 D-45470 Muelheim/Ruhr               #
                  #                      Germany                        #
                  #                                                     #
                  #                  All rights reserved                #
                  #                        -***-                        #
                  #######################################################


                         Program Version 5.0.0 -  RELEASE  -
                                (SVN: $Rev: 19529$)
                ($Date: 2021-06-28 11:36:33 +0200 (Mo, 28 Jun 2021) $)


 With contributions from (in alphabetic order):
   Daniel Aravena         : Magnetic Suceptibility
   Michael Atanasov       : Ab Initio Ligand Field Theory (pilot matlab implementation)
   Alexander A. Auer      : GIAO ZORA, VPT2 properties, NMR spectrum
   Ute Becker             : Parallelization
   Giovanni Bistoni       : ED, misc. LED, open-shell LED, HFLD
   Martin Brehm           : Molecular dynamics
   Dmytro Bykov           : SCF Hessian
   Vijay G. Chilkuri      : MRCI spin determinant printing, contributions to CSF-ICE
   Dipayan Datta          : RHF DLPNO-CCSD density
   Achintya Kumar Dutta   : EOM-CC, STEOM-CC
   Dmitry Ganyushin       : Spin-Orbit,Spin-Spin,Magnetic field MRCI
   Miquel Garcia          : C-PCM Hessian, Gaussian charge scheme
   Yang Guo               : DLPNO-NEVPT2, F12-NEVPT2, CIM, IAO-localization
   Andreas Hansen         : Spin unrestricted coupled pair/coupled cluster methods
   Benjamin Helmich-Paris : MC-RPA, TRAH-SCF, COSX integrals
   Lee Huntington         : MR-EOM, pCC
   Robert Izsak           : Overlap fitted RIJCOSX, COSX-SCS-MP3, EOM
   Marcus Kettner         : VPT2
   Christian Kollmar      : KDIIS, OOCD, Brueckner-CCSD(T), CCSD density, CASPT2, CASPT2-K
   Simone Kossmann        : Meta GGA functionals, TD-DFT gradient, OOMP2, MP2 Hessian
   Martin Krupicka        : Initial AUTO-CI
   Lucas Lang             : DCDCAS
   Marvin Lechner         : AUTO-CI (C++ implementation), FIC-MRCC
   Dagmar Lenk            : GEPOL surface, SMD
   Dimitrios Liakos       : Extrapolation schemes; Compound Job, initial MDCI parallelization
   Dimitrios Manganas     : Further ROCIS development; embedding schemes
   Dimitrios Pantazis     : SARC Basis sets
   Anastasios Papadopoulos: AUTO-CI, single reference methods and gradients
   Taras Petrenko         : DFT Hessian,TD-DFT gradient, ASA, ECA, R-Raman, ABS, FL, XAS/XES, NRVS
   Peter Pinski           : DLPNO-MP2, DLPNO-MP2 Gradient
   Christoph Reimann      : Effective Core Potentials
   Marius Retegan         : Local ZFS, SOC
   Christoph Riplinger    : Optimizer, TS searches, QM/MM, DLPNO-CCSD(T), (RO)-DLPNO pert. Triples
   Tobias Risthaus        : Range-separated hybrids, TD-DFT gradient, RPA, STAB
   Michael Roemelt        : Original ROCIS implementation
   Masaaki Saitow         : Open-shell DLPNO-CCSD energy and density
   Barbara Sandhoefer     : DKH picture change effects
   Avijit Sen             : IP-ROCIS
   Kantharuban Sivalingam : CASSCF convergence, NEVPT2, FIC-MRCI
   Bernardo de Souza      : ESD, SOC TD-DFT
   Georgi Stoychev        : AutoAux, RI-MP2 NMR
   Willem Van den Heuvel  : Paramagnetic NMR
   Boris Wezisla          : Elementary symmetry handling
   Frank Wennmohs         : Technical directorship


 We gratefully acknowledge several colleagues who have allowed us to
 interface, adapt or use parts of their codes:
   Stefan Grimme, W. Hujo, H. Kruse, P. Pracht,  : VdW corrections, initial TS optimization,
                  C. Bannwarth, S. Ehlert          DFT functionals, gCP, sTDA/sTD-DF
   Ed Valeev, F. Pavosevic, A. Kumar             : LibInt (2-el integral package), F12 methods
   Garnet Chan, S. Sharma, J. Yang, R. Olivares  : DMRG
   Ulf Ekstrom                                   : XCFun DFT Library
   Mihaly Kallay                                 : mrcc  (arbitrary order and MRCC methods)
   Jiri Pittner, Ondrej Demel                    : Mk-CCSD
   Frank Weinhold                                : gennbo (NPA and NBO analysis)
   Christopher J. Cramer and Donald G. Truhlar   : smd solvation model
   Lars Goerigk                                  : TD-DFT with DH, B97 family of functionals
   V. Asgeirsson, H. Jonsson                     : NEB implementation
   FAccTs GmbH                                   : IRC, NEB, NEB-TS, DLPNO-Multilevel, CI-OPT
                                                   MM, QMMM, 2- and 3-layer-ONIOM, Crystal-QMMM,
                                                   LR-CPCM, SF, NACMEs, symmetry and pop. for TD-DFT,
                                                   nearIR, NL-DFT gradient (VV10), updates on ESD,
                                                   ML-optimized integration grids
   S Lehtola, MJT Oliveira, MAL Marques          : LibXC Library
   Liviu Ungur et al                             : ANISO software


 Your calculation uses the libint2 library for the computation of 2-el integrals
 For citations please refer to: http://libint.valeyev.net

 Your ORCA version has been built with support for libXC version: 5.1.0
 For citations please refer to: https://tddft.org/programs/libxc/

 This ORCA versions uses:
   CBLAS   interface :  Fast vector & matrix operations
   LAPACKE interface :  Fast linear algebra routines
   SCALAPACK package :  Parallel linear algebra routines
   Shared memory     :  Shared parallel matrices
   BLAS/LAPACK       :  OpenBLAS 0.3.15  USE64BITINT DYNAMIC_ARCH NO_AFFINITY Haswell SINGLE_THREADED
        Core in use  :  Haswell
   Copyright (c) 2011-2014, The OpenBLAS Project




***************************************
The coordinates will be read from file: D3.xyz
***************************************


Your calculation utilizes the atom-pairwise dispersion correction
with the Becke-Johnson damping scheme (D3BJ)
Cite in your paper:
S.Grimme, S.Ehrlich, L.Goerigk, J Comput Chem, (2011), 32, 1456–1465 
S.Grimme, J.Antony, S.Ehrlich and H.Krieg, J.Chem.Phys., 132, (2010), 154104 
   

================================================================================

----- Orbital basis set information -----
Your calculation utilizes the basis: def2-TZVP
   F. Weigend and R. Ahlrichs, Phys. Chem. Chem. Phys. 7, 3297 (2005).

----- AuxJ basis set information -----
Your calculation utilizes the auxiliary basis: def2/J
   F. Weigend, Phys. Chem. Chem. Phys. 8, 1057 (2006).

================================================================================
                                        WARNINGS
                       Please study these warnings very carefully!
================================================================================



WARNING: Found flag for RIJCOSX approximation but no HF exchange needed!
  ===> : RIJCOSX  will be disabled and Split-RI-J is turned on

INFO   : the flag for use of the SHARK integral package has been found!

================================================================================
                                       INPUT FILE
================================================================================
NAME = PBE_D3_wb97.com
|  1> !PBE D3BJ RIJCOSX def2-TZVP def2/J TightSCF xyzfile                                                                                         
|  2> 
|  3> *xyzfile 0 1 D3.xyz
|  4> 
|  5> %MaxCore 64000
|  6> 
|  7> %pal nprocs 18                                                                                                                                                  
|  8> end  
|  9> 
| 10> %scf
| 11>   MaxIter 150
| 12> end
| 13> 
| 14> 
| 15>                          ****END OF INPUT****
================================================================================

                       ****************************
                       * Single Point Calculation *
                       ****************************

---------------------------------
CARTESIAN COORDINATES (ANGSTROEM)
---------------------------------
  C      3.488276    1.600919   -1.522040
  C      4.342970    1.313419   -2.756826
  N      2.810285    0.428783   -1.014196
  H      5.132033    0.604994   -2.484466
  C      3.535896    0.749253   -3.924604
  H      4.841247    2.242136   -3.054083
  H      2.991617   -0.132199   -3.574137
  H      4.225505    0.392784   -4.695962
  C      2.564776    1.750890   -4.544523
  H      1.918749    2.171679   -3.769419
  C      1.686235    1.161657   -5.650111
  H      3.132494    2.594775   -4.951604
  C      0.839616   -0.037582   -5.220473
  H      2.323886    0.866395   -6.490796
  H      1.029518    1.951850   -6.029329
  C     -0.151019    0.254955   -4.094256
  H      1.499442   -0.857141   -4.922958
  H      0.290097   -0.410143   -6.091131
  H      0.328265    0.833022   -3.299125
  C     -0.721843   -0.999513   -3.439309
  H     -0.957367    0.884951   -4.485450
  H     -1.083403   -1.697555   -4.205656
  H     -1.581056   -0.723848   -2.820490
  C      0.287250   -1.711771   -2.527405
  H      1.131780   -2.067380   -3.159396
  H     -0.204137   -2.637326   -2.170480
  F      0.710505   -0.927506   -1.481767
  H      2.714548    2.331455   -1.760302
  H      4.090991    2.063151   -0.733382
  C      3.290978   -0.418021   -0.129083
  N      2.517536   -1.432017    0.239360
  C      4.535490   -0.284410    0.395800
  H      5.043627    0.571888    0.222899
  H      4.723346   -0.733273    1.281800
  H      1.934787    0.102305   -1.403788
  H      1.674638   -1.505616   -0.316095
  H      2.928503   -2.218502    0.725494

----------------------------
CARTESIAN COORDINATES (A.U.)
----------------------------
  NO LB      ZA    FRAG     MASS         X           Y           Z
   0 C     6.0000    0    12.011    6.591886    3.025299   -2.876239
   1 C     6.0000    0    12.011    8.207025    2.482002   -5.209646
   2 N     7.0000    0    14.007    5.310669    0.810282   -1.916553
   3 H     1.0000    0     1.008    9.698136    1.143274   -4.694961
   4 C     6.0000    0    12.011    6.681876    1.415882   -7.416427
   5 H     1.0000    0     1.008    9.148630    4.237023   -5.771380
   6 H     1.0000    0     1.008    5.653337   -0.249820   -6.754139
   7 H     1.0000    0     1.008    7.985048    0.742255   -8.874081
   8 C     6.0000    0    12.011    4.846724    3.308702   -8.587904
   9 H     1.0000    0     1.008    3.625910    4.103878   -7.123169
  10 C     6.0000    0    12.011    3.186522    2.195214  -10.677162
  11 H     1.0000    0     1.008    5.919555    4.903415   -9.357176
  12 C     6.0000    0    12.011    1.586644   -0.071019   -9.865265
  13 H     1.0000    0     1.008    4.391508    1.637249  -12.265827
  14 H     1.0000    0     1.008    1.945507    3.688463  -11.393780
  15 C     6.0000    0    12.011   -0.285385    0.481796   -7.737022
  16 H     1.0000    0     1.008    2.833535   -1.619761   -9.303042
  17 H     1.0000    0     1.008    0.548203   -0.775057  -11.510569
  18 H     1.0000    0     1.008    0.620330    1.574183   -6.234443
  19 C     6.0000    0    12.011   -1.364086   -1.888806   -6.499353
  20 H     1.0000    0     1.008   -1.809162    1.672316   -8.476272
  21 H     1.0000    0     1.008   -2.047335   -3.207914   -7.947538
  22 H     1.0000    0     1.008   -2.987764   -1.367875   -5.329954
  23 C     6.0000    0    12.011    0.542823   -3.234779   -4.776103
  24 H     1.0000    0     1.008    2.138755   -3.906782   -5.970393
  25 H     1.0000    0     1.008   -0.385762   -4.983823   -4.101613
  26 F     9.0000    0    18.998    1.342660   -1.752732   -2.800135
  27 H     1.0000    0     1.008    5.129752    4.405811   -3.326489
  28 H     1.0000    0     1.008    7.730853    3.898789   -1.385891
  29 C     6.0000    0    12.011    6.219047   -0.789945   -0.243932
  30 N     7.0000    0    14.007    4.757454   -2.706119    0.452325
  31 C     6.0000    0    12.011    8.570834   -0.537456    0.747953
  32 H     1.0000    0     1.008    9.531074    1.080712    0.421217
  33 H     1.0000    0     1.008    8.925831   -1.385686    2.422252
  34 H     1.0000    0     1.008    3.656217    0.193328   -2.652774
  35 H     1.0000    0     1.008    3.164607   -2.845202   -0.597334
  36 H     1.0000    0     1.008    5.534070   -4.192361    1.370985

--------------------------------
INTERNAL COORDINATES (ANGSTROEM)
--------------------------------
 C      0   0   0     0.000000000000     0.00000000     0.00000000
 C      1   0   0     1.529004311212     0.00000000     0.00000000
 N      1   2   0     1.446195375932   113.15671188     0.00000000
 H      2   1   3     1.094835450998   108.88311797   297.46227904
 C      2   1   3     1.527533547743   113.04687260    59.25363534
 H      2   1   3     1.095059950335   108.30657377   181.72967420
 H      5   2   1     1.093629235804   108.39933303   305.65930648
 H      5   2   1     1.094359250051   109.03892378   190.59994054
 C      5   2   1     1.526647100088   113.84120577    68.44243951
 H      9   5   2     1.093252555496   109.90907909   306.33821313
 C      9   5   2     1.530148082989   113.95197811   184.01452502
 H      9   5   2     1.095518723818   109.06520164    61.96998775
 C     11   9   5     1.529550954136   114.63065221    57.56350210
 H     11   9   5     1.095687242633   108.90572960   295.11623132
 H     11   9   5     1.095211911752   108.45866823   180.04154027
 C     13  11   9     1.528169152287   114.56532976    60.48661575
 H     13  11   9     1.093418017761   109.27401645   297.18429669
 H     13  11   9     1.094905273953   108.73687110   182.71832707
 H     16  13  11     1.093666325461   110.66465425   314.78573976
 C     16  13  11     1.525938152831   113.66815791   194.81663603
 H     16  13  11     1.095502134239   108.90903890    71.11398690
 H     20  16  13     1.097850012491   110.26126339   310.82240862
 H     20  16  13     1.094155159142   109.23125727   193.21835968
 C     20  16  13     1.535301202832   112.98258493    73.89565367
 H     24  20  16     1.113149576335   108.03750335   296.14745253
 H     24  20  16     1.107025824926   106.71610381   184.10385442
 F     24  20  16     1.373890718814   112.93635288    61.07829747
 H      1   2   3     1.090461274884   110.25145316   240.62041291
 H      1   2   3     1.094945591824   110.69264311   124.42385865
 C      3   1   2     1.315890509947   125.91029234    89.02716148
 N     30   3   1     1.327459888213   117.73702349   178.95879857
 C     30   3   1     1.357263177239   122.12208586   358.51006578
 H     32  30   3     1.010615980654   118.57303789    10.64231622
 H     32  30   3     1.010824328304   117.75287703   158.14392314
 H      3   1   2     1.012357148298   122.11859135   277.16175064
 H     31  30   3     1.012139275472   112.85794600     8.15083227
 H     31  30   3     1.011819864094   119.37008202   164.55835961

---------------------------
INTERNAL COORDINATES (A.U.)
---------------------------
 C      0   0   0     0.000000000000     0.00000000     0.00000000
 C      1   0   0     2.889399405776     0.00000000     0.00000000
 N      1   2   0     2.732913196655   113.15671188     0.00000000
 H      2   1   3     2.068939164095   108.88311797   297.46227904
 C      2   1   3     2.886620065610   113.04687260    59.25363534
 H      2   1   3     2.069363406359   108.30657377   181.72967420
 H      5   2   1     2.066659747719   108.39933303   305.65930648
 H      5   2   1     2.068039274720   109.03892378   190.59994054
 C      5   2   1     2.884944922311   113.84120577    68.44243951
 H      9   5   2     2.065947925096   109.90907909   306.33821313
 C      9   5   2     2.891560821194   113.95197811   184.01452502
 H      9   5   2     2.070230362600   109.06520164    61.96998775
 C     11   9   5     2.890432411195   114.63065221    57.56350210
 H     11   9   5     2.070548817007   108.90572960   295.11623132
 H     11   9   5     2.069650571820   108.45866823   180.04154027
 C     13  11   9     2.887821184129   114.56532976    60.48661575
 H     13  11   9     2.066260603464   109.27401645   297.18429669
 H     13  11   9     2.069071110358   108.73687110   182.71832707
 H     16  13  11     2.066729837013   110.66465425   314.78573976
 C     16  13  11     2.883605206152   113.66815791   194.81663603
 H     16  13  11     2.070199012839   108.90903890    71.11398690
 H     20  16  13     2.074635859729   110.26126339   310.82240862
 H     20  16  13     2.067653598795   109.23125727   193.21835968
 C     20  16  13     2.901298806432   112.98258493    73.89565367
 H     24  20  16     2.103547845363   108.03750335   296.14745253
 H     24  20  16     2.091975632289   106.71610381   184.10385442
 F     24  20  16     2.596277196494   112.93635288    61.07829747
 H      1   2   3     2.060673169176   110.25145316   240.62041291
 H      1   2   3     2.069147300091   110.69264311   124.42385865
 C      3   1   2     2.486672686025   125.91029234    89.02716148
 N     30   3   1     2.508535642489   117.73702349   178.95879857
 C     30   3   1     2.564855696637   122.12208586   358.51006578
 H     32  30   3     1.909787430000   118.57303789    10.64231622
 H     32  30   3     1.910181150000   117.75287703   158.14392314
 H      3   1   2     1.913077760000   122.11859135   277.16175064
 H     31  30   3     1.912666040027   112.85794600     8.15083227
 H     31  30   3     1.912062440000   119.37008202   164.55835961

---------------------
BASIS SET INFORMATION
---------------------
There are 4 groups of distinct atoms

 Group   1 Type C   : 11s6p2d1f contracted to 5s3p2d1f pattern {62111/411/11/1}
 Group   2 Type N   : 11s6p2d1f contracted to 5s3p2d1f pattern {62111/411/11/1}
 Group   3 Type H   : 5s1p contracted to 3s1p pattern {311/1}
 Group   4 Type F   : 11s6p2d1f contracted to 5s3p2d1f pattern {62111/411/11/1}

Atom   0C    basis set group =>   1
Atom   1C    basis set group =>   1
Atom   2N    basis set group =>   2
Atom   3H    basis set group =>   3
Atom   4C    basis set group =>   1
Atom   5H    basis set group =>   3
Atom   6H    basis set group =>   3
Atom   7H    basis set group =>   3
Atom   8C    basis set group =>   1
Atom   9H    basis set group =>   3
Atom  10C    basis set group =>   1
Atom  11H    basis set group =>   3
Atom  12C    basis set group =>   1
Atom  13H    basis set group =>   3
Atom  14H    basis set group =>   3
Atom  15C    basis set group =>   1
Atom  16H    basis set group =>   3
Atom  17H    basis set group =>   3
Atom  18H    basis set group =>   3
Atom  19C    basis set group =>   1
Atom  20H    basis set group =>   3
Atom  21H    basis set group =>   3
Atom  22H    basis set group =>   3
Atom  23C    basis set group =>   1
Atom  24H    basis set group =>   3
Atom  25H    basis set group =>   3
Atom  26F    basis set group =>   4
Atom  27H    basis set group =>   3
Atom  28H    basis set group =>   3
Atom  29C    basis set group =>   1
Atom  30N    basis set group =>   2
Atom  31C    basis set group =>   1
Atom  32H    basis set group =>   3
Atom  33H    basis set group =>   3
Atom  34H    basis set group =>   3
Atom  35H    basis set group =>   3
Atom  36H    basis set group =>   3
---------------------------------
AUXILIARY/J BASIS SET INFORMATION
---------------------------------
There are 4 groups of distinct atoms

 Group   1 Type C   : 12s5p4d2f1g contracted to 6s4p3d1f1g pattern {711111/2111/211/2/1}
 Group   2 Type N   : 12s5p4d2f1g contracted to 6s4p3d1f1g pattern {711111/2111/211/2/1}
 Group   3 Type H   : 5s2p1d contracted to 3s1p1d pattern {311/2/1}
 Group   4 Type F   : 12s5p4d2f1g contracted to 6s4p3d1f1g pattern {711111/2111/211/2/1}

Atom   0C    basis set group =>   1
Atom   1C    basis set group =>   1
Atom   2N    basis set group =>   2
Atom   3H    basis set group =>   3
Atom   4C    basis set group =>   1
Atom   5H    basis set group =>   3
Atom   6H    basis set group =>   3
Atom   7H    basis set group =>   3
Atom   8C    basis set group =>   1
Atom   9H    basis set group =>   3
Atom  10C    basis set group =>   1
Atom  11H    basis set group =>   3
Atom  12C    basis set group =>   1
Atom  13H    basis set group =>   3
Atom  14H    basis set group =>   3
Atom  15C    basis set group =>   1
Atom  16H    basis set group =>   3
Atom  17H    basis set group =>   3
Atom  18H    basis set group =>   3
Atom  19C    basis set group =>   1
Atom  20H    basis set group =>   3
Atom  21H    basis set group =>   3
Atom  22H    basis set group =>   3
Atom  23C    basis set group =>   1
Atom  24H    basis set group =>   3
Atom  25H    basis set group =>   3
Atom  26F    basis set group =>   4
Atom  27H    basis set group =>   3
Atom  28H    basis set group =>   3
Atom  29C    basis set group =>   1
Atom  30N    basis set group =>   2
Atom  31C    basis set group =>   1
Atom  32H    basis set group =>   3
Atom  33H    basis set group =>   3
Atom  34H    basis set group =>   3
Atom  35H    basis set group =>   3
Atom  36H    basis set group =>   3


           ************************************************************
           *        Program running with 18 parallel MPI-processes    *
           *              working on a common directory               *
           ************************************************************
------------------------------------------------------------------------------
                           ORCA GTO INTEGRAL CALCULATION
                           -- RI-GTO INTEGRALS CHOSEN --
------------------------------------------------------------------------------
------------------------------------------------------------------------------
                   ___                                                        
                  /   \      - P O W E R E D   B Y -                         
                 /     \                                                     
                 |  |  |   _    _      __       _____    __    __             
                 |  |  |  | |  | |    /  \     |  _  \  |  |  /  |          
                  \  \/   | |  | |   /    \    | | | |  |  | /  /          
                 / \  \   | |__| |  /  /\  \   | |_| |  |  |/  /          
                |  |  |   |  __  | /  /__\  \  |    /   |      \           
                |  |  |   | |  | | |   __   |  |    \   |  |\   \          
                \     /   | |  | | |  |  |  |  | |\  \  |  | \   \       
                 \___/    |_|  |_| |__|  |__|  |_| \__\ |__|  \__/        
                                                                              
                      - O R C A' S   B I G   F R I E N D -                    
                                      &                                       
                       - I N T E G R A L  F E E D E R -                       
                                                                              
 v1 FN, 2020, v2 2021                                                         
------------------------------------------------------------------------------


Reading SHARK input file PBE_D3_wb97.SHARKINP.tmp ... ok
----------------------
SHARK INTEGRAL PACKAGE
----------------------

Number of atoms                             ...     37
Number of basis functions                   ...    572
Number of shells                            ...    246
Maximum angular momentum                    ...      3
Integral batch strategy                     ... SHARK/LIBINT Hybrid
RI-J (if used) integral strategy            ... SPLIT-RIJ (Revised 2003 algorithm where possible)
Printlevel                                  ...      1
Contraction scheme used                     ... SEGMENTED contraction
Coulomb Range Separation                    ... NOT USED
Exchange Range Separation                   ... NOT USED
Finite Nucleus Model                        ... NOT USED
Auxiliary Coulomb fitting basis             ... AVAILABLE
   # of basis functions in Aux-J            ...    939
   # of shells in Aux-J                     ...    325
   Maximum angular momentum in Aux-J        ...      4
Auxiliary J/K fitting basis                 ... NOT available
Auxiliary Correlation fitting basis         ... NOT available
Auxiliary 'external' fitting basis          ... NOT available
Integral threshold                          ...     2.500000e-11
Primitive cut-off                           ...     2.500000e-12
Primitive pair pre-selection threshold      ...     2.500000e-12

Calculating pre-screening integrals         ... done (  0.3 sec) Dimension = 246
Organizing shell pair data                  ... done (  0.3 sec)
Shell pair information
Total number of shell pairs                 ...     30381
Shell pairs after pre-screening             ...     24656
Total number of primitive shell pairs       ...     87948
Primitive shell pairs kept                  ...     49921
          la=0 lb=0:   7808 shell pairs
          la=1 lb=0:   7397 shell pairs
          la=1 lb=1:   1811 shell pairs
          la=2 lb=0:   3150 shell pairs
          la=2 lb=1:   1523 shell pairs
          la=2 lb=2:    344 shell pairs
          la=3 lb=0:   1497 shell pairs
          la=3 lb=1:    730 shell pairs
          la=3 lb=2:    314 shell pairs
          la=3 lb=3:     82 shell pairs

Calculating one electron integrals          ... done (  0.0 sec)
Calculating RI/J V-Matrix + Cholesky decomp.... done (  0.2 sec)
Calculating Nuclear repulsion               ... done (  0.0 sec) ENN=   1012.046943547343 Eh

SHARK setup successfully completed in   1.0 seconds

Maximum memory used throughout the entire GTOINT-calculation: 36.7 MB


           ************************************************************
           *        Program running with 18 parallel MPI-processes    *
           *              working on a common directory               *
           ************************************************************
-------------------------------------------------------------------------------
                                 ORCA SCF
-------------------------------------------------------------------------------

------------
SCF SETTINGS
------------
Hamiltonian:
 Density Functional     Method          .... DFT(GTOs)
 Exchange Functional    Exchange        .... PBE
   PBE kappa parameter   XKappa         ....  0.804000
   PBE mue parameter    XMuePBE         ....  0.219520
 Correlation Functional Correlation     .... PBE
   PBE beta parameter  CBetaPBE         ....  0.066725
 LDA part of GGA corr.  LDAOpt          .... PW91-LDA
 Gradients option       PostSCFGGA      .... off
   Density functional embedding theory  .... OFF
   NL short-range parameter             ....  6.400000
 RI-approximation to the Coulomb term is turned on
   Number of AuxJ basis functions       .... 939


General Settings:
 Integral files         IntName         .... PBE_D3_wb97
 Hartree-Fock type      HFTyp           .... RHF
 Total Charge           Charge          ....    0
 Multiplicity           Mult            ....    1
 Number of Electrons    NEL             ....  112
 Basis Dimension        Dim             ....  572
 Nuclear Repulsion      ENuc            ....   1012.0469435473 Eh

Convergence Acceleration:
 DIIS                   CNVDIIS         .... on
   Start iteration      DIISMaxIt       ....    12
   Startup error        DIISStart       ....  0.200000
   # of expansion vecs  DIISMaxEq       ....     5
   Bias factor          DIISBfac        ....   1.050
   Max. coefficient     DIISMaxC        ....  10.000
 Trust-Rad. Augm. Hess. CNVTRAH         .... auto
   Auto Start mean grad. ratio tolernc. ....  1.125000
   Auto Start start iteration           ....    20
   Auto Start num. interpolation iter.  ....    10
   Max. Number of Micro iterations      ....    16
   Max. Number of Macro iterations      .... Maxiter - #DIIS iter
   Number of Davidson start vectors     ....     2
   Converg. threshold I  (grad. norm)   ....   1.000e-05
   Converg. threshold II (energy diff.) ....   1.000e-08
   Grad. Scal. Fac. for Micro threshold ....   0.100
   Minimum threshold for Micro iter.    ....   0.010
   NR start threshold (gradient norm)   ....   0.001
   Initial trust radius                 ....   0.400
   Minimum AH scaling param. (alpha)    ....   1.000
   Maximum AH scaling param. (alpha)    .... 1000.000
   Orbital update algorithm             .... Taylor
   White noise on init. David. guess    .... on
   Maximum white noise                  ....   0.010
   Quad. conv. algorithm                .... NR
 SOSCF                  CNVSOSCF        .... on
   Start iteration      SOSCFMaxIt      ....   150
   Startup grad/error   SOSCFStart      ....  0.003300
 Level Shifting         CNVShift        .... on
   Level shift para.    LevelShift      ....    0.2500
   Turn off err/grad.   ShiftErr        ....    0.0010
 Zerner damping         CNVZerner       .... off
 Static damping         CNVDamp         .... on
   Fraction old density DampFac         ....    0.7000
   Max. Damping (<1)    DampMax         ....    0.9800
   Min. Damping (>=0)   DampMin         ....    0.0000
   Turn off err/grad.   DampErr         ....    0.1000
 Fernandez-Rico         CNVRico         .... off

SCF Procedure:
 Maximum # iterations   MaxIter         ....   150
 SCF integral mode      SCFMode         .... Direct
   Integral package                     .... SHARK and LIBINT hybrid scheme
 Reset frequency        DirectResetFreq ....    20
 Integral Threshold     Thresh          ....  2.500e-11 Eh
 Primitive CutOff       TCut            ....  2.500e-12 Eh

Convergence Tolerance:
 Convergence Check Mode ConvCheckMode   .... Total+1el-Energy
 Convergence forced     ConvForced      .... 0
 Energy Change          TolE            ....  1.000e-08 Eh
 1-El. energy change                    ....  1.000e-05 Eh
 Orbital Gradient       TolG            ....  1.000e-05
 Orbital Rotation angle TolX            ....  1.000e-05
 DIIS Error             TolErr          ....  5.000e-07


Diagonalization of the overlap matrix:
Smallest eigenvalue                        ... 7.892e-05
Time for diagonalization                   ...    0.100 sec
Threshold for overlap eigenvalues          ... 1.000e-08
Number of eigenvalues below threshold      ... 0
Time for construction of square roots      ...    0.267 sec
Total time needed                          ...    0.371 sec

Time for model grid setup =    0.253 sec

------------------------------
INITIAL GUESS: MODEL POTENTIAL
------------------------------
Loading Hartree-Fock densities                     ... done
Calculating cut-offs                               ... done
Initializing the effective Hamiltonian             ... done
Setting up the integral package (SHARK)            ... done
Starting the Coulomb interaction                   ... done (   0.3 sec)
Reading the grid                                   ... done
Mapping shells                                     ... done
Starting the XC term evaluation                    ... done (   0.2 sec)
  promolecular density results
     # of electrons  =    111.978703633
     EX              =    -86.286247591
     EC              =     -3.736123320
     EX+EC           =    -90.022370911
Transforming the Hamiltonian                       ... done (   0.1 sec)
Diagonalizing the Hamiltonian                      ... done (   0.1 sec)
Back transforming the eigenvectors                 ... done (   0.0 sec)
Now organizing SCF variables                       ... done
                      ------------------
                      INITIAL GUESS DONE (   1.0 sec)
                      ------------------
-------------------
DFT GRID GENERATION
-------------------

General Integration Accuracy     IntAcc      ... 4.388
Radial Grid Type                 RadialGrid  ... OptM3 with GC (2021)
Angular Grid (max. ang.)         AngularGrid ... 4 (Lebedev-302)
Angular grid pruning method      GridPruning ... 4 (adaptive)
Weight generation scheme         WeightScheme... Becke
Basis function cutoff            BFCut       ... 1.0000e-11
Integration weight cutoff        WCut        ... 1.0000e-14
Angular grids for H and He will be reduced by one unit
Partially contracted basis set               ... off
Rotationally invariant grid construction     ... off

Total number of grid points                  ...   156344
Total number of batches                      ...     2464
Average number of points per batch           ...       63
Average number of grid points per atom       ...     4226
Time for grid setup =    1.311 sec

--------------
SCF ITERATIONS
--------------
ITER       Energy         Delta-E        Max-DP      RMS-DP      [F,P]     Damp
               ***  Starting incremental Fock matrix formation  ***
  0   -641.2181851431   0.000000000000 0.07587127  0.00099115  0.2523825 0.7000
  1   -641.4641862712  -0.246001128113 0.07047700  0.00082556  0.1168689 0.7000
                               ***Turning on DIIS***
  2   -641.5477424883  -0.083556217046 0.07900823  0.00128342  0.0274049 0.0000
  3   -641.6662729587  -0.118530470416 0.06653126  0.00064227  0.0840056 0.0000
  4   -641.7082897813  -0.042016822552 0.02240559  0.00025963  0.0167397 0.0000
  5   -641.7107807496  -0.002490968323 0.00978564  0.00011342  0.0040725 0.0000
                      *** Initiating the SOSCF procedure ***
                           *** Shutting down DIIS ***
                      *** Re-Reading the Fockian *** 
                      *** Removing any level shift *** 
ITER      Energy       Delta-E        Grad      Rot      Max-DP    RMS-DP
  6   -641.71099329  -0.0002125436  0.000428  0.000428  0.003931  0.000048
               *** Restarting incremental Fock matrix formation ***
  7   -641.71101798  -0.0000246889  0.000149  0.001024  0.003386  0.000042
  8   -641.71101694   0.0000010376  0.000245  0.000178  0.000552  0.000010
  9   -641.71102228  -0.0000053395  0.000050  0.000306  0.000769  0.000010
 10   -641.71102234  -0.0000000584  0.000041  0.000088  0.000081  0.000002
 11   -641.71102253  -0.0000001902  0.000018  0.000063  0.000268  0.000003
 12   -641.71102252   0.0000000135  0.000023  0.000042  0.000056  0.000001
 13   -641.71102257  -0.0000000469  0.000008  0.000044  0.000095  0.000001
 14   -641.71102256   0.0000000013  0.000007  0.000018  0.000036  0.000001
                  ***Gradient check signals convergence***
              ***Rediagonalizing the Fockian in SOSCF/NRSCF***

               *****************************************************
               *                     SUCCESS                       *
               *           SCF CONVERGED AFTER  15 CYCLES          *
               *****************************************************


----------------
TOTAL SCF ENERGY
----------------

Total Energy       :         -641.71102258 Eh          -17461.84467 eV

Components:
Nuclear Repulsion  :         1012.04694355 Eh           27539.19740 eV
Electronic Energy  :        -1653.75796612 Eh          -45001.04207 eV
One Electron Energy:        -2881.06191960 Eh          -78397.68049 eV
Two Electron Energy:         1227.30395347 Eh           33396.63843 eV

Virial components:
Potential Energy   :        -1281.42478107 Eh          -34869.34102 eV
Kinetic Energy     :          639.71375850 Eh           17407.49635 eV
Virial Ratio       :            2.00312212


DFT components:
N(Alpha)           :       56.000141519777 electrons
N(Beta)            :       56.000141519777 electrons
N(Total)           :      112.000283039554 electrons
E(X)               :      -88.370300815355 Eh       
E(C)               :       -3.714755307798 Eh       
E(XC)              :      -92.085056123152 Eh       
DFET-embed. en.    :        0.000000000000 Eh       

---------------
SCF CONVERGENCE
---------------

  Last Energy change         ...   -1.2804e-08  Tolerance :   1.0000e-08
  Last MAX-Density change    ...    2.0377e-05  Tolerance :   1.0000e-07
  Last RMS-Density change    ...    2.7763e-07  Tolerance :   5.0000e-09
  Last Orbital Gradient      ...    6.1334e-07  Tolerance :   1.0000e-05
  Last Orbital Rotation      ...    6.4881e-06  Tolerance :   1.0000e-05

             **** THE GBW FILE WAS UPDATED (PBE_D3_wb97.gbw) ****
             **** DENSITY PBE_D3_wb97.scfp WAS UPDATED ****
             **** ENERGY FILE WAS UPDATED (PBE_D3_wb97.en.tmp) ****
             **** THE GBW FILE WAS UPDATED (PBE_D3_wb97.gbw) ****
             **** DENSITY PBE_D3_wb97.scfp WAS UPDATED ****
----------------
ORBITAL ENERGIES
----------------

  NO   OCC          E(Eh)            E(eV) 
   0   2.0000     -24.302607      -661.3076 
   1   2.0000     -13.964574      -379.9954 
   2   2.0000     -13.955897      -379.7593 
   3   2.0000      -9.984122      -271.6818 
   4   2.0000      -9.906757      -269.5766 
   5   2.0000      -9.899879      -269.3894 
   6   2.0000      -9.898909      -269.3630 
   7   2.0000      -9.892650      -269.1927 
   8   2.0000      -9.886638      -269.0291 
   9   2.0000      -9.881676      -268.8941 
  10   2.0000      -9.875981      -268.7391 
  11   2.0000      -9.871931      -268.6289 
  12   2.0000      -9.866239      -268.4740 
  13   2.0000      -9.773578      -265.9526 
  14   2.0000      -1.161900       -31.6169 
  15   2.0000      -0.874149       -23.7868 
  16   2.0000      -0.791295       -21.5322 
  17   2.0000      -0.758914       -20.6511 
  18   2.0000      -0.730354       -19.8740 
  19   2.0000      -0.698724       -19.0132 
  20   2.0000      -0.659905       -17.9569 
  21   2.0000      -0.629691       -17.1348 
  22   2.0000      -0.619356       -16.8535 
  23   2.0000      -0.591118       -16.0851 
  24   2.0000      -0.561327       -15.2745 
  25   2.0000      -0.536203       -14.5908 
  26   2.0000      -0.517479       -14.0813 
  27   2.0000      -0.503513       -13.7013 
  28   2.0000      -0.497460       -13.5366 
  29   2.0000      -0.473911       -12.8958 
  30   2.0000      -0.466029       -12.6813 
  31   2.0000      -0.456343       -12.4177 
  32   2.0000      -0.442685       -12.0461 
  33   2.0000      -0.426360       -11.6018 
  34   2.0000      -0.413878       -11.2622 
  35   2.0000      -0.406679       -11.0663 
  36   2.0000      -0.393970       -10.7205 
  37   2.0000      -0.389157       -10.5895 
  38   2.0000      -0.381336       -10.3767 
  39   2.0000      -0.365615        -9.9489 
  40   2.0000      -0.354283        -9.6405 
  41   2.0000      -0.340376        -9.2621 
  42   2.0000      -0.335444        -9.1279 
  43   2.0000      -0.327852        -8.9213 
  44   2.0000      -0.324926        -8.8417 
  45   2.0000      -0.316792        -8.6203 
  46   2.0000      -0.309001        -8.4084 
  47   2.0000      -0.304023        -8.2729 
  48   2.0000      -0.297303        -8.0900 
  49   2.0000      -0.294461        -8.0127 
  50   2.0000      -0.289714        -7.8835 
  51   2.0000      -0.277586        -7.5535 
  52   2.0000      -0.275552        -7.4982 
  53   2.0000      -0.269122        -7.3232 
  54   2.0000      -0.190281        -5.1778 
  55   2.0000      -0.116372        -3.1666 
  56   0.0000      -0.003073        -0.0836 
  57   0.0000       0.010512         0.2860 
  58   0.0000       0.020355         0.5539 
  59   0.0000       0.022842         0.6216 
  60   0.0000       0.031659         0.8615 
  61   0.0000       0.038888         1.0582 
  62   0.0000       0.046233         1.2581 
  63   0.0000       0.054837         1.4922 
  64   0.0000       0.057698         1.5700 
  65   0.0000       0.062261         1.6942 
  66   0.0000       0.068000         1.8504 
  67   0.0000       0.078622         2.1394 
  68   0.0000       0.079962         2.1759 
  69   0.0000       0.084024         2.2864 
  70   0.0000       0.092731         2.5233 
  71   0.0000       0.095754         2.6056 
  72   0.0000       0.104581         2.8458 
  73   0.0000       0.105808         2.8792 
  74   0.0000       0.113275         3.0824 
  75   0.0000       0.121087         3.2949 
  76   0.0000       0.130204         3.5430 
  77   0.0000       0.133811         3.6412 
  78   0.0000       0.135438         3.6855 
  79   0.0000       0.143915         3.9161 
  80   0.0000       0.151250         4.1157 
  81   0.0000       0.154806         4.2125 
  82   0.0000       0.157713         4.2916 
  83   0.0000       0.163047         4.4367 
  84   0.0000       0.166347         4.5265 
  85   0.0000       0.169747         4.6191 
  86   0.0000       0.174730         4.7546 
  87   0.0000       0.188631         5.1329 
  88   0.0000       0.193205         5.2574 
  89   0.0000       0.196913         5.3583 
  90   0.0000       0.207304         5.6410 
  91   0.0000       0.209331         5.6962 
  92   0.0000       0.215685         5.8691 
  93   0.0000       0.221446         6.0258 
  94   0.0000       0.228209         6.2099 
  95   0.0000       0.240300         6.5389 
  96   0.0000       0.241673         6.5763 
  97   0.0000       0.252213         6.8631 
  98   0.0000       0.257273         7.0008 
  99   0.0000       0.261348         7.1116 
 100   0.0000       0.265420         7.2225 
 101   0.0000       0.277195         7.5429 
 102   0.0000       0.285017         7.7557 
 103   0.0000       0.289305         7.8724 
 104   0.0000       0.298974         8.1355 
 105   0.0000       0.303548         8.2600 
 106   0.0000       0.314656         8.5622 
 107   0.0000       0.320820         8.7300 
 108   0.0000       0.329604         8.9690 
 109   0.0000       0.335328         9.1247 
 110   0.0000       0.344046         9.3620 
 111   0.0000       0.346626         9.4322 
 112   0.0000       0.355528         9.6744 
 113   0.0000       0.359785         9.7903 
 114   0.0000       0.363926         9.9029 
 115   0.0000       0.369036        10.0420 
 116   0.0000       0.373286        10.1576 
 117   0.0000       0.376779        10.2527 
 118   0.0000       0.379764        10.3339 
 119   0.0000       0.389436        10.5971 
 120   0.0000       0.390783        10.6337 
 121   0.0000       0.393505        10.7078 
 122   0.0000       0.397691        10.8217 
 123   0.0000       0.402113        10.9421 
 124   0.0000       0.405441        11.0326 
 125   0.0000       0.406378        11.0581 
 126   0.0000       0.416240        11.3265 
 127   0.0000       0.419837        11.4243 
 128   0.0000       0.421665        11.4741 
 129   0.0000       0.421916        11.4809 
 130   0.0000       0.425199        11.5703 
 131   0.0000       0.430640        11.7183 
 132   0.0000       0.436250        11.8710 
 133   0.0000       0.438065        11.9204 
 134   0.0000       0.443064        12.0564 
 135   0.0000       0.445856        12.1324 
 136   0.0000       0.450180        12.2500 
 137   0.0000       0.459779        12.5112 
 138   0.0000       0.465885        12.6774 
 139   0.0000       0.471525        12.8308 
 140   0.0000       0.477171        12.9845 
 141   0.0000       0.487437        13.2638 
 142   0.0000       0.493807        13.4372 
 143   0.0000       0.499142        13.5823 
 144   0.0000       0.509844        13.8736 
 145   0.0000       0.521291        14.1850 
 146   0.0000       0.524286        14.2665 
 147   0.0000       0.531189        14.4544 
 148   0.0000       0.539631        14.6841 
 149   0.0000       0.555847        15.1254 
 150   0.0000       0.563126        15.3234 
 151   0.0000       0.565305        15.3827 
 152   0.0000       0.573446        15.6042 
 153   0.0000       0.580654        15.8004 
 154   0.0000       0.586756        15.9664 
 155   0.0000       0.590782        16.0760 
 156   0.0000       0.610658        16.6169 
 157   0.0000       0.617043        16.7906 
 158   0.0000       0.627720        17.0811 
 159   0.0000       0.631203        17.1759 
 160   0.0000       0.658169        17.9097 
 161   0.0000       0.661080        17.9889 
 162   0.0000       0.677121        18.4254 
 163   0.0000       0.683459        18.5979 
 164   0.0000       0.694453        18.8970 
 165   0.0000       0.698392        19.0042 
 166   0.0000       0.710900        19.3446 
 167   0.0000       0.720072        19.5942 
 168   0.0000       0.726791        19.7770 
 169   0.0000       0.732183        19.9237 
 170   0.0000       0.743183        20.2230 
 171   0.0000       0.747699        20.3459 
 172   0.0000       0.764835        20.8122 
 173   0.0000       0.785139        21.3647 
 174   0.0000       0.793891        21.6029 
 175   0.0000       0.799404        21.7529 
 176   0.0000       0.813098        22.1255 
 177   0.0000       0.821365        22.3505 
 178   0.0000       0.833568        22.6825 
 179   0.0000       0.837177        22.7807 
 180   0.0000       0.847439        23.0600 
 181   0.0000       0.855107        23.2687 
 182   0.0000       0.872159        23.7327 
 183   0.0000       0.878553        23.9067 
 184   0.0000       0.886584        24.1252 
 185   0.0000       0.893844        24.3227 
 186   0.0000       0.913125        24.8474 
 187   0.0000       0.924444        25.1554 
 188   0.0000       0.927705        25.2441 
 189   0.0000       0.934693        25.4343 
 190   0.0000       0.958757        26.0891 
 191   0.0000       0.964104        26.2346 
 192   0.0000       0.978104        26.6156 
 193   0.0000       0.989185        26.9171 
 194   0.0000       0.999235        27.1906 
 195   0.0000       1.005341        27.3567 
 196   0.0000       1.018259        27.7082 
 197   0.0000       1.018498        27.7147 
 198   0.0000       1.026705        27.9381 
 199   0.0000       1.040323        28.3086 
 200   0.0000       1.051173        28.6039 
 201   0.0000       1.065050        28.9815 
 202   0.0000       1.076811        29.3015 
 203   0.0000       1.087517        29.5928 
 204   0.0000       1.088723        29.6256 
 205   0.0000       1.103369        30.0242 
 206   0.0000       1.110406        30.2157 
 207   0.0000       1.123681        30.5769 
 208   0.0000       1.127083        30.6695 
 209   0.0000       1.131071        30.7780 
 210   0.0000       1.140354        31.0306 
 211   0.0000       1.152138        31.3513 
 212   0.0000       1.157674        31.5019 
 213   0.0000       1.176502        32.0143 
 214   0.0000       1.183450        32.2033 
 215   0.0000       1.202891        32.7323 
 216   0.0000       1.208213        32.8772 
 217   0.0000       1.215539        33.0765 
 218   0.0000       1.223476        33.2925 
 219   0.0000       1.248589        33.9758 
 220   0.0000       1.251539        34.0561 
 221   0.0000       1.252676        34.0870 
 222   0.0000       1.268581        34.5198 
 223   0.0000       1.275758        34.7151 
 224   0.0000       1.290032        35.1036 
 225   0.0000       1.296330        35.2749 
 226   0.0000       1.310457        35.6594 
 227   0.0000       1.334951        36.3259 
 228   0.0000       1.341687        36.5092 
 229   0.0000       1.344761        36.5928 
 230   0.0000       1.411422        38.4068 
 231   0.0000       1.435608        39.0649 
 232   0.0000       1.437761        39.1235 
 233   0.0000       1.452301        39.5191 
 234   0.0000       1.459559        39.7166 
 235   0.0000       1.469216        39.9794 
 236   0.0000       1.479964        40.2719 
 237   0.0000       1.481853        40.3233 
 238   0.0000       1.488317        40.4992 
 239   0.0000       1.501471        40.8571 
 240   0.0000       1.503926        40.9239 
 241   0.0000       1.511041        41.1175 
 242   0.0000       1.525996        41.5245 
 243   0.0000       1.531641        41.6781 
 244   0.0000       1.538748        41.8715 
 245   0.0000       1.544241        42.0209 
 246   0.0000       1.548824        42.1456 
 247   0.0000       1.558446        42.4075 
 248   0.0000       1.561431        42.4887 
 249   0.0000       1.566942        42.6386 
 250   0.0000       1.575494        42.8714 
 251   0.0000       1.582330        43.0574 
 252   0.0000       1.585011        43.1303 
 253   0.0000       1.598022        43.4844 
 254   0.0000       1.604569        43.6625 
 255   0.0000       1.617054        44.0023 
 256   0.0000       1.629352        44.3369 
 257   0.0000       1.633936        44.4617 
 258   0.0000       1.641270        44.6612 
 259   0.0000       1.657101        45.0920 
 260   0.0000       1.665668        45.3251 
 261   0.0000       1.672346        45.5068 
 262   0.0000       1.683784        45.8181 
 263   0.0000       1.686586        45.8943 
 264   0.0000       1.697426        46.1893 
 265   0.0000       1.710995        46.5585 
 266   0.0000       1.719318        46.7850 
 267   0.0000       1.723609        46.9018 
 268   0.0000       1.736338        47.2482 
 269   0.0000       1.758815        47.8598 
 270   0.0000       1.762427        47.9581 
 271   0.0000       1.765625        48.0451 
 272   0.0000       1.782505        48.5044 
 273   0.0000       1.793140        48.7938 
 274   0.0000       1.796315        48.8802 
 275   0.0000       1.809817        49.2476 
 276   0.0000       1.826007        49.6882 
 277   0.0000       1.835995        49.9600 
 278   0.0000       1.851586        50.3842 
 279   0.0000       1.861740        50.6605 
 280   0.0000       1.864899        50.7465 
 281   0.0000       1.869873        50.8818 
 282   0.0000       1.880875        51.1812 
 283   0.0000       1.900912        51.7265 
 284   0.0000       1.907259        51.8992 
 285   0.0000       1.911943        52.0266 
 286   0.0000       1.930537        52.5326 
 287   0.0000       1.938137        52.7394 
 288   0.0000       1.946713        52.9727 
 289   0.0000       1.954601        53.1874 
 290   0.0000       1.957562        53.2680 
 291   0.0000       1.979468        53.8641 
 292   0.0000       2.000700        54.4418 
 293   0.0000       2.003081        54.5066 
 294   0.0000       2.010581        54.7107 
 295   0.0000       2.029568        55.2274 
 296   0.0000       2.044094        55.6226 
 297   0.0000       2.052199        55.8432 
 298   0.0000       2.065359        56.2013 
 299   0.0000       2.075202        56.4691 
 300   0.0000       2.092283        56.9339 
 301   0.0000       2.116770        57.6002 
 302   0.0000       2.126298        57.8595 
 303   0.0000       2.138066        58.1797 
 304   0.0000       2.145788        58.3899 
 305   0.0000       2.162093        58.8335 
 306   0.0000       2.176714        59.2314 
 307   0.0000       2.189384        59.5762 
 308   0.0000       2.205329        60.0100 
 309   0.0000       2.225189        60.5505 
 310   0.0000       2.242846        61.0309 
 311   0.0000       2.244458        61.0748 
 312   0.0000       2.261172        61.5296 
 313   0.0000       2.287259        62.2395 
 314   0.0000       2.288163        62.2641 
 315   0.0000       2.302820        62.6629 
 316   0.0000       2.313065        62.9417 
 317   0.0000       2.320870        63.1541 
 318   0.0000       2.333312        63.4927 
 319   0.0000       2.340189        63.6798 
 320   0.0000       2.344104        63.7863 
 321   0.0000       2.350691        63.9656 
 322   0.0000       2.365725        64.3747 
 323   0.0000       2.374842        64.6227 
 324   0.0000       2.379255        64.7428 
 325   0.0000       2.392244        65.0963 
 326   0.0000       2.400884        65.3314 
 327   0.0000       2.406756        65.4911 
 328   0.0000       2.428994        66.0963 
 329   0.0000       2.436517        66.3010 
 330   0.0000       2.445663        66.5499 
 331   0.0000       2.450000        66.6679 
 332   0.0000       2.457622        66.8753 
 333   0.0000       2.462163        66.9988 
 334   0.0000       2.473806        67.3157 
 335   0.0000       2.485224        67.6264 
 336   0.0000       2.491214        67.7894 
 337   0.0000       2.501810        68.0777 
 338   0.0000       2.505375        68.1747 
 339   0.0000       2.515176        68.4414 
 340   0.0000       2.521669        68.6181 
 341   0.0000       2.534420        68.9651 
 342   0.0000       2.537884        69.0593 
 343   0.0000       2.538771        69.0835 
 344   0.0000       2.552345        69.4528 
 345   0.0000       2.556375        69.5625 
 346   0.0000       2.566574        69.8400 
 347   0.0000       2.571603        69.9769 
 348   0.0000       2.573880        70.0388 
 349   0.0000       2.582010        70.2601 
 350   0.0000       2.596897        70.6652 
 351   0.0000       2.607705        70.9593 
 352   0.0000       2.611438        71.0608 
 353   0.0000       2.617419        71.2236 
 354   0.0000       2.620452        71.3061 
 355   0.0000       2.632096        71.6230 
 356   0.0000       2.645601        71.9905 
 357   0.0000       2.648979        72.0824 
 358   0.0000       2.656679        72.2919 
 359   0.0000       2.660027        72.3830 
 360   0.0000       2.670932        72.6797 
 361   0.0000       2.672898        72.7332 
 362   0.0000       2.680478        72.9395 
 363   0.0000       2.692267        73.2603 
 364   0.0000       2.697082        73.3913 
 365   0.0000       2.707879        73.6851 
 366   0.0000       2.717241        73.9399 
 367   0.0000       2.727687        74.2241 
 368   0.0000       2.736990        74.4773 
 369   0.0000       2.741387        74.5969 
 370   0.0000       2.755731        74.9873 
 371   0.0000       2.771558        75.4179 
 372   0.0000       2.780938        75.6732 
 373   0.0000       2.789161        75.8969 
 374   0.0000       2.805584        76.3438 
 375   0.0000       2.819759        76.7295 
 376   0.0000       2.833654        77.1077 
 377   0.0000       2.843207        77.3676 
 378   0.0000       2.865219        77.9666 
 379   0.0000       2.885366        78.5148 
 380   0.0000       2.903457        79.0071 
 381   0.0000       2.917015        79.3760 
 382   0.0000       2.925230        79.5996 
 383   0.0000       2.940523        80.0157 
 384   0.0000       2.952038        80.3290 
 385   0.0000       2.974654        80.9445 
 386   0.0000       2.980786        81.1113 
 387   0.0000       2.999537        81.6215 
 388   0.0000       3.002060        81.6902 
 389   0.0000       3.009193        81.8843 
 390   0.0000       3.023026        82.2607 
 391   0.0000       3.031526        82.4920 
 392   0.0000       3.042516        82.7911 
 393   0.0000       3.052246        83.0558 
 394   0.0000       3.060222        83.2729 
 395   0.0000       3.069830        83.5343 
 396   0.0000       3.074957        83.6738 
 397   0.0000       3.085807        83.9691 
 398   0.0000       3.099067        84.3299 
 399   0.0000       3.104227        84.4703 
 400   0.0000       3.118599        84.8614 
 401   0.0000       3.119676        84.8907 
 402   0.0000       3.135617        85.3245 
 403   0.0000       3.144523        85.5668 
 404   0.0000       3.149982        85.7154 
 405   0.0000       3.162570        86.0579 
 406   0.0000       3.173116        86.3449 
 407   0.0000       3.181470        86.5722 
 408   0.0000       3.183470        86.6266 
 409   0.0000       3.191074        86.8335 
 410   0.0000       3.199647        87.0668 
 411   0.0000       3.217321        87.5478 
 412   0.0000       3.218230        87.5725 
 413   0.0000       3.228741        87.8585 
 414   0.0000       3.240981        88.1916 
 415   0.0000       3.242997        88.2464 
 416   0.0000       3.251735        88.4842 
 417   0.0000       3.264443        88.8300 
 418   0.0000       3.269748        88.9744 
 419   0.0000       3.276976        89.1710 
 420   0.0000       3.288388        89.4816 
 421   0.0000       3.295698        89.6805 
 422   0.0000       3.321536        90.3836 
 423   0.0000       3.322016        90.3966 
 424   0.0000       3.328752        90.5799 
 425   0.0000       3.331476        90.6541 
 426   0.0000       3.334664        90.7408 
 427   0.0000       3.344918        91.0198 
 428   0.0000       3.353684        91.2584 
 429   0.0000       3.358817        91.3981 
 430   0.0000       3.369491        91.6885 
 431   0.0000       3.380456        91.9869 
 432   0.0000       3.387002        92.1650 
 433   0.0000       3.401543        92.5607 
 434   0.0000       3.413241        92.8790 
 435   0.0000       3.426935        93.2516 
 436   0.0000       3.431712        93.3816 
 437   0.0000       3.445498        93.7568 
 438   0.0000       3.452537        93.9483 
 439   0.0000       3.457176        94.0745 
 440   0.0000       3.477668        94.6321 
 441   0.0000       3.481969        94.7492 
 442   0.0000       3.493419        95.0608 
 443   0.0000       3.498804        95.2073 
 444   0.0000       3.512983        95.5931 
 445   0.0000       3.525734        95.9401 
 446   0.0000       3.532842        96.1335 
 447   0.0000       3.551086        96.6300 
 448   0.0000       3.557757        96.8115 
 449   0.0000       3.575929        97.3060 
 450   0.0000       3.589604        97.6781 
 451   0.0000       3.618315        98.4593 
 452   0.0000       3.645129        99.1890 
 453   0.0000       3.653011        99.4035 
 454   0.0000       3.657207        99.5177 
 455   0.0000       3.662496        99.6616 
 456   0.0000       3.680588       100.1539 
 457   0.0000       3.695597       100.5623 
 458   0.0000       3.704533       100.8055 
 459   0.0000       3.735116       101.6377 
 460   0.0000       3.751981       102.0966 
 461   0.0000       3.757006       102.2333 
 462   0.0000       3.780258       102.8660 
 463   0.0000       3.784711       102.9872 
 464   0.0000       3.793576       103.2284 
 465   0.0000       3.812216       103.7357 
 466   0.0000       3.824128       104.0598 
 467   0.0000       3.834005       104.3286 
 468   0.0000       3.843321       104.5821 
 469   0.0000       3.861469       105.0759 
 470   0.0000       3.875978       105.4707 
 471   0.0000       3.897612       106.0594 
 472   0.0000       3.911493       106.4371 
 473   0.0000       3.916437       106.5717 
 474   0.0000       3.941695       107.2590 
 475   0.0000       3.951255       107.5191 
 476   0.0000       3.954174       107.5986 
 477   0.0000       3.971095       108.0590 
 478   0.0000       3.990817       108.5956 
 479   0.0000       3.995658       108.7274 
 480   0.0000       4.017976       109.3347 
 481   0.0000       4.026999       109.5802 
 482   0.0000       4.039263       109.9139 
 483   0.0000       4.062360       110.5424 
 484   0.0000       4.075417       110.8977 
 485   0.0000       4.104316       111.6841 
 486   0.0000       4.108407       111.7954 
 487   0.0000       4.128207       112.3342 
 488   0.0000       4.142708       112.7288 
 489   0.0000       4.158200       113.1504 
 490   0.0000       4.211493       114.6006 
 491   0.0000       4.228975       115.0763 
 492   0.0000       4.245994       115.5394 
 493   0.0000       4.270746       116.2129 
 494   0.0000       4.277356       116.3928 
 495   0.0000       4.329476       117.8110 
 496   0.0000       4.333954       117.9329 
 497   0.0000       4.343884       118.2031 
 498   0.0000       4.355929       118.5309 
 499   0.0000       4.386562       119.3644 
 500   0.0000       4.400719       119.7497 
 501   0.0000       4.421452       120.3138 
 502   0.0000       4.441717       120.8653 
 503   0.0000       4.479035       121.8807 
 504   0.0000       4.490378       122.1894 
 505   0.0000       4.498804       122.4187 
 506   0.0000       4.507961       122.6678 
 507   0.0000       4.545979       123.7024 
 508   0.0000       4.565701       124.2390 
 509   0.0000       4.595759       125.0570 
 510   0.0000       4.599851       125.1683 
 511   0.0000       4.629690       125.9803 
 512   0.0000       4.633550       126.0853 
 513   0.0000       4.642038       126.3163 
 514   0.0000       4.670800       127.0989 
 515   0.0000       4.678638       127.3122 
 516   0.0000       4.693791       127.7246 
 517   0.0000       4.728158       128.6597 
 518   0.0000       4.741400       129.0201 
 519   0.0000       4.743968       129.0899 
 520   0.0000       4.757428       129.4562 
 521   0.0000       4.782841       130.1477 
 522   0.0000       4.856226       132.1446 
 523   0.0000       4.863707       132.3482 
 524   0.0000       4.877952       132.7358 
 525   0.0000       4.905116       133.4750 
 526   0.0000       4.975131       135.3802 
 527   0.0000       4.987022       135.7038 
 528   0.0000       5.024407       136.7211 
 529   0.0000       5.033965       136.9811 
 530   0.0000       5.077536       138.1668 
 531   0.0000       5.104476       138.8999 
 532   0.0000       5.151605       140.1823 
 533   0.0000       5.169569       140.6711 
 534   0.0000       5.197659       141.4355 
 535   0.0000       5.202411       141.5648 
 536   0.0000       5.209514       141.7581 
 537   0.0000       5.292850       144.0258 
 538   0.0000       5.359546       145.8407 
 539   0.0000       5.379948       146.3958 
 540   0.0000       5.433835       147.8622 
 541   0.0000       5.603946       152.4911 
 542   0.0000       5.686958       154.7500 
 543   0.0000       5.837316       158.8414 
 544   0.0000       6.017578       163.7466 
 545   0.0000       6.154125       167.4622 
 546   0.0000       6.694252       182.1599 
 547   0.0000       6.722620       182.9318 
 548   0.0000       6.797637       184.9731 
 549   0.0000       6.885963       187.3766 
 550   0.0000       7.090405       192.9397 
 551   0.0000       7.102978       193.2819 
 552   0.0000       7.162619       194.9048 
 553   0.0000       8.202531       223.2022 
 554   0.0000       8.291713       225.6290 
 555   0.0000       8.666593       235.8300 
 556   0.0000       8.682776       236.2703 
 557   0.0000       8.927946       242.9418 
 558   0.0000      22.058655       600.2465 
 559   0.0000      22.180280       603.5561 
 560   0.0000      22.217749       604.5757 
 561   0.0000      22.246389       605.3550 
 562   0.0000      22.248785       605.4202 
 563   0.0000      22.257883       605.6678 
 564   0.0000      22.288095       606.4899 
 565   0.0000      22.315153       607.2262 
 566   0.0000      22.341497       607.9430 
 567   0.0000      22.426720       610.2621 
 568   0.0000      23.215503       631.7259 
 569   0.0000      31.792819       865.1266 
 570   0.0000      32.447518       882.9419 
 571   0.0000      56.827746      1546.3616 

                    ********************************
                    * MULLIKEN POPULATION ANALYSIS *
                    ********************************

-----------------------
MULLIKEN ATOMIC CHARGES
-----------------------
   0 C :   -0.197705
   1 C :   -0.050251
   2 N :   -0.240895
   3 H :    0.113183
   4 C :   -0.247119
   5 H :    0.072295
   6 H :    0.088386
   7 H :    0.089614
   8 C :   -0.237501
   9 H :    0.096563
  10 C :   -0.087372
  11 H :    0.092077
  12 C :   -0.255188
  13 H :    0.089820
  14 H :    0.085949
  15 C :   -0.197668
  16 H :    0.103645
  17 H :    0.098945
  18 H :    0.104060
  19 C :   -0.132844
  20 H :    0.103310
  21 H :    0.099689
  22 H :    0.109481
  23 C :   -0.054402
  24 H :    0.113060
  25 H :    0.125434
  26 F :   -0.214448
  27 H :    0.113573
  28 H :    0.117996
  29 C :    0.272002
  30 N :   -0.436739
  31 C :   -0.541597
  32 H :    0.071224
  33 H :    0.077926
  34 H :    0.209792
  35 H :    0.219730
  36 H :    0.225975
Sum of atomic charges:    0.0000000

--------------------------------
MULLIKEN REDUCED ORBITAL CHARGES
--------------------------------
  0 C s       :     3.227978  s :     3.227978
      pz      :     0.989645  p :     2.845970
      px      :     0.989906
      py      :     0.866419
      dz2     :     0.022877  d :     0.115955
      dxz     :     0.025782
      dyz     :     0.023567
      dx2y2   :     0.018737
      dxy     :     0.024991
      f0      :     0.000953  f :     0.007802
      f+1     :     0.000854
      f-1     :     0.001328
      f+2     :     0.000785
      f-2     :     0.001639
      f+3     :     0.000768
      f-3     :     0.001474
  1 C s       :     3.106166  s :     3.106166
      pz      :     0.911412  p :     2.848373
      px      :     0.968139
      py      :     0.968822
      dz2     :     0.028798  d :     0.090362
      dxz     :     0.016396
      dyz     :     0.017264
      dx2y2   :     0.006827
      dxy     :     0.021078
      f0      :     0.001075  f :     0.005350
      f+1     :     0.001062
      f-1     :     0.000487
      f+2     :     0.000884
      f-2     :     0.001201
      f+3     :     0.000401
      f-3     :     0.000239
  2 N s       :     3.422763  s :     3.422763
      pz      :     1.347388  p :     3.749399
      px      :     1.213654
      py      :     1.188357
      dz2     :     0.012853  d :     0.064621
      dxz     :     0.010549
      dyz     :     0.012927
      dx2y2   :     0.015081
      dxy     :     0.013211
      f0      :     0.000510  f :     0.004112
      f+1     :     0.000417
      f-1     :     0.000671
      f+2     :     0.000787
      f-2     :     0.000692
      f+3     :     0.000372
      f-3     :     0.000663
  3 H s       :     0.865217  s :     0.865217
      pz      :     0.005157  p :     0.021600
      px      :     0.008876
      py      :     0.007567
  4 C s       :     3.210050  s :     3.210050
      pz      :     1.011079  p :     2.942200
      px      :     0.967825
      py      :     0.963296
      dz2     :     0.017139  d :     0.089635
      dxz     :     0.020327
      dyz     :     0.017465
      dx2y2   :     0.016462
      dxy     :     0.018242
      f0      :     0.000578  f :     0.005234
      f+1     :     0.000828
      f-1     :     0.000547
      f+2     :     0.000871
      f-2     :     0.001247
      f+3     :     0.000666
      f-3     :     0.000496
  5 H s       :     0.906323  s :     0.906323
      pz      :     0.005108  p :     0.021382
      px      :     0.006705
      py      :     0.009569
  6 H s       :     0.889073  s :     0.889073
      pz      :     0.005888  p :     0.022541
      px      :     0.006563
      py      :     0.010090
  7 H s       :     0.889073  s :     0.889073
      pz      :     0.008135  p :     0.021314
      px      :     0.007450
      py      :     0.005728
  8 C s       :     3.211514  s :     3.211514
      pz      :     0.973948  p :     2.930053
      px      :     0.989766
      py      :     0.966340
      dz2     :     0.017500  d :     0.090745
      dxz     :     0.020824
      dyz     :     0.017745
      dx2y2   :     0.017221
      dxy     :     0.017455
      f0      :     0.000456  f :     0.005189
      f+1     :     0.000836
      f-1     :     0.000568
      f+2     :     0.000769
      f-2     :     0.001375
      f+3     :     0.000643
      f-3     :     0.000542
  9 H s       :     0.880954  s :     0.880954
      pz      :     0.008757  p :     0.022484
      px      :     0.007436
      py      :     0.006291
 10 C s       :     3.122036  s :     3.122036
      pz      :     0.969065  p :     2.866100
      px      :     0.965153
      py      :     0.931882
      dz2     :     0.016980  d :     0.093956
      dxz     :     0.017808
      dyz     :     0.019336
      dx2y2   :     0.016241
      dxy     :     0.023591
      f0      :     0.000543  f :     0.005281
      f+1     :     0.000853
      f-1     :     0.000539
      f+2     :     0.000723
      f-2     :     0.001264
      f+3     :     0.000587
      f-3     :     0.000771
 11 H s       :     0.886617  s :     0.886617
      pz      :     0.005488  p :     0.021306
      px      :     0.006456
      py      :     0.009362
 12 C s       :     3.217647  s :     3.217647
      pz      :     0.978295  p :     2.940375
      px      :     0.987215
      py      :     0.974865
      dz2     :     0.016414  d :     0.091962
      dxz     :     0.018917
      dyz     :     0.019132
      dx2y2   :     0.017398
      dxy     :     0.020101
      f0      :     0.000533  f :     0.005203
      f+1     :     0.001009
      f-1     :     0.000508
      f+2     :     0.000476
      f-2     :     0.001250
      f+3     :     0.000589
      f-3     :     0.000837
 13 H s       :     0.888939  s :     0.888939
      pz      :     0.009333  p :     0.021241
      px      :     0.006973
      py      :     0.004935
 14 H s       :     0.892780  s :     0.892780
      pz      :     0.005893  p :     0.021271
      px      :     0.007036
      py      :     0.008342
 15 C s       :     3.187975  s :     3.187975
      pz      :     0.975874  p :     2.915695
      px      :     0.988493
      py      :     0.951328
      dz2     :     0.018858  d :     0.088730
      dxz     :     0.015102
      dyz     :     0.020363
      dx2y2   :     0.012537
      dxy     :     0.021869
      f0      :     0.000527  f :     0.005269
      f+1     :     0.000648
      f-1     :     0.000763
      f+2     :     0.000801
      f-2     :     0.001351
      f+3     :     0.000419
      f-3     :     0.000759
 16 H s       :     0.873857  s :     0.873857
      pz      :     0.005379  p :     0.022498
      px      :     0.007781
      py      :     0.009338
 17 H s       :     0.879775  s :     0.879775
      pz      :     0.009230  p :     0.021280
      px      :     0.006213
      py      :     0.005837
 18 H s       :     0.873488  s :     0.873488
      pz      :     0.008685  p :     0.022452
      px      :     0.006278
      py      :     0.007490
 19 C s       :     3.146785  s :     3.146785
      pz      :     0.973354  p :     2.890829
      px      :     0.973199
      py      :     0.944276
      dz2     :     0.009704  d :     0.090024
      dxz     :     0.015423
      dyz     :     0.025251
      dx2y2   :     0.021075
      dxy     :     0.018570
      f0      :     0.000104  f :     0.005206
      f+1     :     0.000627
      f-1     :     0.000904
      f+2     :     0.001153
      f-2     :     0.001180
      f+3     :     0.000497
      f-3     :     0.000741
 20 H s       :     0.875396  s :     0.875396
      pz      :     0.005396  p :     0.021294
      px      :     0.008417
      py      :     0.007481
 21 H s       :     0.878984  s :     0.878984
      pz      :     0.008207  p :     0.021326
      px      :     0.005657
      py      :     0.007463
 22 H s       :     0.869055  s :     0.869055
      pz      :     0.006639  p :     0.021464
      px      :     0.009763
      py      :     0.005062
 23 C s       :     3.221352  s :     3.221352
      pz      :     0.794074  p :     2.688369
      px      :     0.985561
      py      :     0.908734
      dz2     :     0.034649  d :     0.132719
      dxz     :     0.026788
      dyz     :     0.024677
      dx2y2   :     0.024277
      dxy     :     0.022327
      f0      :     0.002181  f :     0.011962
      f+1     :     0.001331
      f-1     :     0.001933
      f+2     :     0.002703
      f-2     :     0.002248
      f+3     :     0.000790
      f-3     :     0.000777
 24 H s       :     0.866288  s :     0.866288
      pz      :     0.006754  p :     0.020652
      px      :     0.008754
      py      :     0.005144
 25 H s       :     0.854358  s :     0.854358
      pz      :     0.003450  p :     0.020208
      px      :     0.006181
      py      :     0.010577
 26 F s       :     3.921590  s :     3.921590
      pz      :     1.658346  p :     5.276920
      px      :     1.862309
      py      :     1.756265
      dz2     :     0.003619  d :     0.015338
      dxz     :     0.003173
      dyz     :     0.004375
      dx2y2   :     0.001699
      dxy     :     0.002472
      f0      :     0.000071  f :     0.000600
      f+1     :     0.000087
      f-1     :     0.000152
      f+2     :     0.000097
      f-2     :     0.000128
      f+3     :     0.000036
      f-3     :     0.000030
 27 H s       :     0.864813  s :     0.864813
      pz      :     0.005327  p :     0.021614
      px      :     0.008065
      py      :     0.008221
 28 H s       :     0.859994  s :     0.859994
      pz      :     0.009268  p :     0.022010
      px      :     0.006888
      py      :     0.005854
 29 C s       :     3.034736  s :     3.034736
      pz      :     0.823027  p :     2.475311
      px      :     0.867202
      py      :     0.785082
      dz2     :     0.042766  d :     0.199920
      dxz     :     0.038576
      dyz     :     0.021423
      dx2y2   :     0.048068
      dxy     :     0.049087
      f0      :     0.001997  f :     0.018031
      f+1     :     0.002536
      f-1     :     0.002638
      f+2     :     0.002336
      f-2     :     0.003009
      f+3     :     0.001827
      f-3     :     0.003689
 30 N s       :     3.422565  s :     3.422565
      pz      :     1.530768  p :     3.974916
      px      :     1.230761
      py      :     1.213387
      dz2     :     0.003707  d :     0.035978
      dxz     :     0.008450
      dyz     :     0.007403
      dx2y2   :     0.010579
      dxy     :     0.005839
      f0      :     0.000476  f :     0.003279
      f+1     :     0.000222
      f-1     :     0.000410
      f+2     :     0.000689
      f-2     :     0.000656
      f+3     :     0.000427
      f-3     :     0.000400
 31 C s       :     3.253427  s :     3.253427
      pz      :     1.064286  p :     3.248946
      px      :     1.024929
      py      :     1.159731
      dz2     :     0.007878  d :     0.034670
      dxz     :     0.007719
      dyz     :     0.003014
      dx2y2   :     0.006266
      dxy     :     0.009792
      f0      :     0.000253  f :     0.004555
      f+1     :     0.001045
      f-1     :     0.000561
      f+2     :     0.000546
      f-2     :     0.000713
      f+3     :     0.000721
      f-3     :     0.000716
 32 H s       :     0.901656  s :     0.901656
      pz      :     0.007002  p :     0.027120
      px      :     0.008862
      py      :     0.011257
 33 H s       :     0.896177  s :     0.896177
      pz      :     0.010885  p :     0.025897
      px      :     0.006827
      py      :     0.008185
 34 H s       :     0.737714  s :     0.737714
      pz      :     0.012448  p :     0.052494
      px      :     0.026646
      py      :     0.013400
 35 H s       :     0.729699  s :     0.729699
      pz      :     0.019534  p :     0.050571
      px      :     0.022921
      py      :     0.008115
 36 H s       :     0.736584  s :     0.736584
      pz      :     0.014056  p :     0.037441
      px      :     0.008703
      py      :     0.014682


                     *******************************
                     * LOEWDIN POPULATION ANALYSIS *
                     *******************************

----------------------
LOEWDIN ATOMIC CHARGES
----------------------
   0 C :   -0.288387
   1 C :   -0.269255
   2 N :    0.135978
   3 H :    0.145342
   4 C :   -0.274655
   5 H :    0.136685
   6 H :    0.131769
   7 H :    0.138208
   8 C :   -0.274212
   9 H :    0.131637
  10 C :   -0.269799
  11 H :    0.139132
  12 C :   -0.274391
  13 H :    0.139257
  14 H :    0.138186
  15 C :   -0.272067
  16 H :    0.133496
  17 H :    0.138263
  18 H :    0.139256
  19 C :   -0.275461
  20 H :    0.141082
  21 H :    0.148897
  22 H :    0.142961
  23 C :   -0.356374
  24 H :    0.127043
  25 H :    0.130500
  26 F :    0.160595
  27 H :    0.129290
  28 H :    0.139377
  29 C :   -0.483223
  30 N :   -0.009984
  31 C :   -0.378120
  32 H :    0.092566
  33 H :    0.092953
  34 H :    0.158978
  35 H :    0.143143
  36 H :    0.171339

-------------------------------
LOEWDIN REDUCED ORBITAL CHARGES
-------------------------------
  0 C s       :     2.778362  s :     2.778362
      pz      :     1.019278  p :     2.983084
      px      :     1.026698
      py      :     0.937108
      dz2     :     0.086142  d :     0.472781
      dxz     :     0.108946
      dyz     :     0.090506
      dx2y2   :     0.068954
      dxy     :     0.118233
      f0      :     0.007297  f :     0.054160
      f+1     :     0.005213
      f-1     :     0.009975
      f+2     :     0.006123
      f-2     :     0.007883
      f+3     :     0.007165
      f-3     :     0.010504
  1 C s       :     2.783015  s :     2.783015
      pz      :     1.010561  p :     3.057630
      px      :     1.020712
      py      :     1.026358
      dz2     :     0.106456  d :     0.390708
      dxz     :     0.088820
      dyz     :     0.068705
      dx2y2   :     0.033378
      dxy     :     0.093349
      f0      :     0.008298  f :     0.037902
      f+1     :     0.005903
      f-1     :     0.005083
      f+2     :     0.006961
      f-2     :     0.005476
      f+3     :     0.003568
      f-3     :     0.002614
  2 N s       :     2.899147  s :     2.899147
      pz      :     1.287086  p :     3.708244
      px      :     1.193997
      py      :     1.227161
      dz2     :     0.039407  d :     0.239758
      dxz     :     0.040999
      dyz     :     0.050885
      dx2y2   :     0.059879
      dxy     :     0.048589
      f0      :     0.002103  f :     0.016873
      f+1     :     0.001717
      f-1     :     0.002746
      f+2     :     0.003020
      f-2     :     0.002374
      f+3     :     0.001503
      f-3     :     0.003410
  3 H s       :     0.794116  s :     0.794116
      pz      :     0.014641  p :     0.060542
      px      :     0.023305
      py      :     0.022596
  4 C s       :     2.775429  s :     2.775429
      pz      :     1.015150  p :     3.059424
      px      :     1.018161
      py      :     1.026113
      dz2     :     0.067465  d :     0.401035
      dxz     :     0.101135
      dyz     :     0.079327
      dx2y2   :     0.061380
      dxy     :     0.091728
      f0      :     0.005859  f :     0.038767
      f+1     :     0.005603
      f-1     :     0.005440
      f+2     :     0.006221
      f-2     :     0.005206
      f+3     :     0.006065
      f-3     :     0.004374
  5 H s       :     0.803857  s :     0.803857
      pz      :     0.014554  p :     0.059459
      px      :     0.017265
      py      :     0.027640
  6 H s       :     0.806277  s :     0.806277
      pz      :     0.016791  p :     0.061955
      px      :     0.019086
      py      :     0.026078
  7 H s       :     0.802322  s :     0.802322
      pz      :     0.022781  p :     0.059470
      px      :     0.021208
      py      :     0.015481
  8 C s       :     2.775904  s :     2.775904
      pz      :     1.018426  p :     3.059179
      px      :     1.017299
      py      :     1.023454
      dz2     :     0.063657  d :     0.400744
      dxz     :     0.101103
      dyz     :     0.082012
      dx2y2   :     0.060557
      dxy     :     0.093414
      f0      :     0.005416  f :     0.038385
      f+1     :     0.005774
      f-1     :     0.005323
      f+2     :     0.005698
      f-2     :     0.005378
      f+3     :     0.006013
      f-3     :     0.004783
  9 H s       :     0.806849  s :     0.806849
      pz      :     0.024360  p :     0.061514
      px      :     0.020829
      py      :     0.016325
 10 C s       :     2.779002  s :     2.779002
      pz      :     1.018490  p :     3.054213
      px      :     1.014499
      py      :     1.021224
      dz2     :     0.066513  d :     0.398738
      dxz     :     0.094751
      dyz     :     0.077501
      dx2y2   :     0.058999
      dxy     :     0.100975
      f0      :     0.005148  f :     0.037845
      f+1     :     0.005198
      f-1     :     0.005209
      f+2     :     0.005640
      f-2     :     0.005284
      f+3     :     0.005135
      f-3     :     0.006231
 11 H s       :     0.801590  s :     0.801590
      pz      :     0.016080  p :     0.059278
      px      :     0.018667
      py      :     0.024531
 12 C s       :     2.776260  s :     2.776260
      pz      :     1.017111  p :     3.059429
      px      :     1.017735
      py      :     1.024583
      dz2     :     0.071859  d :     0.400463
      dxz     :     0.091088
      dyz     :     0.075481
      dx2y2   :     0.060604
      dxy     :     0.101432
      f0      :     0.004825  f :     0.038238
      f+1     :     0.005761
      f-1     :     0.005535
      f+2     :     0.004822
      f-2     :     0.006121
      f+3     :     0.005200
      f-3     :     0.005975
 13 H s       :     0.801606  s :     0.801606
      pz      :     0.024330  p :     0.059138
      px      :     0.020064
      py      :     0.014743
 14 H s       :     0.802575  s :     0.802575
      pz      :     0.015465  p :     0.059239
      px      :     0.020363
      py      :     0.023412
 15 C s       :     2.775510  s :     2.775510
      pz      :     1.020664  p :     3.061196
      px      :     1.022969
      py      :     1.017564
      dz2     :     0.069131  d :     0.396553
      dxz     :     0.081818
      dyz     :     0.097265
      dx2y2   :     0.051616
      dxy     :     0.096723
      f0      :     0.005763  f :     0.038807
      f+1     :     0.004676
      f-1     :     0.006589
      f+2     :     0.004827
      f-2     :     0.006470
      f+3     :     0.004164
      f-3     :     0.006317
 16 H s       :     0.805116  s :     0.805116
      pz      :     0.015672  p :     0.061388
      px      :     0.021528
      py      :     0.024188
 17 H s       :     0.802298  s :     0.802298
      pz      :     0.025529  p :     0.059440
      px      :     0.018273
      py      :     0.015638
 18 H s       :     0.799265  s :     0.799265
      pz      :     0.024050  p :     0.061479
      px      :     0.018259
      py      :     0.019170
 19 C s       :     2.788835  s :     2.788835
      pz      :     1.017374  p :     3.065421
      px      :     1.019910
      py      :     1.028137
      dz2     :     0.040309  d :     0.383817
      dxz     :     0.082255
      dyz     :     0.103362
      dx2y2   :     0.079824
      dxy     :     0.078067
      f0      :     0.004014  f :     0.037388
      f+1     :     0.004701
      f-1     :     0.006805
      f+2     :     0.005459
      f-2     :     0.004830
      f+3     :     0.005151
      f-3     :     0.006428
 20 H s       :     0.799457  s :     0.799457
      pz      :     0.015944  p :     0.059460
      px      :     0.023929
      py      :     0.019587
 21 H s       :     0.791765  s :     0.791765
      pz      :     0.023279  p :     0.059338
      px      :     0.014978
      py      :     0.021081
 22 H s       :     0.797000  s :     0.797000
      pz      :     0.019737  p :     0.060039
      px      :     0.025501
      py      :     0.014800
 23 C s       :     2.823759  s :     2.823759
      pz      :     0.879610  p :     2.888669
      px      :     1.053806
      py      :     0.955253
      dz2     :     0.114093  d :     0.558478
      dxz     :     0.132479
      dyz     :     0.130964
      dx2y2   :     0.083469
      dxy     :     0.097471
      f0      :     0.015959  f :     0.085468
      f+1     :     0.009736
      f-1     :     0.016991
      f+2     :     0.015676
      f-2     :     0.013158
      f+3     :     0.007137
      f-3     :     0.006811
 24 H s       :     0.814124  s :     0.814124
      pz      :     0.019877  p :     0.058833
      px      :     0.025409
      py      :     0.013547
 25 H s       :     0.811324  s :     0.811324
      pz      :     0.010632  p :     0.058176
      px      :     0.018658
      py      :     0.028886
 26 F s       :     3.602253  s :     3.602253
      pz      :     1.662609  p :     5.200891
      px      :     1.798766
      py      :     1.739516
      dz2     :     0.008442  d :     0.034752
      dxz     :     0.007344
      dyz     :     0.009132
      dx2y2   :     0.003959
      dxy     :     0.005875
      f0      :     0.000214  f :     0.001509
      f+1     :     0.000207
      f-1     :     0.000362
      f+2     :     0.000261
      f-2     :     0.000297
      f+3     :     0.000085
      f-3     :     0.000083
 27 H s       :     0.810551  s :     0.810551
      pz      :     0.015322  p :     0.060160
      px      :     0.023748
      py      :     0.021089
 28 H s       :     0.799789  s :     0.799789
      pz      :     0.025482  p :     0.060834
      px      :     0.020312
      py      :     0.015039
 29 C s       :     2.696248  s :     2.696248
      pz      :     0.891073  p :     2.811785
      px      :     1.025134
      py      :     0.895578
      dz2     :     0.172414  d :     0.858276
      dxz     :     0.160969
      dyz     :     0.133566
      dx2y2   :     0.184086
      dxy     :     0.207241
      f0      :     0.014296  f :     0.116914
      f+1     :     0.015713
      f-1     :     0.014532
      f+2     :     0.015646
      f-2     :     0.016029
      f+3     :     0.015164
      f-3     :     0.025534
 30 N s       :     2.970243  s :     2.970243
      pz      :     1.407530  p :     3.875077
      px      :     1.233198
      py      :     1.234349
      dz2     :     0.011201  d :     0.152311
      dxz     :     0.027404
      dyz     :     0.030533
      dx2y2   :     0.048181
      dxy     :     0.034992
      f0      :     0.001728  f :     0.012353
      f+1     :     0.000973
      f-1     :     0.001224
      f+2     :     0.002105
      f-2     :     0.002159
      f+3     :     0.001921
      f-3     :     0.002243
 31 C s       :     2.814794  s :     2.814794
      pz      :     1.105162  p :     3.322170
      px      :     1.106674
      py      :     1.110335
      dz2     :     0.047595  d :     0.212738
      dxz     :     0.043511
      dyz     :     0.019973
      dx2y2   :     0.042883
      dxy     :     0.058776
      f0      :     0.001993  f :     0.028418
      f+1     :     0.005334
      f-1     :     0.002899
      f+2     :     0.005165
      f-2     :     0.002486
      f+3     :     0.005648
      f-3     :     0.004894
 32 H s       :     0.825478  s :     0.825478
      pz      :     0.022201  p :     0.081956
      px      :     0.023781
      py      :     0.035974
 33 H s       :     0.826818  s :     0.826818
      pz      :     0.034475  p :     0.080229
      px      :     0.020020
      py      :     0.025734
 34 H s       :     0.695748  s :     0.695748
      pz      :     0.034602  p :     0.145275
      px      :     0.071906
      py      :     0.038767
 35 H s       :     0.710962  s :     0.710962
      pz      :     0.058508  p :     0.145896
      px      :     0.064560
      py      :     0.022828
 36 H s       :     0.720874  s :     0.720874
      pz      :     0.038881  p :     0.107787
      px      :     0.027637
      py      :     0.041269


                      *****************************
                      * MAYER POPULATION ANALYSIS *
                      *****************************

  NA   - Mulliken gross atomic population
  ZA   - Total nuclear charge
  QA   - Mulliken gross atomic charge
  VA   - Mayer's total valence
  BVA  - Mayer's bonded valence
  FA   - Mayer's free valence

  ATOM       NA         ZA         QA         VA         BVA        FA
  0 C      6.1977     6.0000    -0.1977     4.0263     4.0263     0.0000
  1 C      6.0503     6.0000    -0.0503     3.7621     3.7621    -0.0000
  2 N      7.2409     7.0000    -0.2409     3.1613     3.1613     0.0000
  3 H      0.8868     1.0000     0.1132     0.9916     0.9916    -0.0000
  4 C      6.2471     6.0000    -0.2471     4.0207     4.0207    -0.0000
  5 H      0.9277     1.0000     0.0723     0.9794     0.9794    -0.0000
  6 H      0.9116     1.0000     0.0884     0.9906     0.9906    -0.0000
  7 H      0.9104     1.0000     0.0896     0.9726     0.9726    -0.0000
  8 C      6.2375     6.0000    -0.2375     3.9780     3.9780    -0.0000
  9 H      0.9034     1.0000     0.0966     0.9780     0.9780    -0.0000
 10 C      6.0874     6.0000    -0.0874     3.9093     3.9093     0.0000
 11 H      0.9079     1.0000     0.0921     0.9747     0.9747    -0.0000
 12 C      6.2552     6.0000    -0.2552     3.9950     3.9950     0.0000
 13 H      0.9102     1.0000     0.0898     0.9736     0.9736     0.0000
 14 H      0.9141     1.0000     0.0859     0.9730     0.9730     0.0000
 15 C      6.1977     6.0000    -0.1977     3.9193     3.9193     0.0000
 16 H      0.8964     1.0000     0.1036     0.9720     0.9720     0.0000
 17 H      0.9011     1.0000     0.0989     0.9684     0.9684     0.0000
 18 H      0.8959     1.0000     0.1041     0.9878     0.9878    -0.0000
 19 C      6.1328     6.0000    -0.1328     3.9173     3.9173    -0.0000
 20 H      0.8967     1.0000     0.1033     0.9693     0.9693    -0.0000
 21 H      0.9003     1.0000     0.0997     0.9797     0.9797    -0.0000
 22 H      0.8905     1.0000     0.1095     0.9727     0.9727    -0.0000
 23 C      6.0544     6.0000    -0.0544     3.9433     3.9433     0.0000
 24 H      0.8869     1.0000     0.1131     0.9666     0.9666     0.0000
 25 H      0.8746     1.0000     0.1254     0.9557     0.9557    -0.0000
 26 F      9.2144     9.0000    -0.2144     1.0867     1.0867     0.0000
 27 H      0.8864     1.0000     0.1136     0.9715     0.9715     0.0000
 28 H      0.8820     1.0000     0.1180     0.9886     0.9886     0.0000
 29 C      5.7280     6.0000     0.2720     4.0827     4.0827    -0.0000
 30 N      7.4367     7.0000    -0.4367     3.0997     3.0997    -0.0000
 31 C      6.5416     6.0000    -0.5416     3.7948     3.7948     0.0000
 32 H      0.9288     1.0000     0.0712     1.0105     1.0105     0.0000
 33 H      0.9221     1.0000     0.0779     0.9882     0.9882     0.0000
 34 H      0.7902     1.0000     0.2098     0.9894     0.9894     0.0000
 35 H      0.7803     1.0000     0.2197     1.0016     1.0016    -0.0000
 36 H      0.7740     1.0000     0.2260     0.9587     0.9587    -0.0000

  Mayer bond orders larger than 0.100000
B(  0-C ,  1-C ) :   0.9781 B(  0-C ,  2-N ) :   0.9685 B(  0-C , 27-H ) :   0.9739 
B(  0-C , 28-H ) :   0.9443 B(  1-C ,  3-H ) :   0.9352 B(  1-C ,  4-C ) :   1.0013 
B(  1-C ,  5-H ) :   0.9437 B(  2-N , 29-C ) :   1.2239 B(  2-N , 34-H ) :   0.8763 
B(  4-C ,  6-H ) :   0.9635 B(  4-C ,  7-H ) :   0.9440 B(  4-C ,  8-C ) :   0.9962 
B(  8-C ,  9-H ) :   0.9714 B(  8-C , 10-C ) :   1.0086 B(  8-C , 11-H ) :   0.9426 
B( 10-C , 12-C ) :   1.0000 B( 10-C , 13-H ) :   0.9442 B( 10-C , 14-H ) :   0.9477 
B( 12-C , 15-C ) :   0.9921 B( 12-C , 16-H ) :   0.9721 B( 12-C , 17-H ) :   0.9406 
B( 15-C , 18-H ) :   0.9686 B( 15-C , 19-C ) :   0.9934 B( 15-C , 20-H ) :   0.9449 
B( 19-C , 21-H ) :   0.9319 B( 19-C , 22-H ) :   0.9459 B( 19-C , 23-C ) :   1.0295 
B( 23-C , 24-H ) :   0.9617 B( 23-C , 25-H ) :   0.9492 B( 23-C , 26-F ) :   0.9064 
B( 29-C , 30-N ) :   1.1843 B( 29-C , 31-C ) :   1.6054 B( 30-N , 35-H ) :   0.8887 
B( 30-N , 36-H ) :   0.9197 B( 31-C , 32-H ) :   0.9946 B( 31-C , 33-H ) :   0.9806 


-------
TIMINGS
-------

Total SCF time: 0 days 0 hours 0 min 23 sec 

Total time                  ....      23.983 sec
Sum of individual times     ....      22.586 sec  ( 94.2%)

Fock matrix formation       ....      17.221 sec  ( 71.8%)
  Split-RI-J                ....       7.670 sec  ( 44.5% of F)
  XC integration            ....       9.129 sec  ( 53.0% of F)
    Basis function eval.    ....       2.179 sec  ( 23.9% of XC)
    Density eval.           ....       2.628 sec  ( 28.8% of XC)
    XC-Functional eval.     ....       0.183 sec  (  2.0% of XC)
    XC-Potential eval.      ....       2.421 sec  ( 26.5% of XC)
Diagonalization             ....       1.256 sec  (  5.2%)
Density matrix formation    ....       0.082 sec  (  0.3%)
Population analysis         ....       0.119 sec  (  0.5%)
Initial guess               ....       0.710 sec  (  3.0%)
Orbital Transformation      ....       0.000 sec  (  0.0%)
Orbital Orthonormalization  ....       0.000 sec  (  0.0%)
DIIS solution               ....       0.657 sec  (  2.7%)
SOSCF solution              ....       0.977 sec  (  4.1%)
Grid generation             ....       1.564 sec  (  6.5%)

Maximum memory used throughout the entire SCF-calculation: 85.1 MB


-------------------------------------------------------------------------------
                          DFT DISPERSION CORRECTION                            
                                                                               
                              DFTD3 V3.1  Rev 1                                
                          USING Becke-Johnson damping                          
-------------------------------------------------------------------------------
The PBE functional is recognized
Active option DFTDOPT                   ...         4   

molecular C6(AA) [au] = 9837.514724 


            DFT-D V3
 parameters
 s6 scaling factor         :     1.0000 
 a1 scaling factor         :     0.4289 
 s8 scaling factor         :     0.7875 
 a2 scaling factor         :     4.4407 
 ad hoc parameters k1-k3   :    16.0000     1.3333    -4.0000 

 Edisp/kcal,au: -25.208137152217  -0.040171719321 
 E6   /kcal   : -18.393459290 
 E8   /kcal   :  -6.814677862 
 % E8         :  27.033643228 

-------------------------   ----------------
Dispersion correction           -0.040171719
-------------------------   ----------------


-------------------------   --------------------
FINAL SINGLE POINT ENERGY      -641.751194296834
-------------------------   --------------------


                            ***************************************
                            *     ORCA property calculations      *
                            ***************************************

                                    ---------------------
                                    Active property flags
                                    ---------------------
   (+) Dipole Moment


------------------------------------------------------------------------------
                       ORCA ELECTRIC PROPERTIES CALCULATION
------------------------------------------------------------------------------

Dipole Moment Calculation                       ... on
Quadrupole Moment Calculation                   ... off
Polarizability Calculation                      ... off
GBWName                                         ... PBE_D3_wb97.gbw
Electron density file                           ... PBE_D3_wb97.scfp
The origin for moment calculation is the CENTER OF MASS  = ( 3.934964,  0.126909 -4.754822)

-------------
DIPOLE MOMENT
-------------
                                X             Y             Z
Electronic contribution:     -3.24850      -4.32284       9.13792
Nuclear contribution   :      1.49917       3.80845     -10.61369
                        -----------------------------------------
Total Dipole Moment    :     -1.74933      -0.51439      -1.47577
                        -----------------------------------------
Magnitude (a.u.)       :      2.34577
Magnitude (Debye)      :      5.96247



--------------------
Rotational spectrum 
--------------------
 
Rotational constants in cm-1:     0.026547     0.016542     0.011018 
Rotational constants in MHz :   795.873737   495.912559   330.323979 

 Dipole components along the rotational axes: 
x,y,z [a.u.] :    -2.115803     1.006308     0.115528 
x,y,z [Debye]:    -5.377943     2.557831     0.293650 

 

Timings for individual modules:

Sum of individual times         ...       25.880 sec (=   0.431 min)
GTO integral calculation        ...        1.417 sec (=   0.024 min)   5.5 %
SCF iterations                  ...       24.463 sec (=   0.408 min)  94.5 %
                             ****ORCA TERMINATED NORMALLY****
TOTAL RUN TIME: 0 days 0 hours 0 minutes 26 seconds 623 msec
