
                                        *****************
                                        * O   R   C   A *
                                        *****************

                                            #,                                       
                                            ###                                      
                                            ####                                     
                                            #####                                    
                                            ######                                   
                                           ########,                                 
                                     ,,################,,,,,                         
                               ,,#################################,,                 
                          ,,##########################################,,             
                       ,#########################################, ''#####,          
                    ,#############################################,,   '####,        
                  ,##################################################,,,,####,       
                ,###########''''           ''''###############################       
              ,#####''   ,,,,##########,,,,          '''####'''          '####       
            ,##' ,,,,###########################,,,                        '##       
           ' ,,###''''                  '''############,,,                           
         ,,##''                                '''############,,,,        ,,,,,,###''
      ,#''                                            '''#######################'''  
     '                                                          ''''####''''         
             ,#######,   #######,   ,#######,      ##                                
            ,#'     '#,  ##    ##  ,#'     '#,    #''#        ######   ,####,        
            ##       ##  ##   ,#'  ##            #'  '#       #        #'  '#        
            ##       ##  #######   ##           ,######,      #####,   #    #        
            '#,     ,#'  ##    ##  '#,     ,#' ,#      #,         ##   #,  ,#        
             '#######'   ##     ##  '#######'  #'      '#     #####' # '####'        



                  #######################################################
                  #                        -***-                        #
                  #          Department of theory and spectroscopy      #
                  #    Directorship and core code : Frank Neese         #
                  #        Max Planck Institute fuer Kohlenforschung    #
                  #                Kaiser Wilhelm Platz 1               #
                  #                 D-45470 Muelheim/Ruhr               #
                  #                      Germany                        #
                  #                                                     #
                  #                  All rights reserved                #
                  #                        -***-                        #
                  #######################################################


                         Program Version 5.0.0 -  RELEASE  -
                                (SVN: $Rev: 19529$)
                ($Date: 2021-06-28 11:36:33 +0200 (Mo, 28 Jun 2021) $)


 With contributions from (in alphabetic order):
   Daniel Aravena         : Magnetic Suceptibility
   Michael Atanasov       : Ab Initio Ligand Field Theory (pilot matlab implementation)
   Alexander A. Auer      : GIAO ZORA, VPT2 properties, NMR spectrum
   Ute Becker             : Parallelization
   Giovanni Bistoni       : ED, misc. LED, open-shell LED, HFLD
   Martin Brehm           : Molecular dynamics
   Dmytro Bykov           : SCF Hessian
   Vijay G. Chilkuri      : MRCI spin determinant printing, contributions to CSF-ICE
   Dipayan Datta          : RHF DLPNO-CCSD density
   Achintya Kumar Dutta   : EOM-CC, STEOM-CC
   Dmitry Ganyushin       : Spin-Orbit,Spin-Spin,Magnetic field MRCI
   Miquel Garcia          : C-PCM Hessian, Gaussian charge scheme
   Yang Guo               : DLPNO-NEVPT2, F12-NEVPT2, CIM, IAO-localization
   Andreas Hansen         : Spin unrestricted coupled pair/coupled cluster methods
   Benjamin Helmich-Paris : MC-RPA, TRAH-SCF, COSX integrals
   Lee Huntington         : MR-EOM, pCC
   Robert Izsak           : Overlap fitted RIJCOSX, COSX-SCS-MP3, EOM
   Marcus Kettner         : VPT2
   Christian Kollmar      : KDIIS, OOCD, Brueckner-CCSD(T), CCSD density, CASPT2, CASPT2-K
   Simone Kossmann        : Meta GGA functionals, TD-DFT gradient, OOMP2, MP2 Hessian
   Martin Krupicka        : Initial AUTO-CI
   Lucas Lang             : DCDCAS
   Marvin Lechner         : AUTO-CI (C++ implementation), FIC-MRCC
   Dagmar Lenk            : GEPOL surface, SMD
   Dimitrios Liakos       : Extrapolation schemes; Compound Job, initial MDCI parallelization
   Dimitrios Manganas     : Further ROCIS development; embedding schemes
   Dimitrios Pantazis     : SARC Basis sets
   Anastasios Papadopoulos: AUTO-CI, single reference methods and gradients
   Taras Petrenko         : DFT Hessian,TD-DFT gradient, ASA, ECA, R-Raman, ABS, FL, XAS/XES, NRVS
   Peter Pinski           : DLPNO-MP2, DLPNO-MP2 Gradient
   Christoph Reimann      : Effective Core Potentials
   Marius Retegan         : Local ZFS, SOC
   Christoph Riplinger    : Optimizer, TS searches, QM/MM, DLPNO-CCSD(T), (RO)-DLPNO pert. Triples
   Tobias Risthaus        : Range-separated hybrids, TD-DFT gradient, RPA, STAB
   Michael Roemelt        : Original ROCIS implementation
   Masaaki Saitow         : Open-shell DLPNO-CCSD energy and density
   Barbara Sandhoefer     : DKH picture change effects
   Avijit Sen             : IP-ROCIS
   Kantharuban Sivalingam : CASSCF convergence, NEVPT2, FIC-MRCI
   Bernardo de Souza      : ESD, SOC TD-DFT
   Georgi Stoychev        : AutoAux, RI-MP2 NMR
   Willem Van den Heuvel  : Paramagnetic NMR
   Boris Wezisla          : Elementary symmetry handling
   Frank Wennmohs         : Technical directorship


 We gratefully acknowledge several colleagues who have allowed us to
 interface, adapt or use parts of their codes:
   Stefan Grimme, W. Hujo, H. Kruse, P. Pracht,  : VdW corrections, initial TS optimization,
                  C. Bannwarth, S. Ehlert          DFT functionals, gCP, sTDA/sTD-DF
   Ed Valeev, F. Pavosevic, A. Kumar             : LibInt (2-el integral package), F12 methods
   Garnet Chan, S. Sharma, J. Yang, R. Olivares  : DMRG
   Ulf Ekstrom                                   : XCFun DFT Library
   Mihaly Kallay                                 : mrcc  (arbitrary order and MRCC methods)
   Jiri Pittner, Ondrej Demel                    : Mk-CCSD
   Frank Weinhold                                : gennbo (NPA and NBO analysis)
   Christopher J. Cramer and Donald G. Truhlar   : smd solvation model
   Lars Goerigk                                  : TD-DFT with DH, B97 family of functionals
   V. Asgeirsson, H. Jonsson                     : NEB implementation
   FAccTs GmbH                                   : IRC, NEB, NEB-TS, DLPNO-Multilevel, CI-OPT
                                                   MM, QMMM, 2- and 3-layer-ONIOM, Crystal-QMMM,
                                                   LR-CPCM, SF, NACMEs, symmetry and pop. for TD-DFT,
                                                   nearIR, NL-DFT gradient (VV10), updates on ESD,
                                                   ML-optimized integration grids
   S Lehtola, MJT Oliveira, MAL Marques          : LibXC Library
   Liviu Ungur et al                             : ANISO software


 Your calculation uses the libint2 library for the computation of 2-el integrals
 For citations please refer to: http://libint.valeyev.net

 Your ORCA version has been built with support for libXC version: 5.1.0
 For citations please refer to: https://tddft.org/programs/libxc/

 This ORCA versions uses:
   CBLAS   interface :  Fast vector & matrix operations
   LAPACKE interface :  Fast linear algebra routines
   SCALAPACK package :  Parallel linear algebra routines
   Shared memory     :  Shared parallel matrices
   BLAS/LAPACK       :  OpenBLAS 0.3.15  USE64BITINT DYNAMIC_ARCH NO_AFFINITY Haswell SINGLE_THREADED
        Core in use  :  Haswell
   Copyright (c) 2011-2014, The OpenBLAS Project


Your calculation utilizes the atom-pairwise dispersion correction
with the Becke-Johnson damping scheme (D3BJ)
Cite in your paper:
S.Grimme, S.Ehrlich, L.Goerigk, J Comput Chem, (2011), 32, 1456–1465 
S.Grimme, J.Antony, S.Ehrlich and H.Krieg, J.Chem.Phys., 132, (2010), 154104 
   

================================================================================

----- Orbital basis set information -----
Your calculation utilizes the basis: def2-TZVPD
   F. Weigend and R. Ahlrichs, Phys. Chem. Chem. Phys. 7, 3297 (2005).
   D. Rappoport and F. Furche, J. Chem. Phys. 133 134105 (2010).

----- AuxJ basis set information -----
Your calculation utilizes the auxiliary basis: def2/J
   F. Weigend, Phys. Chem. Chem. Phys. 8, 1057 (2006).

================================================================================
                                        WARNINGS
                       Please study these warnings very carefully!
================================================================================



WARNING: Found flag for RIJCOSX approximation but no HF exchange needed!
  ===> : RIJCOSX  will be disabled and Split-RI-J is turned on

INFO   : the flag for use of the SHARK integral package has been found!

================================================================================
                                       INPUT FILE
================================================================================
NAME = TZVPD_TPSS_C1_wt_dlpno_pos.com
|  1> !TPSS D3BJ RIJCOSX def2-TZVPD def2/J TightSCF
|  2> *xyz 0 1 
|  3> C          3.90595        2.81985       -3.75292
|  4> C          5.29562        3.13151       -4.10533
|  5> C          3.80351        1.37472       -3.26081
|  6> C          5.70862        3.46889       -5.32419
|  7> N          6.90470        3.03895       -5.71708
|  8> N          4.98188        4.29357       -6.09746
|  9> H          5.00055        4.10131       -7.08776
| 10> H          4.08469        4.59690       -5.73965
| 11> H          5.96336        2.52611       -3.64239
| 12> H          7.04716        2.06686       -5.47360
| 13> H          7.19815        3.30799       -6.64523
| 14> H          3.28202        2.94919       -4.64026
| 15> H          3.56525        3.51457       -2.98252
| 16> H          4.14157        0.71142       -4.02935
| 17> H          2.78528        1.15146       -3.01944
| 18> H          4.41205        1.25066       -2.38949
| 19> *
| 20> 
| 21> %MaxCore 64000
| 22> 
| 23> %pal nprocs 4
| 24> end  
| 25> 
| 26> %scf
| 27>   MaxIter 150
| 28> end
| 29> 
| 30> 
| 31>                          ****END OF INPUT****
================================================================================

                       ****************************
                       * Single Point Calculation *
                       ****************************

---------------------------------
CARTESIAN COORDINATES (ANGSTROEM)
---------------------------------
  C      3.905950    2.819850   -3.752920
  C      5.295620    3.131510   -4.105330
  C      3.803510    1.374720   -3.260810
  C      5.708620    3.468890   -5.324190
  N      6.904700    3.038950   -5.717080
  N      4.981880    4.293570   -6.097460
  H      5.000550    4.101310   -7.087760
  H      4.084690    4.596900   -5.739650
  H      5.963360    2.526110   -3.642390
  H      7.047160    2.066860   -5.473600
  H      7.198150    3.307990   -6.645230
  H      3.282020    2.949190   -4.640260
  H      3.565250    3.514570   -2.982520
  H      4.141570    0.711420   -4.029350
  H      2.785280    1.151460   -3.019440
  H      4.412050    1.250660   -2.389490

----------------------------
CARTESIAN COORDINATES (A.U.)
----------------------------
  NO LB      ZA    FRAG     MASS         X           Y           Z
   0 C     6.0000    0    12.011    7.381176    5.328744   -7.091991
   1 C     6.0000    0    12.011   10.007272    5.917696   -7.757949
   2 C     6.0000    0    12.011    7.187592    2.597844   -6.162038
   3 C     6.0000    0    12.011   10.787728    6.555252  -10.061261
   4 N     7.0000    0    14.007   13.047992    5.742783  -10.803715
   5 N     7.0000    0    14.007    9.414389    8.113671  -11.522530
   6 H     1.0000    0     1.008    9.449670    7.750353  -13.393925
   7 H     1.0000    0     1.008    7.718945    8.686882  -10.846367
   8 H     1.0000    0     1.008   11.269117    4.773656   -6.883120
   9 H     1.0000    0     1.008   13.317202    3.905799  -10.343605
  10 H     1.0000    0     1.008   13.602532    6.251195  -12.557665
  11 H     1.0000    0     1.008    6.202119    5.573161   -8.768821
  12 H     1.0000    0     1.008    6.737346    6.641575   -5.636146
  13 H     1.0000    0     1.008    7.826433    1.344389   -7.614368
  14 H     1.0000    0     1.008    5.263416    2.175944   -5.705915
  15 H     1.0000    0     1.008    8.337566    2.363405   -4.515482

--------------------------------
INTERNAL COORDINATES (ANGSTROEM)
--------------------------------
 C      0   0   0     0.000000000000     0.00000000     0.00000000
 C      1   0   0     1.467142621765     0.00000000     0.00000000
 C      1   2   0     1.530054548897   109.95659769     0.00000000
 C      2   1   3     1.330418717547   124.60848250   117.82477566
 N      4   2   1     1.330345189077   117.88568818   216.04039772
 N      4   2   1     1.343947403324   120.98879030    40.55692244
 H      6   4   2     1.008963114539   115.96332282   215.01866637
 H      6   4   2     1.012416406969   117.36806711   356.14703280
 H      2   1   3     1.013261719005   112.80142721   337.30547611
 H      5   4   2     1.012193820422   111.46134138    44.03787504
 H      5   4   2     1.009929624578   116.52326395   180.07681422
 H      1   2   3     1.092423798761   108.70677307   240.06289078
 H      1   2   3     1.091892178010   109.26095115   121.65707238
 H      3   1   2     1.070002422988   109.47110748   300.80763943
 H      3   1   2     1.069998522149   109.47155819   180.80728714
 H      3   1   2     1.070004839989   109.47149351    60.80749791

---------------------------
INTERNAL COORDINATES (A.U.)
---------------------------
 C      0   0   0     0.000000000000     0.00000000     0.00000000
 C      1   0   0     2.772497754539     0.00000000     0.00000000
 C      1   2   0     2.891384067376   109.95659769     0.00000000
 C      2   1   3     2.514127019607   124.60848250   117.82477566
 N      4   2   1     2.513988070935   117.88568818   216.04039772
 N      4   2   1     2.539692530676   120.98879030    40.55692244
 H      6   4   2     1.906663965707   115.96332282   215.01866637
 H      6   4   2     1.913189742660   117.36806711   356.14703280
 H      2   1   3     1.914787150905   112.80142721   337.30547611
 H      5   4   2     1.912769115045   111.46134138    44.03787504
 H      5   4   2     1.908490404986   116.52326395   180.07681422
 H      1   2   3     2.064381801837   108.70677307   240.06289078
 H      1   2   3     2.063377184210   109.26095115   121.65707238
 H      3   1   2     2.022011542079   109.47110748   300.80763943
 H      3   1   2     2.022004170561   109.47155819   180.80728714
 H      3   1   2     2.022016109550   109.47149351    60.80749791

---------------------
BASIS SET INFORMATION
---------------------
There are 3 groups of distinct atoms

 Group   1 Type C   : 12s6p3d1f contracted to 6s3p3d1f pattern {621111/411/111/1}
 Group   2 Type N   : 12s6p3d1f contracted to 6s3p3d1f pattern {621111/411/111/1}
 Group   3 Type H   : 5s2p contracted to 3s2p pattern {311/11}

Atom   0C    basis set group =>   1
Atom   1C    basis set group =>   1
Atom   2C    basis set group =>   1
Atom   3C    basis set group =>   1
Atom   4N    basis set group =>   2
Atom   5N    basis set group =>   2
Atom   6H    basis set group =>   3
Atom   7H    basis set group =>   3
Atom   8H    basis set group =>   3
Atom   9H    basis set group =>   3
Atom  10H    basis set group =>   3
Atom  11H    basis set group =>   3
Atom  12H    basis set group =>   3
Atom  13H    basis set group =>   3
Atom  14H    basis set group =>   3
Atom  15H    basis set group =>   3
---------------------------------
AUXILIARY/J BASIS SET INFORMATION
---------------------------------
There are 3 groups of distinct atoms

 Group   1 Type C   : 12s5p4d2f1g contracted to 6s4p3d1f1g pattern {711111/2111/211/2/1}
 Group   2 Type N   : 12s5p4d2f1g contracted to 6s4p3d1f1g pattern {711111/2111/211/2/1}
 Group   3 Type H   : 5s2p1d contracted to 3s1p1d pattern {311/2/1}

Atom   0C    basis set group =>   1
Atom   1C    basis set group =>   1
Atom   2C    basis set group =>   1
Atom   3C    basis set group =>   1
Atom   4N    basis set group =>   2
Atom   5N    basis set group =>   2
Atom   6H    basis set group =>   3
Atom   7H    basis set group =>   3
Atom   8H    basis set group =>   3
Atom   9H    basis set group =>   3
Atom  10H    basis set group =>   3
Atom  11H    basis set group =>   3
Atom  12H    basis set group =>   3
Atom  13H    basis set group =>   3
Atom  14H    basis set group =>   3
Atom  15H    basis set group =>   3


           ************************************************************
           *        Program running with 4 parallel MPI-processes     *
           *              working on a common directory               *
           ************************************************************
------------------------------------------------------------------------------
                           ORCA GTO INTEGRAL CALCULATION
                           -- RI-GTO INTEGRALS CHOSEN --
------------------------------------------------------------------------------
------------------------------------------------------------------------------
                   ___                                                        
                  /   \      - P O W E R E D   B Y -                         
                 /     \                                                     
                 |  |  |   _    _      __       _____    __    __             
                 |  |  |  | |  | |    /  \     |  _  \  |  |  /  |          
                  \  \/   | |  | |   /    \    | | | |  |  | /  /          
                 / \  \   | |__| |  /  /\  \   | |_| |  |  |/  /          
                |  |  |   |  __  | /  /__\  \  |    /   |      \           
                |  |  |   | |  | | |   __   |  |    \   |  |\   \          
                \     /   | |  | | |  |  |  |  | |\  \  |  | \   \       
                 \___/    |_|  |_| |__|  |__|  |_| \__\ |__|  \__/        
                                                                              
                      - O R C A' S   B I G   F R I E N D -                    
                                      &                                       
                       - I N T E G R A L  F E E D E R -                       
                                                                              
 v1 FN, 2020, v2 2021                                                         
------------------------------------------------------------------------------


Reading SHARK input file TZVPD_TPSS_C1_wt_dlpno_pos.SHARKINP.tmp ... ok
----------------------
SHARK INTEGRAL PACKAGE
----------------------

Number of atoms                             ...     16
Number of basis functions                   ...    312
Number of shells                            ...    128
Maximum angular momentum                    ...      3
Integral batch strategy                     ... SHARK/LIBINT Hybrid
RI-J (if used) integral strategy            ... SPLIT-RIJ (Revised 2003 algorithm where possible)
Printlevel                                  ...      1
Contraction scheme used                     ... SEGMENTED contraction
Coulomb Range Separation                    ... NOT USED
Exchange Range Separation                   ... NOT USED
Finite Nucleus Model                        ... NOT USED
Auxiliary Coulomb fitting basis             ... AVAILABLE
   # of basis functions in Aux-J            ...    404
   # of shells in Aux-J                     ...    140
   Maximum angular momentum in Aux-J        ...      4
Auxiliary J/K fitting basis                 ... NOT available
Auxiliary Correlation fitting basis         ... NOT available
Auxiliary 'external' fitting basis          ... NOT available
Integral threshold                          ...     2.500000e-11
Primitive cut-off                           ...     2.500000e-12
Primitive pair pre-selection threshold      ...     2.500000e-12

Calculating pre-screening integrals         ... done (  0.1 sec) Dimension = 128
Organizing shell pair data                  ... done (  0.1 sec)
Shell pair information
Total number of shell pairs                 ...      8256
Shell pairs after pre-screening             ...      7884
Total number of primitive shell pairs       ...     20665
Primitive shell pairs kept                  ...     16188
          la=0 lb=0:   2053 shell pairs
          la=1 lb=0:   2400 shell pairs
          la=1 lb=1:    722 shell pairs
          la=2 lb=0:   1149 shell pairs
          la=2 lb=1:    670 shell pairs
          la=2 lb=2:    169 shell pairs
          la=3 lb=0:    371 shell pairs
          la=3 lb=1:    223 shell pairs
          la=3 lb=2:    106 shell pairs
          la=3 lb=3:     21 shell pairs

Calculating one electron integrals          ... done (  0.0 sec)
Calculating RI/J V-Matrix + Cholesky decomp.... done (  0.0 sec)
Calculating Nuclear repulsion               ... done (  0.0 sec) ENN=    246.237090685395 Eh

SHARK setup successfully completed in   0.3 seconds

Maximum memory used throughout the entire GTOINT-calculation: 14.0 MB


           ************************************************************
           *        Program running with 4 parallel MPI-processes     *
           *              working on a common directory               *
           ************************************************************
-------------------------------------------------------------------------------
                                 ORCA SCF
-------------------------------------------------------------------------------

------------
SCF SETTINGS
------------
Hamiltonian:
 Density Functional     Method          .... DFT(GTOs)
 Exchange Functional    Exchange        .... TPSS
 Correlation Functional Correlation     .... TPSS
 LDA part of GGA corr.  LDAOpt          .... PW91-LDA
 Gradients option       PostSCFGGA      .... off
   Density functional embedding theory  .... OFF
   NL short-range parameter             ....  5.000000
 RI-approximation to the Coulomb term is turned on
   Number of AuxJ basis functions       .... 404


General Settings:
 Integral files         IntName         .... TZVPD_TPSS_C1_wt_dlpno_pos
 Hartree-Fock type      HFTyp           .... RHF
 Total Charge           Charge          ....    0
 Multiplicity           Mult            ....    1
 Number of Electrons    NEL             ....   48
 Basis Dimension        Dim             ....  312
 Nuclear Repulsion      ENuc            ....    246.2370906854 Eh

Convergence Acceleration:
 DIIS                   CNVDIIS         .... on
   Start iteration      DIISMaxIt       ....    12
   Startup error        DIISStart       ....  0.200000
   # of expansion vecs  DIISMaxEq       ....     5
   Bias factor          DIISBfac        ....   1.050
   Max. coefficient     DIISMaxC        ....  10.000
 Trust-Rad. Augm. Hess. CNVTRAH         .... auto
   Auto Start mean grad. ratio tolernc. ....  1.125000
   Auto Start start iteration           ....    20
   Auto Start num. interpolation iter.  ....    10
   Max. Number of Micro iterations      ....    16
   Max. Number of Macro iterations      .... Maxiter - #DIIS iter
   Number of Davidson start vectors     ....     2
   Converg. threshold I  (grad. norm)   ....   1.000e-05
   Converg. threshold II (energy diff.) ....   1.000e-08
   Grad. Scal. Fac. for Micro threshold ....   0.100
   Minimum threshold for Micro iter.    ....   0.010
   NR start threshold (gradient norm)   ....   0.001
   Initial trust radius                 ....   0.400
   Minimum AH scaling param. (alpha)    ....   1.000
   Maximum AH scaling param. (alpha)    .... 1000.000
   Orbital update algorithm             .... Taylor
   White noise on init. David. guess    .... on
   Maximum white noise                  ....   0.010
   Quad. conv. algorithm                .... NR
 SOSCF                  CNVSOSCF        .... on
   Start iteration      SOSCFMaxIt      ....   150
   Startup grad/error   SOSCFStart      ....  0.003300
 Level Shifting         CNVShift        .... on
   Level shift para.    LevelShift      ....    0.2500
   Turn off err/grad.   ShiftErr        ....    0.0010
 Zerner damping         CNVZerner       .... off
 Static damping         CNVDamp         .... on
   Fraction old density DampFac         ....    0.7000
   Max. Damping (<1)    DampMax         ....    0.9800
   Min. Damping (>=0)   DampMin         ....    0.0000
   Turn off err/grad.   DampErr         ....    0.1000
 Fernandez-Rico         CNVRico         .... off

SCF Procedure:
 Maximum # iterations   MaxIter         ....   150
 SCF integral mode      SCFMode         .... Direct
   Integral package                     .... SHARK and LIBINT hybrid scheme
 Reset frequency        DirectResetFreq ....    20
 Integral Threshold     Thresh          ....  2.500e-11 Eh
 Primitive CutOff       TCut            ....  2.500e-12 Eh

Convergence Tolerance:
 Convergence Check Mode ConvCheckMode   .... Total+1el-Energy
 Convergence forced     ConvForced      .... 0
 Energy Change          TolE            ....  1.000e-08 Eh
 1-El. energy change                    ....  1.000e-05 Eh
 Orbital Gradient       TolG            ....  1.000e-05
 Orbital Rotation angle TolX            ....  1.000e-05
 DIIS Error             TolErr          ....  5.000e-07


Diagonalization of the overlap matrix:
Smallest eigenvalue                        ... 1.968e-06
Time for diagonalization                   ...    0.021 sec
Threshold for overlap eigenvalues          ... 1.000e-08
Number of eigenvalues below threshold      ... 0
Time for construction of square roots      ...    0.015 sec
Total time needed                          ...    0.037 sec

Time for model grid setup =    0.130 sec

------------------------------
INITIAL GUESS: MODEL POTENTIAL
------------------------------
Loading Hartree-Fock densities                     ... done
Calculating cut-offs                               ... done
Initializing the effective Hamiltonian             ... done
Setting up the integral package (SHARK)            ... done
Starting the Coulomb interaction                   ... done (   0.1 sec)
Reading the grid                                   ... done
Mapping shells                                     ... done
Starting the XC term evaluation                    ... done (   0.2 sec)
  promolecular density results
     # of electrons  =     47.995654670
     EX              =    -36.585688318
     EC              =     -1.578029803
     EX+EC           =    -38.163718121
Transforming the Hamiltonian                       ... done (   0.0 sec)
Diagonalizing the Hamiltonian                      ... done (   0.0 sec)
Back transforming the eigenvectors                 ... done (   0.0 sec)
Now organizing SCF variables                       ... done
                      ------------------
                      INITIAL GUESS DONE (   0.5 sec)
                      ------------------
-------------------
DFT GRID GENERATION
-------------------

General Integration Accuracy     IntAcc      ... 4.388
Radial Grid Type                 RadialGrid  ... OptM3 with GC (2021)
Angular Grid (max. ang.)         AngularGrid ... 4 (Lebedev-302)
Angular grid pruning method      GridPruning ... 4 (adaptive)
Weight generation scheme         WeightScheme... Becke
Basis function cutoff            BFCut       ... 1.0000e-11
Integration weight cutoff        WCut        ... 1.0000e-14
Angular grids for H and He will be reduced by one unit
Partially contracted basis set               ... off
Rotationally invariant grid construction     ... off

Total number of grid points                  ...    71866
Total number of batches                      ...     1131
Average number of points per batch           ...       63
Average number of grid points per atom       ...     4492
Time for grid setup =    0.493 sec

--------------
SCF ITERATIONS
--------------
ITER       Energy         Delta-E        Max-DP      RMS-DP      [F,P]     Damp
               ***  Starting incremental Fock matrix formation  ***
  0   -267.7373198374   0.000000000000 0.63871753  0.00408813  0.2291994 0.7000
  1   -267.8925924866  -0.155272649134 0.64762290  0.00409883  0.1026237 0.7000
                               ***Turning on DIIS***
  2   -267.9456005612  -0.053008074667 1.03569966  0.00793665  0.0280803 0.0000
  3   -268.0183173505  -0.072716789295 0.52890928  0.00307702  0.0635273 0.0000
  4   -268.0460779704  -0.027760619891 0.22256301  0.00155245  0.0158201 0.0000
  5   -268.0478453953  -0.001767424866 0.11383623  0.00090518  0.0035965 0.0000
                      *** Initiating the SOSCF procedure ***
                           *** Shutting down DIIS ***
                      *** Re-Reading the Fockian *** 
                      *** Removing any level shift *** 
ITER      Energy       Delta-E        Grad      Rot      Max-DP    RMS-DP
  6   -268.04800329  -0.0001578920  0.000599  0.000599  0.053527  0.000484
               *** Restarting incremental Fock matrix formation ***
  7   -268.04802971  -0.0000264264  0.000293  0.002172  0.055597  0.000540
  8   -268.04803412  -0.0000044079  0.000239  0.000750  0.017832  0.000171
  9   -268.04803324   0.0000008804  0.000254  0.000535  0.014646  0.000146
 10   -268.04803510  -0.0000018572  0.000027  0.000079  0.002041  0.000021
 11   -268.04803507   0.0000000309  0.000035  0.000081  0.002461  0.000022
 12   -268.04803519  -0.0000001232  0.000003  0.000010  0.002000  0.000014
                  ***Gradient check signals convergence***
              ***Rediagonalizing the Fockian in SOSCF/NRSCF***

               *****************************************************
               *                     SUCCESS                       *
               *           SCF CONVERGED AFTER  13 CYCLES          *
               *****************************************************


----------------
TOTAL SCF ENERGY
----------------

Total Energy       :         -268.04803520 Eh           -7293.95786 eV

Components:
Nuclear Repulsion  :          246.23709069 Eh            6700.45188 eV
Electronic Energy  :         -514.28512588 Eh          -13994.40974 eV
One Electron Energy:         -848.70806161 Eh          -23094.52046 eV
Two Electron Energy:          334.42293573 Eh            9100.11072 eV

Virial components:
Potential Energy   :         -535.58169998 Eh          -14573.91898 eV
Kinetic Energy     :          267.53366478 Eh            7279.96112 eV
Virial Ratio       :            2.00192264


DFT components:
N(Alpha)           :       23.999985975738 electrons
N(Beta)            :       23.999985975738 electrons
N(Total)           :       47.999971951476 electrons
E(X)               :      -37.971506944797 Eh       
E(C)               :       -1.586072007153 Eh       
E(XC)              :      -39.557578951949 Eh       
DFET-embed. en.    :        0.000000000000 Eh       

---------------
SCF CONVERGENCE
---------------

  Last Energy change         ...   -5.8883e-09  Tolerance :   1.0000e-08
  Last MAX-Density change    ...    1.5426e-03  Tolerance :   1.0000e-07
  Last RMS-Density change    ...    8.8458e-06  Tolerance :   5.0000e-09
  Last Orbital Gradient      ...    2.3928e-06  Tolerance :   1.0000e-05
  Last Orbital Rotation      ...    3.6553e-06  Tolerance :   1.0000e-05

             **** THE GBW FILE WAS UPDATED (TZVPD_TPSS_C1_wt_dlpno_pos.gbw) ****
             **** DENSITY TZVPD_TPSS_C1_wt_dlpno_pos.scfp WAS UPDATED ****
             **** ENERGY FILE WAS UPDATED (TZVPD_TPSS_C1_wt_dlpno_pos.en.tmp) ****
             **** THE GBW FILE WAS UPDATED (TZVPD_TPSS_C1_wt_dlpno_pos.gbw) ****
             **** DENSITY TZVPD_TPSS_C1_wt_dlpno_pos.scfp WAS UPDATED ****
----------------
ORBITAL ENERGIES
----------------

  NO   OCC          E(Eh)            E(eV) 
   0   2.0000     -14.106542      -383.8585 
   1   2.0000     -14.103918      -383.7871 
   2   2.0000     -10.020602      -272.6744 
   3   2.0000      -9.963665      -271.1251 
   4   2.0000      -9.956687      -270.9352 
   5   2.0000      -9.911075      -269.6941 
   6   2.0000      -0.901459       -24.5299 
   7   2.0000      -0.818903       -22.2835 
   8   2.0000      -0.720020       -19.5927 
   9   2.0000      -0.642402       -17.4807 
  10   2.0000      -0.565213       -15.3802 
  11   2.0000      -0.529377       -14.4051 
  12   2.0000      -0.490033       -13.3345 
  13   2.0000      -0.467144       -12.7116 
  14   2.0000      -0.434565       -11.8251 
  15   2.0000      -0.404927       -11.0186 
  16   2.0000      -0.380543       -10.3551 
  17   2.0000      -0.349498        -9.5103 
  18   2.0000      -0.330213        -8.9856 
  19   2.0000      -0.313229        -8.5234 
  20   2.0000      -0.291948        -7.9443 
  21   2.0000      -0.287391        -7.8203 
  22   2.0000      -0.235725        -6.4144 
  23   2.0000      -0.142461        -3.8766 
  24   0.0000      -0.015299        -0.4163 
  25   0.0000       0.012676         0.3449 
  26   0.0000       0.017380         0.4729 
  27   0.0000       0.024871         0.6768 
  28   0.0000       0.041199         1.1211 
  29   0.0000       0.049878         1.3572 
  30   0.0000       0.053584         1.4581 
  31   0.0000       0.068188         1.8555 
  32   0.0000       0.084812         2.3078 
  33   0.0000       0.092579         2.5192 
  34   0.0000       0.098636         2.6840 
  35   0.0000       0.099480         2.7070 
  36   0.0000       0.111562         3.0358 
  37   0.0000       0.122752         3.3403 
  38   0.0000       0.129653         3.5280 
  39   0.0000       0.135912         3.6984 
  40   0.0000       0.142604         3.8805 
  41   0.0000       0.151623         4.1259 
  42   0.0000       0.163684         4.4541 
  43   0.0000       0.166293         4.5251 
  44   0.0000       0.181730         4.9451 
  45   0.0000       0.184732         5.0268 
  46   0.0000       0.189755         5.1635 
  47   0.0000       0.200535         5.4568 
  48   0.0000       0.206175         5.6103 
  49   0.0000       0.219315         5.9679 
  50   0.0000       0.227498         6.1905 
  51   0.0000       0.230184         6.2636 
  52   0.0000       0.237238         6.4556 
  53   0.0000       0.243785         6.6337 
  54   0.0000       0.251500         6.8437 
  55   0.0000       0.258651         7.0383 
  56   0.0000       0.262584         7.1453 
  57   0.0000       0.267558         7.2806 
  58   0.0000       0.276265         7.5176 
  59   0.0000       0.281814         7.6685 
  60   0.0000       0.285891         7.7795 
  61   0.0000       0.286034         7.7834 
  62   0.0000       0.293950         7.9988 
  63   0.0000       0.301248         8.1974 
  64   0.0000       0.306374         8.3369 
  65   0.0000       0.310482         8.4487 
  66   0.0000       0.313717         8.5367 
  67   0.0000       0.324097         8.8191 
  68   0.0000       0.329872         8.9763 
  69   0.0000       0.334035         9.0895 
  70   0.0000       0.342017         9.3067 
  71   0.0000       0.350384         9.5344 
  72   0.0000       0.358285         9.7494 
  73   0.0000       0.368039        10.0148 
  74   0.0000       0.375479        10.2173 
  75   0.0000       0.378928        10.3112 
  76   0.0000       0.388556        10.5732 
  77   0.0000       0.392953        10.6928 
  78   0.0000       0.400582        10.9004 
  79   0.0000       0.408955        11.1282 
  80   0.0000       0.420126        11.4322 
  81   0.0000       0.423855        11.5337 
  82   0.0000       0.426786        11.6134 
  83   0.0000       0.434502        11.8234 
  84   0.0000       0.443685        12.0733 
  85   0.0000       0.451395        12.2831 
  86   0.0000       0.454074        12.3560 
  87   0.0000       0.460795        12.5389 
  88   0.0000       0.467570        12.7232 
  89   0.0000       0.472759        12.8644 
  90   0.0000       0.476428        12.9643 
  91   0.0000       0.480774        13.0825 
  92   0.0000       0.489003        13.3064 
  93   0.0000       0.505503        13.7554 
  94   0.0000       0.507775        13.8173 
  95   0.0000       0.513430        13.9711 
  96   0.0000       0.519012        14.1230 
  97   0.0000       0.524328        14.2677 
  98   0.0000       0.530943        14.4477 
  99   0.0000       0.540663        14.7122 
 100   0.0000       0.548019        14.9124 
 101   0.0000       0.568244        15.4627 
 102   0.0000       0.572435        15.5767 
 103   0.0000       0.584392        15.9021 
 104   0.0000       0.607972        16.5437 
 105   0.0000       0.618332        16.8257 
 106   0.0000       0.624892        17.0042 
 107   0.0000       0.648101        17.6357 
 108   0.0000       0.648421        17.6444 
 109   0.0000       0.660962        17.9857 
 110   0.0000       0.666905        18.1474 
 111   0.0000       0.670529        18.2460 
 112   0.0000       0.684949        18.6384 
 113   0.0000       0.692006        18.8304 
 114   0.0000       0.698405        19.0046 
 115   0.0000       0.699587        19.0367 
 116   0.0000       0.704357        19.1665 
 117   0.0000       0.716945        19.5091 
 118   0.0000       0.724305        19.7093 
 119   0.0000       0.732476        19.9317 
 120   0.0000       0.738448        20.0942 
 121   0.0000       0.752140        20.4668 
 122   0.0000       0.755920        20.5696 
 123   0.0000       0.771034        20.9809 
 124   0.0000       0.778748        21.1908 
 125   0.0000       0.787301        21.4236 
 126   0.0000       0.798202        21.7202 
 127   0.0000       0.809613        22.0307 
 128   0.0000       0.821572        22.3561 
 129   0.0000       0.828115        22.5342 
 130   0.0000       0.845916        23.0186 
 131   0.0000       0.860426        23.4134 
 132   0.0000       0.862321        23.4649 
 133   0.0000       0.882970        24.0268 
 134   0.0000       0.888675        24.1821 
 135   0.0000       0.930898        25.3310 
 136   0.0000       0.936794        25.4915 
 137   0.0000       0.944114        25.6906 
 138   0.0000       0.975100        26.5338 
 139   0.0000       0.985711        26.8226 
 140   0.0000       1.013899        27.5896 
 141   0.0000       1.037427        28.2298 
 142   0.0000       1.064003        28.9530 
 143   0.0000       1.082048        29.4440 
 144   0.0000       1.093388        29.7526 
 145   0.0000       1.160502        31.5789 
 146   0.0000       1.165772        31.7223 
 147   0.0000       1.191500        32.4224 
 148   0.0000       1.199904        32.6511 
 149   0.0000       1.228285        33.4233 
 150   0.0000       1.250073        34.0162 
 151   0.0000       1.268227        34.5102 
 152   0.0000       1.302845        35.4522 
 153   0.0000       1.318449        35.8768 
 154   0.0000       1.335288        36.3350 
 155   0.0000       1.343458        36.5574 
 156   0.0000       1.372569        37.3495 
 157   0.0000       1.390250        37.8306 
 158   0.0000       1.432774        38.9878 
 159   0.0000       1.458019        39.6747 
 160   0.0000       1.483550        40.3694 
 161   0.0000       1.511055        41.1179 
 162   0.0000       1.554622        42.3034 
 163   0.0000       1.584871        43.1265 
 164   0.0000       1.618861        44.0514 
 165   0.0000       1.654806        45.0295 
 166   0.0000       1.666081        45.3364 
 167   0.0000       1.699661        46.2501 
 168   0.0000       1.734333        47.1936 
 169   0.0000       1.769357        48.1466 
 170   0.0000       1.775939        48.3258 
 171   0.0000       1.783066        48.5197 
 172   0.0000       1.800454        48.9928 
 173   0.0000       1.819240        49.5040 
 174   0.0000       1.835343        49.9422 
 175   0.0000       1.843599        50.1669 
 176   0.0000       1.845087        50.2074 
 177   0.0000       1.857747        50.5519 
 178   0.0000       1.883257        51.2460 
 179   0.0000       1.893351        51.5207 
 180   0.0000       1.899441        51.6864 
 181   0.0000       1.915055        52.1113 
 182   0.0000       1.936490        52.6946 
 183   0.0000       1.958170        53.2845 
 184   0.0000       1.994702        54.2786 
 185   0.0000       2.004104        54.5345 
 186   0.0000       2.011853        54.7453 
 187   0.0000       2.061801        56.1045 
 188   0.0000       2.113339        57.5069 
 189   0.0000       2.137510        58.1646 
 190   0.0000       2.144391        58.3518 
 191   0.0000       2.163553        58.8733 
 192   0.0000       2.184780        59.4509 
 193   0.0000       2.218693        60.3737 
 194   0.0000       2.237007        60.8721 
 195   0.0000       2.284555        62.1659 
 196   0.0000       2.297444        62.5166 
 197   0.0000       2.324154        63.2434 
 198   0.0000       2.356572        64.1256 
 199   0.0000       2.393255        65.1238 
 200   0.0000       2.414153        65.6924 
 201   0.0000       2.432148        66.1821 
 202   0.0000       2.473434        67.3056 
 203   0.0000       2.482274        67.5461 
 204   0.0000       2.505102        68.1673 
 205   0.0000       2.519928        68.5707 
 206   0.0000       2.545193        69.2582 
 207   0.0000       2.565527        69.8115 
 208   0.0000       2.573708        70.0342 
 209   0.0000       2.582724        70.2795 
 210   0.0000       2.614203        71.1361 
 211   0.0000       2.646754        72.0218 
 212   0.0000       2.659147        72.3591 
 213   0.0000       2.705203        73.6123 
 214   0.0000       2.727277        74.2130 
 215   0.0000       2.774862        75.5078 
 216   0.0000       2.780116        75.6508 
 217   0.0000       2.805568        76.3434 
 218   0.0000       2.811385        76.5017 
 219   0.0000       2.846807        77.4656 
 220   0.0000       2.849810        77.5473 
 221   0.0000       2.857323        77.7517 
 222   0.0000       2.887311        78.5677 
 223   0.0000       2.927038        79.6488 
 224   0.0000       2.950834        80.2963 
 225   0.0000       2.970476        80.8308 
 226   0.0000       2.976168        80.9856 
 227   0.0000       2.995716        81.5176 
 228   0.0000       3.033642        82.5496 
 229   0.0000       3.065136        83.4066 
 230   0.0000       3.120517        84.9136 
 231   0.0000       3.127619        85.1068 
 232   0.0000       3.136209        85.3406 
 233   0.0000       3.155333        85.8610 
 234   0.0000       3.175267        86.4034 
 235   0.0000       3.188275        86.7574 
 236   0.0000       3.206370        87.2498 
 237   0.0000       3.243617        88.2633 
 238   0.0000       3.245321        88.3097 
 239   0.0000       3.262628        88.7806 
 240   0.0000       3.291146        89.5566 
 241   0.0000       3.310458        90.0821 
 242   0.0000       3.348944        91.1294 
 243   0.0000       3.379297        91.9553 
 244   0.0000       3.389807        92.2413 
 245   0.0000       3.420865        93.0865 
 246   0.0000       3.425924        93.2241 
 247   0.0000       3.466012        94.3150 
 248   0.0000       3.484539        94.8191 
 249   0.0000       3.509190        95.4899 
 250   0.0000       3.533834        96.1605 
 251   0.0000       3.569850        97.1406 
 252   0.0000       3.583781        97.5197 
 253   0.0000       3.606301        98.1324 
 254   0.0000       3.624496        98.6276 
 255   0.0000       3.667857        99.8075 
 256   0.0000       3.718269       101.1792 
 257   0.0000       3.769176       102.5645 
 258   0.0000       3.816630       103.8558 
 259   0.0000       3.866989       105.2261 
 260   0.0000       3.892783       105.9280 
 261   0.0000       3.918942       106.6398 
 262   0.0000       3.951335       107.5213 
 263   0.0000       3.976157       108.1967 
 264   0.0000       4.028737       109.6275 
 265   0.0000       4.044267       110.0501 
 266   0.0000       4.079143       110.9991 
 267   0.0000       4.167958       113.4159 
 268   0.0000       4.219468       114.8176 
 269   0.0000       4.254765       115.7780 
 270   0.0000       4.281111       116.4950 
 271   0.0000       4.369937       118.9120 
 272   0.0000       4.407811       119.9426 
 273   0.0000       4.476329       121.8071 
 274   0.0000       4.514082       122.8344 
 275   0.0000       4.561079       124.1133 
 276   0.0000       4.587797       124.8403 
 277   0.0000       4.651459       126.5726 
 278   0.0000       4.681835       127.3992 
 279   0.0000       4.706942       128.0824 
 280   0.0000       4.761826       129.5759 
 281   0.0000       4.775084       129.9366 
 282   0.0000       4.817730       131.0971 
 283   0.0000       4.828192       131.3818 
 284   0.0000       4.850324       131.9840 
 285   0.0000       4.888458       133.0217 
 286   0.0000       4.961302       135.0039 
 287   0.0000       4.961610       135.0123 
 288   0.0000       4.986818       135.6982 
 289   0.0000       5.040525       137.1597 
 290   0.0000       5.055878       137.5774 
 291   0.0000       5.065190       137.8308 
 292   0.0000       5.132752       139.6693 
 293   0.0000       5.214272       141.8876 
 294   0.0000       5.259252       143.1115 
 295   0.0000       5.276307       143.5756 
 296   0.0000       5.339360       145.2914 
 297   0.0000       5.402901       147.0204 
 298   0.0000       5.447641       148.2378 
 299   0.0000       5.494716       149.5188 
 300   0.0000       5.579566       151.8277 
 301   0.0000       5.637065       153.3923 
 302   0.0000       5.715881       155.5370 
 303   0.0000       6.075383       165.3196 
 304   0.0000       6.086821       165.6308 
 305   0.0000       6.215450       169.1310 
 306   0.0000      22.572408       614.2264 
 307   0.0000      22.684563       617.2784 
 308   0.0000      22.920883       623.7089 
 309   0.0000      23.480706       638.9425 
 310   0.0000      32.217530       876.6836 
 311   0.0000      32.496834       884.2838 

                    ********************************
                    * MULLIKEN POPULATION ANALYSIS *
                    ********************************

-----------------------
MULLIKEN ATOMIC CHARGES
-----------------------
   0 C :    0.214293
   1 C :   -0.776953
   2 C :   -1.188603
   3 C :    0.405105
   4 N :   -0.486637
   5 N :   -0.515838
   6 H :    0.154843
   7 H :    0.210417
   8 H :    0.418623
   9 H :    0.192242
  10 H :    0.201006
  11 H :    0.220648
  12 H :    0.106308
  13 H :    0.328313
  14 H :    0.213464
  15 H :    0.302769
Sum of atomic charges:    0.0000000

--------------------------------
MULLIKEN REDUCED ORBITAL CHARGES
--------------------------------
  0 C s       :     2.959651  s :     2.959651
      pz      :     1.048204  p :     2.862687
      px      :     0.940408
      py      :     0.874074
      dz2     :    -0.009512  d :    -0.043592
      dxz     :    -0.023954
      dyz     :     0.006818
      dx2y2   :     0.002907
      dxy     :    -0.019852
      f0      :     0.000365  f :     0.006961
      f+1     :     0.001100
      f-1     :     0.000867
      f+2     :     0.001458
      f-2     :     0.000510
      f+3     :     0.001317
      f-3     :     0.001345
  1 C s       :     3.269073  s :     3.269073
      pz      :     1.026595  p :     3.313201
      px      :     0.975940
      py      :     1.310666
      dz2     :     0.017312  d :     0.186793
      dxz     :     0.057346
      dyz     :     0.029869
      dx2y2   :     0.042772
      dxy     :     0.039495
      f0      :     0.001731  f :     0.007885
      f+1     :     0.001175
      f-1     :     0.000849
      f+2     :     0.001246
      f-2     :     0.001140
      f+3     :     0.000850
      f-3     :     0.000894
  2 C s       :     3.589067  s :     3.589067
      pz      :     1.224046  p :     3.507043
      px      :     1.258255
      py      :     1.024742
      dz2     :     0.004370  d :     0.088045
      dxz     :     0.027110
      dyz     :     0.030152
      dx2y2   :     0.015905
      dxy     :     0.010508
      f0      :     0.000185  f :     0.004448
      f+1     :     0.000620
      f-1     :     0.000796
      f+2     :     0.000979
      f-2     :     0.000383
      f+3     :     0.000950
      f-3     :     0.000534
  3 C s       :     3.301367  s :     3.301367
      pz      :     0.712810  p :     2.084806
      px      :     0.575096
      py      :     0.796899
      dz2     :     0.138954  d :     0.189931
      dxz     :     0.065817
      dyz     :    -0.014550
      dx2y2   :    -0.006295
      dxy     :     0.006006
      f0      :     0.002376  f :     0.018791
      f+1     :     0.003398
      f-1     :     0.002233
      f+2     :     0.003385
      f-2     :     0.002278
      f+3     :     0.002670
      f-3     :     0.002450
  4 N s       :     3.617701  s :     3.617701
      pz      :     1.292690  p :     3.821823
      px      :     1.298080
      py      :     1.231052
      dz2     :     0.004185  d :     0.043828
      dxz     :     0.006062
      dyz     :     0.008569
      dx2y2   :     0.011451
      dxy     :     0.013560
      f0      :     0.000377  f :     0.003285
      f+1     :     0.000595
      f-1     :     0.000380
      f+2     :     0.000478
      f-2     :     0.000344
      f+3     :     0.000435
      f-3     :     0.000678
  5 N s       :     3.592055  s :     3.592055
      pz      :     1.097231  p :     3.875054
      px      :     1.257684
      py      :     1.520139
      dz2     :     0.016239  d :     0.045392
      dxz     :     0.005874
      dyz     :     0.008632
      dx2y2   :     0.009328
      dxy     :     0.005320
      f0      :     0.000700  f :     0.003337
      f+1     :     0.000221
      f-1     :     0.000442
      f+2     :     0.000377
      f-2     :     0.000440
      f+3     :     0.000516
      f-3     :     0.000642
  6 H s       :     0.779200  s :     0.779200
      pz      :     0.023473  p :     0.065957
      px      :     0.018852
      py      :     0.023632
  7 H s       :     0.753376  s :     0.753376
      pz      :     0.000531  p :     0.036207
      px      :     0.014246
      py      :     0.021429
  8 H s       :     0.522794  s :     0.522794
      pz      :    -0.001140  p :     0.058584
      px      :     0.005719
      py      :     0.054005
  9 H s       :     0.748095  s :     0.748095
      pz      :     0.023533  p :     0.059663
      px      :     0.009553
      py      :     0.026577
 10 H s       :     0.761289  s :     0.761289
      pz      :     0.008621  p :     0.037706
      px      :     0.015155
      py      :     0.013930
 11 H s       :     0.721574  s :     0.721574
      pz      :     0.041833  p :     0.057778
      px      :     0.017082
      py      :    -0.001137
 12 H s       :     0.822485  s :     0.822485
      pz      :     0.022193  p :     0.071207
      px      :     0.028647
      py      :     0.020367
 13 H s       :     0.608480  s :     0.608480
      pz      :     0.028947  p :     0.063207
      px      :     0.020596
      py      :     0.013664
 14 H s       :     0.710753  s :     0.710753
      pz      :     0.015016  p :     0.075783
      px      :     0.038122
      py      :     0.022646
 15 H s       :     0.638541  s :     0.638541
      pz      :     0.026436  p :     0.058690
      px      :     0.024511
      py      :     0.007744


                     *******************************
                     * LOEWDIN POPULATION ANALYSIS *
                     *******************************

----------------------
LOEWDIN ATOMIC CHARGES
----------------------
   0 C :   -0.277764
   1 C :   -0.134536
   2 C :   -0.103109
   3 C :   -0.557416
   4 N :    0.117435
   5 N :    0.128375
   6 H :    0.092781
   7 H :    0.099678
   8 H :    0.061858
   9 H :    0.107817
  10 H :    0.094102
  11 H :    0.091546
  12 H :    0.095414
  13 H :    0.064400
  14 H :    0.056067
  15 H :    0.063352

-------------------------------
LOEWDIN REDUCED ORBITAL CHARGES
-------------------------------
  0 C s       :     2.675779  s :     2.675779
      pz      :     0.907589  p :     2.755658
      px      :     0.935067
      py      :     0.913002
      dz2     :     0.092301  d :     0.800423
      dxz     :     0.169683
      dyz     :     0.163191
      dx2y2   :     0.180635
      dxy     :     0.194613
      f0      :     0.003269  f :     0.045904
      f+1     :     0.007382
      f-1     :     0.005818
      f+2     :     0.006696
      f-2     :     0.004238
      f+3     :     0.009230
      f-3     :     0.009272
  1 C s       :     2.657327  s :     2.657327
      pz      :     0.931944  p :     2.715259
      px      :     0.899954
      py      :     0.883360
      dz2     :     0.136042  d :     0.712963
      dxz     :     0.216448
      dyz     :     0.098214
      dx2y2   :     0.117658
      dxy     :     0.144599
      f0      :     0.011038  f :     0.048988
      f+1     :     0.009397
      f-1     :     0.005773
      f+2     :     0.006051
      f-2     :     0.006225
      f+3     :     0.005238
      f-3     :     0.005266
  2 C s       :     2.733593  s :     2.733593
      pz      :     0.963246  p :     2.868629
      px      :     0.961374
      py      :     0.944009
      dz2     :     0.061814  d :     0.472530
      dxz     :     0.066919
      dyz     :     0.128451
      dx2y2   :     0.115028
      dxy     :     0.100318
      f0      :     0.002078  f :     0.028357
      f+1     :     0.003582
      f-1     :     0.005399
      f+2     :     0.004083
      f-2     :     0.003163
      f+3     :     0.006327
      f-3     :     0.003724
  3 C s       :     2.596535  s :     2.596535
      pz      :     0.919639  p :     2.542972
      px      :     0.835021
      py      :     0.788311
      dz2     :     0.287642  d :     1.301466
      dxz     :     0.286510
      dyz     :     0.255118
      dx2y2   :     0.274353
      dxy     :     0.197843
      f0      :     0.014595  f :     0.116444
      f+1     :     0.022638
      f-1     :     0.015108
      f+2     :     0.019154
      f-2     :     0.012267
      f+3     :     0.017563
      f-3     :     0.015118
  4 N s       :     2.926409  s :     2.926409
      pz      :     1.160488  p :     3.547697
      px      :     1.245358
      py      :     1.141851
      dz2     :     0.082777  d :     0.395192
      dxz     :     0.090705
      dyz     :     0.035824
      dx2y2   :     0.100033
      dxy     :     0.085853
      f0      :     0.001383  f :     0.013267
      f+1     :     0.001969
      f-1     :     0.001295
      f+2     :     0.002201
      f-2     :     0.001228
      f+3     :     0.002109
      f-3     :     0.003082
  5 N s       :     2.925026  s :     2.925026
      pz      :     1.080237  p :     3.548397
      px      :     1.153113
      py      :     1.315047
      dz2     :     0.129502  d :     0.385911
      dxz     :     0.059446
      dyz     :     0.063956
      dx2y2   :     0.069701
      dxy     :     0.063307
      f0      :     0.001749  f :     0.012291
      f+1     :     0.001087
      f-1     :     0.002146
      f+2     :     0.002300
      f-2     :     0.001926
      f+3     :     0.001299
      f-3     :     0.001785
  6 H s       :     0.640511  s :     0.640511
      pz      :     0.114577  p :     0.266708
      px      :     0.068397
      py      :     0.083734
  7 H s       :     0.620893  s :     0.620893
      pz      :     0.071714  p :     0.279429
      px      :     0.117829
      py      :     0.089886
  8 H s       :     0.686246  s :     0.686246
      pz      :     0.076551  p :     0.251896
      px      :     0.082320
      py      :     0.093025
  9 H s       :     0.624580  s :     0.624580
      pz      :     0.077955  p :     0.267603
      px      :     0.068967
      py      :     0.120680
 10 H s       :     0.637787  s :     0.637787
      pz      :     0.122794  p :     0.268111
      px      :     0.076982
      py      :     0.068335
 11 H s       :     0.685801  s :     0.685801
      pz      :     0.094737  p :     0.222653
      px      :     0.068454
      py      :     0.059463
 12 H s       :     0.700096  s :     0.700096
      pz      :     0.075177  p :     0.204490
      px      :     0.061702
      py      :     0.067612
 13 H s       :     0.710995  s :     0.710995
      pz      :     0.085654  p :     0.224605
      px      :     0.066369
      py      :     0.072582
 14 H s       :     0.718966  s :     0.718966
      pz      :     0.062206  p :     0.224967
      px      :     0.104770
      py      :     0.057991
 15 H s       :     0.709425  s :     0.709425
      pz      :     0.091046  p :     0.227223
      px      :     0.079628
      py      :     0.056549


                      *****************************
                      * MAYER POPULATION ANALYSIS *
                      *****************************

  NA   - Mulliken gross atomic population
  ZA   - Total nuclear charge
  QA   - Mulliken gross atomic charge
  VA   - Mayer's total valence
  BVA  - Mayer's bonded valence
  FA   - Mayer's free valence

  ATOM       NA         ZA         QA         VA         BVA        FA
  0 C      5.7857     6.0000     0.2143     3.2459     3.2459     0.0000
  1 C      6.7770     6.0000    -0.7770     3.9621     3.9621     0.0000
  2 C      7.1886     6.0000    -1.1886     3.9898     3.9898     0.0000
  3 C      5.5949     6.0000     0.4051     3.6139     3.6139     0.0000
  4 N      7.4866     7.0000    -0.4866     3.0327     3.0327     0.0000
  5 N      7.5158     7.0000    -0.5158     3.0063     3.0063    -0.0000
  6 H      0.8452     1.0000     0.1548     1.0212     1.0212    -0.0000
  7 H      0.7896     1.0000     0.2104     0.9498     0.9498    -0.0000
  8 H      0.5814     1.0000     0.4186     0.7609     0.7609    -0.0000
  9 H      0.8078     1.0000     0.1922     0.9940     0.9940     0.0000
 10 H      0.7990     1.0000     0.2010     0.9180     0.9180     0.0000
 11 H      0.7794     1.0000     0.2206     0.8939     0.8939     0.0000
 12 H      0.8937     1.0000     0.1063     1.0163     1.0163     0.0000
 13 H      0.6717     1.0000     0.3283     0.9081     0.9081     0.0000
 14 H      0.7865     1.0000     0.2135     1.1035     1.1035     0.0000
 15 H      0.6972     1.0000     0.3028     0.9753     0.9753     0.0000

  Mayer bond orders larger than 0.100000
B(  0-C ,  1-C ) :   0.7238 B(  0-C ,  2-C ) :   0.6233 B(  0-C , 11-H ) :   0.8795 
B(  0-C , 12-H ) :   0.9397 B(  1-C ,  2-C ) :   0.3899 B(  1-C ,  3-C ) :   1.8387 
B(  1-C ,  5-N ) :   0.1452 B(  1-C ,  8-H ) :   0.8050 B(  2-C , 13-H ) :   0.9308 
B(  2-C , 14-H ) :   0.9980 B(  2-C , 15-H ) :   0.9460 B(  3-C ,  4-N ) :   0.9357 
B(  3-C ,  5-N ) :   0.8171 B(  4-N ,  9-H ) :   0.9832 B(  4-N , 10-H ) :   0.9401 
B(  5-N ,  6-H ) :   1.0263 B(  5-N ,  7-H ) :   0.9107 

-------
TIMINGS
-------

Total SCF time: 0 days 0 hours 0 min 24 sec 

Total time                  ....      24.245 sec
Sum of individual times     ....      23.940 sec  ( 98.7%)

Fock matrix formation       ....      22.490 sec  ( 92.8%)
  Split-RI-J                ....       2.965 sec  ( 13.2% of F)
  XC integration            ....      19.262 sec  ( 85.6% of F)
    Basis function eval.    ....       2.197 sec  ( 11.4% of XC)
    Density eval.           ....       6.173 sec  ( 32.0% of XC)
    XC-Functional eval.     ....       0.585 sec  (  3.0% of XC)
    XC-Potential eval.      ....       8.917 sec  ( 46.3% of XC)
Diagonalization             ....       0.180 sec  (  0.7%)
Density matrix formation    ....       0.013 sec  (  0.1%)
Population analysis         ....       0.021 sec  (  0.1%)
Initial guess               ....       0.373 sec  (  1.5%)
Orbital Transformation      ....       0.000 sec  (  0.0%)
Orbital Orthonormalization  ....       0.000 sec  (  0.0%)
DIIS solution               ....       0.098 sec  (  0.4%)
SOSCF solution              ....       0.142 sec  (  0.6%)
Grid generation             ....       0.623 sec  (  2.6%)

Maximum memory used throughout the entire SCF-calculation: 36.8 MB


-------------------------------------------------------------------------------
                          DFT DISPERSION CORRECTION                            
                                                                               
                              DFTD3 V3.1  Rev 1                                
                          USING Becke-Johnson damping                          
-------------------------------------------------------------------------------
The TPSS functional is recognized
Active option DFTDOPT                   ...         4   

molecular C6(AA) [au] = 1932.518330 


            DFT-D V3
 parameters
 s6 scaling factor         :     1.0000 
 a1 scaling factor         :     0.4535 
 s8 scaling factor         :     1.9435 
 a2 scaling factor         :     4.4752 
 ad hoc parameters k1-k3   :    16.0000     1.3333    -4.0000 

 Edisp/kcal,au: -9.823209057429  -0.015654278406 
 E6   /kcal   :  -5.161400953 
 E8   /kcal   :  -4.661808104 
 % E8         :  47.457079221 

-------------------------   ----------------
Dispersion correction           -0.015654278
-------------------------   ----------------


-------------------------   --------------------
FINAL SINGLE POINT ENERGY      -268.063689474992
-------------------------   --------------------


                            ***************************************
                            *     ORCA property calculations      *
                            ***************************************

                                    ---------------------
                                    Active property flags
                                    ---------------------
   (+) Dipole Moment


------------------------------------------------------------------------------
                       ORCA ELECTRIC PROPERTIES CALCULATION
------------------------------------------------------------------------------

Dipole Moment Calculation                       ... on
Quadrupole Moment Calculation                   ... off
Polarizability Calculation                      ... off
GBWName                                         ... TZVPD_TPSS_C1_wt_dlpno_pos.gbw
Electron density file                           ... TZVPD_TPSS_C1_wt_dlpno_pos.scfp
The origin for moment calculation is the CENTER OF MASS  = ( 9.633692,  5.676569 -8.972810)

-------------
DIPOLE MOMENT
-------------
                                X             Y             Z
Electronic contribution:      3.19543       3.27491      -2.80366
Nuclear contribution   :     -3.27358      -3.61654       1.70633
                        -----------------------------------------
Total Dipole Moment    :     -0.07814      -0.34163      -1.09733
                        -----------------------------------------
Magnitude (a.u.)       :      1.15193
Magnitude (Debye)      :      2.92798



--------------------
Rotational spectrum 
--------------------
 
Rotational constants in cm-1:     0.231961     0.071249     0.059473 
Rotational constants in MHz :  6954.024434  2135.976855  1782.962814 

 Dipole components along the rotational axes: 
x,y,z [a.u.] :    -0.535431    -0.083256    -1.016529 
x,y,z [Debye]:    -1.360958    -0.211620    -2.583810 

 

Timings for individual modules:

Sum of individual times         ...       25.318 sec (=   0.422 min)
GTO integral calculation        ...        0.638 sec (=   0.011 min)   2.5 %
SCF iterations                  ...       24.681 sec (=   0.411 min)  97.5 %
                             ****ORCA TERMINATED NORMALLY****
TOTAL RUN TIME: 0 days 0 hours 0 minutes 25 seconds 883 msec
