
                                        *****************
                                        * O   R   C   A *
                                        *****************

                                            #,                                       
                                            ###                                      
                                            ####                                     
                                            #####                                    
                                            ######                                   
                                           ########,                                 
                                     ,,################,,,,,                         
                               ,,#################################,,                 
                          ,,##########################################,,             
                       ,#########################################, ''#####,          
                    ,#############################################,,   '####,        
                  ,##################################################,,,,####,       
                ,###########''''           ''''###############################       
              ,#####''   ,,,,##########,,,,          '''####'''          '####       
            ,##' ,,,,###########################,,,                        '##       
           ' ,,###''''                  '''############,,,                           
         ,,##''                                '''############,,,,        ,,,,,,###''
      ,#''                                            '''#######################'''  
     '                                                          ''''####''''         
             ,#######,   #######,   ,#######,      ##                                
            ,#'     '#,  ##    ##  ,#'     '#,    #''#        ######   ,####,        
            ##       ##  ##   ,#'  ##            #'  '#       #        #'  '#        
            ##       ##  #######   ##           ,######,      #####,   #    #        
            '#,     ,#'  ##    ##  '#,     ,#' ,#      #,         ##   #,  ,#        
             '#######'   ##     ##  '#######'  #'      '#     #####' # '####'        



                  #######################################################
                  #                        -***-                        #
                  #          Department of theory and spectroscopy      #
                  #    Directorship and core code : Frank Neese         #
                  #        Max Planck Institute fuer Kohlenforschung    #
                  #                Kaiser Wilhelm Platz 1               #
                  #                 D-45470 Muelheim/Ruhr               #
                  #                      Germany                        #
                  #                                                     #
                  #                  All rights reserved                #
                  #                        -***-                        #
                  #######################################################


                         Program Version 5.0.0 -  RELEASE  -
                                (SVN: $Rev: 19529$)
                ($Date: 2021-06-28 11:36:33 +0200 (Mo, 28 Jun 2021) $)


 With contributions from (in alphabetic order):
   Daniel Aravena         : Magnetic Suceptibility
   Michael Atanasov       : Ab Initio Ligand Field Theory (pilot matlab implementation)
   Alexander A. Auer      : GIAO ZORA, VPT2 properties, NMR spectrum
   Ute Becker             : Parallelization
   Giovanni Bistoni       : ED, misc. LED, open-shell LED, HFLD
   Martin Brehm           : Molecular dynamics
   Dmytro Bykov           : SCF Hessian
   Vijay G. Chilkuri      : MRCI spin determinant printing, contributions to CSF-ICE
   Dipayan Datta          : RHF DLPNO-CCSD density
   Achintya Kumar Dutta   : EOM-CC, STEOM-CC
   Dmitry Ganyushin       : Spin-Orbit,Spin-Spin,Magnetic field MRCI
   Miquel Garcia          : C-PCM Hessian, Gaussian charge scheme
   Yang Guo               : DLPNO-NEVPT2, F12-NEVPT2, CIM, IAO-localization
   Andreas Hansen         : Spin unrestricted coupled pair/coupled cluster methods
   Benjamin Helmich-Paris : MC-RPA, TRAH-SCF, COSX integrals
   Lee Huntington         : MR-EOM, pCC
   Robert Izsak           : Overlap fitted RIJCOSX, COSX-SCS-MP3, EOM
   Marcus Kettner         : VPT2
   Christian Kollmar      : KDIIS, OOCD, Brueckner-CCSD(T), CCSD density, CASPT2, CASPT2-K
   Simone Kossmann        : Meta GGA functionals, TD-DFT gradient, OOMP2, MP2 Hessian
   Martin Krupicka        : Initial AUTO-CI
   Lucas Lang             : DCDCAS
   Marvin Lechner         : AUTO-CI (C++ implementation), FIC-MRCC
   Dagmar Lenk            : GEPOL surface, SMD
   Dimitrios Liakos       : Extrapolation schemes; Compound Job, initial MDCI parallelization
   Dimitrios Manganas     : Further ROCIS development; embedding schemes
   Dimitrios Pantazis     : SARC Basis sets
   Anastasios Papadopoulos: AUTO-CI, single reference methods and gradients
   Taras Petrenko         : DFT Hessian,TD-DFT gradient, ASA, ECA, R-Raman, ABS, FL, XAS/XES, NRVS
   Peter Pinski           : DLPNO-MP2, DLPNO-MP2 Gradient
   Christoph Reimann      : Effective Core Potentials
   Marius Retegan         : Local ZFS, SOC
   Christoph Riplinger    : Optimizer, TS searches, QM/MM, DLPNO-CCSD(T), (RO)-DLPNO pert. Triples
   Tobias Risthaus        : Range-separated hybrids, TD-DFT gradient, RPA, STAB
   Michael Roemelt        : Original ROCIS implementation
   Masaaki Saitow         : Open-shell DLPNO-CCSD energy and density
   Barbara Sandhoefer     : DKH picture change effects
   Avijit Sen             : IP-ROCIS
   Kantharuban Sivalingam : CASSCF convergence, NEVPT2, FIC-MRCI
   Bernardo de Souza      : ESD, SOC TD-DFT
   Georgi Stoychev        : AutoAux, RI-MP2 NMR
   Willem Van den Heuvel  : Paramagnetic NMR
   Boris Wezisla          : Elementary symmetry handling
   Frank Wennmohs         : Technical directorship


 We gratefully acknowledge several colleagues who have allowed us to
 interface, adapt or use parts of their codes:
   Stefan Grimme, W. Hujo, H. Kruse, P. Pracht,  : VdW corrections, initial TS optimization,
                  C. Bannwarth, S. Ehlert          DFT functionals, gCP, sTDA/sTD-DF
   Ed Valeev, F. Pavosevic, A. Kumar             : LibInt (2-el integral package), F12 methods
   Garnet Chan, S. Sharma, J. Yang, R. Olivares  : DMRG
   Ulf Ekstrom                                   : XCFun DFT Library
   Mihaly Kallay                                 : mrcc  (arbitrary order and MRCC methods)
   Jiri Pittner, Ondrej Demel                    : Mk-CCSD
   Frank Weinhold                                : gennbo (NPA and NBO analysis)
   Christopher J. Cramer and Donald G. Truhlar   : smd solvation model
   Lars Goerigk                                  : TD-DFT with DH, B97 family of functionals
   V. Asgeirsson, H. Jonsson                     : NEB implementation
   FAccTs GmbH                                   : IRC, NEB, NEB-TS, DLPNO-Multilevel, CI-OPT
                                                   MM, QMMM, 2- and 3-layer-ONIOM, Crystal-QMMM,
                                                   LR-CPCM, SF, NACMEs, symmetry and pop. for TD-DFT,
                                                   nearIR, NL-DFT gradient (VV10), updates on ESD,
                                                   ML-optimized integration grids
   S Lehtola, MJT Oliveira, MAL Marques          : LibXC Library
   Liviu Ungur et al                             : ANISO software


 Your calculation uses the libint2 library for the computation of 2-el integrals
 For citations please refer to: http://libint.valeyev.net

 Your ORCA version has been built with support for libXC version: 5.1.0
 For citations please refer to: https://tddft.org/programs/libxc/

 This ORCA versions uses:
   CBLAS   interface :  Fast vector & matrix operations
   LAPACKE interface :  Fast linear algebra routines
   SCALAPACK package :  Parallel linear algebra routines
   Shared memory     :  Shared parallel matrices
   BLAS/LAPACK       :  OpenBLAS 0.3.15  USE64BITINT DYNAMIC_ARCH NO_AFFINITY Haswell SINGLE_THREADED
        Core in use  :  Haswell
   Copyright (c) 2011-2014, The OpenBLAS Project


Your calculation utilizes the atom-pairwise dispersion correction
with the Becke-Johnson damping scheme (D3BJ)
Cite in your paper:
S.Grimme, S.Ehrlich, L.Goerigk, J Comput Chem, (2011), 32, 1456–1465 
S.Grimme, J.Antony, S.Ehrlich and H.Krieg, J.Chem.Phys., 132, (2010), 154104 
   

================================================================================

----- Orbital basis set information -----
Your calculation utilizes the basis: def2-TZVPD
   F. Weigend and R. Ahlrichs, Phys. Chem. Chem. Phys. 7, 3297 (2005).
   D. Rappoport and F. Furche, J. Chem. Phys. 133 134105 (2010).

----- AuxJ basis set information -----
Your calculation utilizes the auxiliary basis: def2/J
   F. Weigend, Phys. Chem. Chem. Phys. 8, 1057 (2006).

================================================================================
                                        WARNINGS
                       Please study these warnings very carefully!
================================================================================



WARNING: Found flag for RIJCOSX approximation but no HF exchange needed!
  ===> : RIJCOSX  will be disabled and Split-RI-J is turned on

INFO   : the flag for use of the SHARK integral package has been found!

================================================================================
                                       INPUT FILE
================================================================================
NAME = TZVPD_TPSS_C3_wt_dlpno_pos.com
|  1> !TPSS D3BJ RIJCOSX def2-TZVPD def2/J TightSCF
|  2> *xyz 0 1 
|  3> C          3.90595        2.81985       -3.75292
|  4> N          5.29562        3.13151       -4.10533
|  5> C          3.80351        1.37472       -3.26081
|  6> C          5.70862        3.46889       -5.32419
|  7> N          6.90470        3.03895       -5.71708
|  8> C          4.98188        4.29357       -6.09746
|  9> H          5.00055        4.10131       -7.08776
| 10> H          4.08469        4.59690       -5.73965
| 11> H          5.96336        2.52611       -3.64239
| 12> H          7.04716        2.06686       -5.47360
| 13> H          7.19815        3.30799       -6.64523
| 14> H          3.28202        2.94919       -4.64026
| 15> H          3.56525        3.51457       -2.98252
| 16> H          4.14157        0.71142       -4.02935
| 17> H          2.78528        1.15146       -3.01944
| 18> H          4.41205        1.25066       -2.38949
| 19> *
| 20> 
| 21> %MaxCore 64000
| 22> 
| 23> %pal nprocs 4
| 24> end  
| 25> 
| 26> %scf
| 27>   MaxIter 150
| 28> end
| 29> 
| 30> 
| 31>                          ****END OF INPUT****
================================================================================

                       ****************************
                       * Single Point Calculation *
                       ****************************

---------------------------------
CARTESIAN COORDINATES (ANGSTROEM)
---------------------------------
  C      3.905950    2.819850   -3.752920
  N      5.295620    3.131510   -4.105330
  C      3.803510    1.374720   -3.260810
  C      5.708620    3.468890   -5.324190
  N      6.904700    3.038950   -5.717080
  C      4.981880    4.293570   -6.097460
  H      5.000550    4.101310   -7.087760
  H      4.084690    4.596900   -5.739650
  H      5.963360    2.526110   -3.642390
  H      7.047160    2.066860   -5.473600
  H      7.198150    3.307990   -6.645230
  H      3.282020    2.949190   -4.640260
  H      3.565250    3.514570   -2.982520
  H      4.141570    0.711420   -4.029350
  H      2.785280    1.151460   -3.019440
  H      4.412050    1.250660   -2.389490

----------------------------
CARTESIAN COORDINATES (A.U.)
----------------------------
  NO LB      ZA    FRAG     MASS         X           Y           Z
   0 C     6.0000    0    12.011    7.381176    5.328744   -7.091991
   1 N     7.0000    0    14.007   10.007272    5.917696   -7.757949
   2 C     6.0000    0    12.011    7.187592    2.597844   -6.162038
   3 C     6.0000    0    12.011   10.787728    6.555252  -10.061261
   4 N     7.0000    0    14.007   13.047992    5.742783  -10.803715
   5 C     6.0000    0    12.011    9.414389    8.113671  -11.522530
   6 H     1.0000    0     1.008    9.449670    7.750353  -13.393925
   7 H     1.0000    0     1.008    7.718945    8.686882  -10.846367
   8 H     1.0000    0     1.008   11.269117    4.773656   -6.883120
   9 H     1.0000    0     1.008   13.317202    3.905799  -10.343605
  10 H     1.0000    0     1.008   13.602532    6.251195  -12.557665
  11 H     1.0000    0     1.008    6.202119    5.573161   -8.768821
  12 H     1.0000    0     1.008    6.737346    6.641575   -5.636146
  13 H     1.0000    0     1.008    7.826433    1.344389   -7.614368
  14 H     1.0000    0     1.008    5.263416    2.175944   -5.705915
  15 H     1.0000    0     1.008    8.337566    2.363405   -4.515482

--------------------------------
INTERNAL COORDINATES (ANGSTROEM)
--------------------------------
 C      0   0   0     0.000000000000     0.00000000     0.00000000
 N      1   0   0     1.467142621765     0.00000000     0.00000000
 C      1   2   0     1.530054548897   109.95659769     0.00000000
 C      2   1   3     1.330418717547   124.60848250   117.82477566
 N      4   2   1     1.330345189077   117.88568818   216.04039772
 C      4   2   1     1.343947403324   120.98879030    40.55692244
 H      6   4   2     1.008963114539   115.96332282   215.01866637
 H      6   4   2     1.012416406969   117.36806711   356.14703280
 H      2   1   3     1.013261719005   112.80142721   337.30547611
 H      5   4   2     1.012193820422   111.46134138    44.03787504
 H      5   4   2     1.009929624578   116.52326395   180.07681422
 H      1   2   3     1.092423798761   108.70677307   240.06289078
 H      1   2   3     1.091892178010   109.26095115   121.65707238
 H      3   1   2     1.070002422988   109.47110748   300.80763943
 H      3   1   2     1.069998522149   109.47155819   180.80728714
 H      3   1   2     1.070004839989   109.47149351    60.80749791

---------------------------
INTERNAL COORDINATES (A.U.)
---------------------------
 C      0   0   0     0.000000000000     0.00000000     0.00000000
 N      1   0   0     2.772497754539     0.00000000     0.00000000
 C      1   2   0     2.891384067376   109.95659769     0.00000000
 C      2   1   3     2.514127019607   124.60848250   117.82477566
 N      4   2   1     2.513988070935   117.88568818   216.04039772
 C      4   2   1     2.539692530676   120.98879030    40.55692244
 H      6   4   2     1.906663965707   115.96332282   215.01866637
 H      6   4   2     1.913189742660   117.36806711   356.14703280
 H      2   1   3     1.914787150905   112.80142721   337.30547611
 H      5   4   2     1.912769115045   111.46134138    44.03787504
 H      5   4   2     1.908490404986   116.52326395   180.07681422
 H      1   2   3     2.064381801837   108.70677307   240.06289078
 H      1   2   3     2.063377184210   109.26095115   121.65707238
 H      3   1   2     2.022011542079   109.47110748   300.80763943
 H      3   1   2     2.022004170561   109.47155819   180.80728714
 H      3   1   2     2.022016109550   109.47149351    60.80749791

---------------------
BASIS SET INFORMATION
---------------------
There are 3 groups of distinct atoms

 Group   1 Type C   : 12s6p3d1f contracted to 6s3p3d1f pattern {621111/411/111/1}
 Group   2 Type N   : 12s6p3d1f contracted to 6s3p3d1f pattern {621111/411/111/1}
 Group   3 Type H   : 5s2p contracted to 3s2p pattern {311/11}

Atom   0C    basis set group =>   1
Atom   1N    basis set group =>   2
Atom   2C    basis set group =>   1
Atom   3C    basis set group =>   1
Atom   4N    basis set group =>   2
Atom   5C    basis set group =>   1
Atom   6H    basis set group =>   3
Atom   7H    basis set group =>   3
Atom   8H    basis set group =>   3
Atom   9H    basis set group =>   3
Atom  10H    basis set group =>   3
Atom  11H    basis set group =>   3
Atom  12H    basis set group =>   3
Atom  13H    basis set group =>   3
Atom  14H    basis set group =>   3
Atom  15H    basis set group =>   3
---------------------------------
AUXILIARY/J BASIS SET INFORMATION
---------------------------------
There are 3 groups of distinct atoms

 Group   1 Type C   : 12s5p4d2f1g contracted to 6s4p3d1f1g pattern {711111/2111/211/2/1}
 Group   2 Type N   : 12s5p4d2f1g contracted to 6s4p3d1f1g pattern {711111/2111/211/2/1}
 Group   3 Type H   : 5s2p1d contracted to 3s1p1d pattern {311/2/1}

Atom   0C    basis set group =>   1
Atom   1N    basis set group =>   2
Atom   2C    basis set group =>   1
Atom   3C    basis set group =>   1
Atom   4N    basis set group =>   2
Atom   5C    basis set group =>   1
Atom   6H    basis set group =>   3
Atom   7H    basis set group =>   3
Atom   8H    basis set group =>   3
Atom   9H    basis set group =>   3
Atom  10H    basis set group =>   3
Atom  11H    basis set group =>   3
Atom  12H    basis set group =>   3
Atom  13H    basis set group =>   3
Atom  14H    basis set group =>   3
Atom  15H    basis set group =>   3


           ************************************************************
           *        Program running with 4 parallel MPI-processes     *
           *              working on a common directory               *
           ************************************************************
------------------------------------------------------------------------------
                           ORCA GTO INTEGRAL CALCULATION
                           -- RI-GTO INTEGRALS CHOSEN --
------------------------------------------------------------------------------
------------------------------------------------------------------------------
                   ___                                                        
                  /   \      - P O W E R E D   B Y -                         
                 /     \                                                     
                 |  |  |   _    _      __       _____    __    __             
                 |  |  |  | |  | |    /  \     |  _  \  |  |  /  |          
                  \  \/   | |  | |   /    \    | | | |  |  | /  /          
                 / \  \   | |__| |  /  /\  \   | |_| |  |  |/  /          
                |  |  |   |  __  | /  /__\  \  |    /   |      \           
                |  |  |   | |  | | |   __   |  |    \   |  |\   \          
                \     /   | |  | | |  |  |  |  | |\  \  |  | \   \       
                 \___/    |_|  |_| |__|  |__|  |_| \__\ |__|  \__/        
                                                                              
                      - O R C A' S   B I G   F R I E N D -                    
                                      &                                       
                       - I N T E G R A L  F E E D E R -                       
                                                                              
 v1 FN, 2020, v2 2021                                                         
------------------------------------------------------------------------------


Reading SHARK input file TZVPD_TPSS_C3_wt_dlpno_pos.SHARKINP.tmp ... ok
----------------------
SHARK INTEGRAL PACKAGE
----------------------

Number of atoms                             ...     16
Number of basis functions                   ...    312
Number of shells                            ...    128
Maximum angular momentum                    ...      3
Integral batch strategy                     ... SHARK/LIBINT Hybrid
RI-J (if used) integral strategy            ... SPLIT-RIJ (Revised 2003 algorithm where possible)
Printlevel                                  ...      1
Contraction scheme used                     ... SEGMENTED contraction
Coulomb Range Separation                    ... NOT USED
Exchange Range Separation                   ... NOT USED
Finite Nucleus Model                        ... NOT USED
Auxiliary Coulomb fitting basis             ... AVAILABLE
   # of basis functions in Aux-J            ...    404
   # of shells in Aux-J                     ...    140
   Maximum angular momentum in Aux-J        ...      4
Auxiliary J/K fitting basis                 ... NOT available
Auxiliary Correlation fitting basis         ... NOT available
Auxiliary 'external' fitting basis          ... NOT available
Integral threshold                          ...     2.500000e-11
Primitive cut-off                           ...     2.500000e-12
Primitive pair pre-selection threshold      ...     2.500000e-12

Calculating pre-screening integrals         ... done (  0.1 sec) Dimension = 128
Organizing shell pair data                  ... done (  0.1 sec)
Shell pair information
Total number of shell pairs                 ...      8256
Shell pairs after pre-screening             ...      7900
Total number of primitive shell pairs       ...     20665
Primitive shell pairs kept                  ...     16224
          la=0 lb=0:   2055 shell pairs
          la=1 lb=0:   2403 shell pairs
          la=1 lb=1:    724 shell pairs
          la=2 lb=0:   1151 shell pairs
          la=2 lb=1:    673 shell pairs
          la=2 lb=2:    169 shell pairs
          la=3 lb=0:    373 shell pairs
          la=3 lb=1:    224 shell pairs
          la=3 lb=2:    107 shell pairs
          la=3 lb=3:     21 shell pairs

Calculating one electron integrals          ... done (  0.0 sec)
Calculating RI/J V-Matrix + Cholesky decomp.... done (  0.0 sec)
Calculating Nuclear repulsion               ... done (  0.0 sec) ENN=    247.979221334389 Eh

SHARK setup successfully completed in   0.3 seconds

Maximum memory used throughout the entire GTOINT-calculation: 14.0 MB


           ************************************************************
           *        Program running with 4 parallel MPI-processes     *
           *              working on a common directory               *
           ************************************************************
-------------------------------------------------------------------------------
                                 ORCA SCF
-------------------------------------------------------------------------------

------------
SCF SETTINGS
------------
Hamiltonian:
 Density Functional     Method          .... DFT(GTOs)
 Exchange Functional    Exchange        .... TPSS
 Correlation Functional Correlation     .... TPSS
 LDA part of GGA corr.  LDAOpt          .... PW91-LDA
 Gradients option       PostSCFGGA      .... off
   Density functional embedding theory  .... OFF
   NL short-range parameter             ....  5.000000
 RI-approximation to the Coulomb term is turned on
   Number of AuxJ basis functions       .... 404


General Settings:
 Integral files         IntName         .... TZVPD_TPSS_C3_wt_dlpno_pos
 Hartree-Fock type      HFTyp           .... RHF
 Total Charge           Charge          ....    0
 Multiplicity           Mult            ....    1
 Number of Electrons    NEL             ....   48
 Basis Dimension        Dim             ....  312
 Nuclear Repulsion      ENuc            ....    247.9792213344 Eh

Convergence Acceleration:
 DIIS                   CNVDIIS         .... on
   Start iteration      DIISMaxIt       ....    12
   Startup error        DIISStart       ....  0.200000
   # of expansion vecs  DIISMaxEq       ....     5
   Bias factor          DIISBfac        ....   1.050
   Max. coefficient     DIISMaxC        ....  10.000
 Trust-Rad. Augm. Hess. CNVTRAH         .... auto
   Auto Start mean grad. ratio tolernc. ....  1.125000
   Auto Start start iteration           ....    20
   Auto Start num. interpolation iter.  ....    10
   Max. Number of Micro iterations      ....    16
   Max. Number of Macro iterations      .... Maxiter - #DIIS iter
   Number of Davidson start vectors     ....     2
   Converg. threshold I  (grad. norm)   ....   1.000e-05
   Converg. threshold II (energy diff.) ....   1.000e-08
   Grad. Scal. Fac. for Micro threshold ....   0.100
   Minimum threshold for Micro iter.    ....   0.010
   NR start threshold (gradient norm)   ....   0.001
   Initial trust radius                 ....   0.400
   Minimum AH scaling param. (alpha)    ....   1.000
   Maximum AH scaling param. (alpha)    .... 1000.000
   Orbital update algorithm             .... Taylor
   White noise on init. David. guess    .... on
   Maximum white noise                  ....   0.010
   Quad. conv. algorithm                .... NR
 SOSCF                  CNVSOSCF        .... on
   Start iteration      SOSCFMaxIt      ....   150
   Startup grad/error   SOSCFStart      ....  0.003300
 Level Shifting         CNVShift        .... on
   Level shift para.    LevelShift      ....    0.2500
   Turn off err/grad.   ShiftErr        ....    0.0010
 Zerner damping         CNVZerner       .... off
 Static damping         CNVDamp         .... on
   Fraction old density DampFac         ....    0.7000
   Max. Damping (<1)    DampMax         ....    0.9800
   Min. Damping (>=0)   DampMin         ....    0.0000
   Turn off err/grad.   DampErr         ....    0.1000
 Fernandez-Rico         CNVRico         .... off

SCF Procedure:
 Maximum # iterations   MaxIter         ....   150
 SCF integral mode      SCFMode         .... Direct
   Integral package                     .... SHARK and LIBINT hybrid scheme
 Reset frequency        DirectResetFreq ....    20
 Integral Threshold     Thresh          ....  2.500e-11 Eh
 Primitive CutOff       TCut            ....  2.500e-12 Eh

Convergence Tolerance:
 Convergence Check Mode ConvCheckMode   .... Total+1el-Energy
 Convergence forced     ConvForced      .... 0
 Energy Change          TolE            ....  1.000e-08 Eh
 1-El. energy change                    ....  1.000e-05 Eh
 Orbital Gradient       TolG            ....  1.000e-05
 Orbital Rotation angle TolX            ....  1.000e-05
 DIIS Error             TolErr          ....  5.000e-07


Diagonalization of the overlap matrix:
Smallest eigenvalue                        ... 5.110e-06
Time for diagonalization                   ...    0.022 sec
Threshold for overlap eigenvalues          ... 1.000e-08
Number of eigenvalues below threshold      ... 0
Time for construction of square roots      ...    0.017 sec
Total time needed                          ...    0.039 sec

Time for model grid setup =    0.172 sec

------------------------------
INITIAL GUESS: MODEL POTENTIAL
------------------------------
Loading Hartree-Fock densities                     ... done
Calculating cut-offs                               ... done
Initializing the effective Hamiltonian             ... done
Setting up the integral package (SHARK)            ... done
Starting the Coulomb interaction                   ... done (   0.2 sec)
Reading the grid                                   ... done
Mapping shells                                     ... done
Starting the XC term evaluation                    ... done (   0.3 sec)
  promolecular density results
     # of electrons  =     47.995083715
     EX              =    -36.577294387
     EC              =     -1.576945910
     EX+EC           =    -38.154240297
Transforming the Hamiltonian                       ... done (   0.0 sec)
Diagonalizing the Hamiltonian                      ... done (   0.0 sec)
Back transforming the eigenvectors                 ... done (   0.0 sec)
Now organizing SCF variables                       ... done
                      ------------------
                      INITIAL GUESS DONE (   0.7 sec)
                      ------------------
-------------------
DFT GRID GENERATION
-------------------

General Integration Accuracy     IntAcc      ... 4.388
Radial Grid Type                 RadialGrid  ... OptM3 with GC (2021)
Angular Grid (max. ang.)         AngularGrid ... 4 (Lebedev-302)
Angular grid pruning method      GridPruning ... 4 (adaptive)
Weight generation scheme         WeightScheme... Becke
Basis function cutoff            BFCut       ... 1.0000e-11
Integration weight cutoff        WCut        ... 1.0000e-14
Angular grids for H and He will be reduced by one unit
Partially contracted basis set               ... off
Rotationally invariant grid construction     ... off

Total number of grid points                  ...    71883
Total number of batches                      ...     1131
Average number of points per batch           ...       63
Average number of grid points per atom       ...     4493
Time for grid setup =    0.489 sec

--------------
SCF ITERATIONS
--------------
ITER       Energy         Delta-E        Max-DP      RMS-DP      [F,P]     Damp
               ***  Starting incremental Fock matrix formation  ***
  0   -267.7569771130   0.000000000000 0.32553034  0.00272814  0.2258221 0.7000
  1   -267.8984427052  -0.141465592147 0.30302835  0.00273110  0.1074588 0.7000
                               ***Turning on DIIS***
  2   -267.9491174253  -0.050674720142 0.41141730  0.00558994  0.0314298 0.0000
  3   -268.0148585450  -0.065741119685 0.27679979  0.00204202  0.0748966 0.0000
  4   -268.0414875450  -0.026628999992 0.12583033  0.00104379  0.0160126 0.0000
  5   -268.0432827531  -0.001795208153 0.04301968  0.00055037  0.0046492 0.0000
                      *** Initiating the SOSCF procedure ***
                           *** Shutting down DIIS ***
                      *** Re-Reading the Fockian *** 
                      *** Removing any level shift *** 
ITER      Energy       Delta-E        Grad      Rot      Max-DP    RMS-DP
  6   -268.04345212  -0.0001693708  0.000607  0.000607  0.019746  0.000290
               *** Restarting incremental Fock matrix formation ***
  7   -268.04347879  -0.0000266661  0.000291  0.001778  0.022221  0.000317
  8   -268.04348282  -0.0000040337  0.000118  0.000482  0.005283  0.000074
  9   -268.04348311  -0.0000002879  0.000171  0.000600  0.005395  0.000076
 10   -268.04348406  -0.0000009439  0.000079  0.000215  0.000998  0.000015
 11   -268.04348399   0.0000000611  0.000053  0.000079  0.001293  0.000019
 12   -268.04348421  -0.0000002187  0.000011  0.000025  0.000460  0.000004
 13   -268.04348420   0.0000000160  0.000016  0.000018  0.000286  0.000003
                  ***Gradient check signals convergence***
              ***Rediagonalizing the Fockian in SOSCF/NRSCF***

               *****************************************************
               *                     SUCCESS                       *
               *           SCF CONVERGED AFTER  14 CYCLES          *
               *****************************************************


----------------
TOTAL SCF ENERGY
----------------

Total Energy       :         -268.04348422 Eh           -7293.83402 eV

Components:
Nuclear Repulsion  :          247.97922133 Eh            6747.85767 eV
Electronic Energy  :         -516.02270556 Eh          -14041.69168 eV
One Electron Energy:         -851.73963698 Eh          -23177.01382 eV
Two Electron Energy:          335.71693142 Eh            9135.32213 eV

Virial components:
Potential Energy   :         -535.54603476 Eh          -14572.94848 eV
Kinetic Energy     :          267.50255054 Eh            7279.11446 eV
Virial Ratio       :            2.00202216


DFT components:
N(Alpha)           :       23.999987088196 electrons
N(Beta)            :       23.999987088196 electrons
N(Total)           :       47.999974176392 electrons
E(X)               :      -37.966302456531 Eh       
E(C)               :       -1.582238259382 Eh       
E(XC)              :      -39.548540715913 Eh       
DFET-embed. en.    :        0.000000000000 Eh       

---------------
SCF CONVERGENCE
---------------

  Last Energy change         ...   -2.5963e-08  Tolerance :   1.0000e-08
  Last MAX-Density change    ...    4.8009e-04  Tolerance :   1.0000e-07
  Last RMS-Density change    ...    4.0258e-06  Tolerance :   5.0000e-09
  Last Orbital Gradient      ...    1.3255e-06  Tolerance :   1.0000e-05
  Last Orbital Rotation      ...    5.3738e-06  Tolerance :   1.0000e-05

             **** THE GBW FILE WAS UPDATED (TZVPD_TPSS_C3_wt_dlpno_pos.gbw) ****
             **** DENSITY TZVPD_TPSS_C3_wt_dlpno_pos.scfp WAS UPDATED ****
             **** ENERGY FILE WAS UPDATED (TZVPD_TPSS_C3_wt_dlpno_pos.en.tmp) ****
             **** THE GBW FILE WAS UPDATED (TZVPD_TPSS_C3_wt_dlpno_pos.gbw) ****
             **** DENSITY TZVPD_TPSS_C3_wt_dlpno_pos.scfp WAS UPDATED ****
----------------
ORBITAL ENERGIES
----------------

  NO   OCC          E(Eh)            E(eV) 
   0   2.0000     -14.105930      -383.8419 
   1   2.0000     -14.104937      -383.8148 
   2   2.0000     -10.023409      -272.7508 
   3   2.0000     -10.020699      -272.6771 
   4   2.0000      -9.983487      -271.6645 
   5   2.0000      -9.903116      -269.4775 
   6   2.0000      -0.910108       -24.7653 
   7   2.0000      -0.830326       -22.5943 
   8   2.0000      -0.708782       -19.2869 
   9   2.0000      -0.654004       -17.7964 
  10   2.0000      -0.595558       -16.2060 
  11   2.0000      -0.521432       -14.1889 
  12   2.0000      -0.490432       -13.3453 
  13   2.0000      -0.474046       -12.8995 
  14   2.0000      -0.429780       -11.6949 
  15   2.0000      -0.417018       -11.3476 
  16   2.0000      -0.366076        -9.9614 
  17   2.0000      -0.363601        -9.8941 
  18   2.0000      -0.352491        -9.5918 
  19   2.0000      -0.337578        -9.1860 
  20   2.0000      -0.327022        -8.8987 
  21   2.0000      -0.301830        -8.2132 
  22   2.0000      -0.221756        -6.0343 
  23   2.0000      -0.148922        -4.0524 
  24   0.0000      -0.012925        -0.3517 
  25   0.0000       0.009676         0.2633 
  26   0.0000       0.021030         0.5723 
  27   0.0000       0.021835         0.5941 
  28   0.0000       0.037028         1.0076 
  29   0.0000       0.049647         1.3510 
  30   0.0000       0.055566         1.5120 
  31   0.0000       0.065616         1.7855 
  32   0.0000       0.077414         2.1065 
  33   0.0000       0.083167         2.2631 
  34   0.0000       0.088042         2.3957 
  35   0.0000       0.101039         2.7494 
  36   0.0000       0.113930         3.1002 
  37   0.0000       0.121617         3.3094 
  38   0.0000       0.122931         3.3451 
  39   0.0000       0.134915         3.6712 
  40   0.0000       0.138301         3.7634 
  41   0.0000       0.147726         4.0198 
  42   0.0000       0.156162         4.2494 
  43   0.0000       0.167645         4.5619 
  44   0.0000       0.178085         4.8459 
  45   0.0000       0.180930         4.9234 
  46   0.0000       0.192945         5.2503 
  47   0.0000       0.195490         5.3196 
  48   0.0000       0.201620         5.4864 
  49   0.0000       0.206589         5.6216 
  50   0.0000       0.216534         5.8922 
  51   0.0000       0.225226         6.1287 
  52   0.0000       0.234427         6.3791 
  53   0.0000       0.236408         6.4330 
  54   0.0000       0.248419         6.7598 
  55   0.0000       0.251669         6.8483 
  56   0.0000       0.259284         7.0555 
  57   0.0000       0.260537         7.0896 
  58   0.0000       0.269037         7.3209 
  59   0.0000       0.274665         7.4740 
  60   0.0000       0.280301         7.6274 
  61   0.0000       0.283055         7.7023 
  62   0.0000       0.286938         7.8080 
  63   0.0000       0.297814         8.1039 
  64   0.0000       0.304229         8.2785 
  65   0.0000       0.305998         8.3266 
  66   0.0000       0.316822         8.6212 
  67   0.0000       0.320812         8.7297 
  68   0.0000       0.323918         8.8142 
  69   0.0000       0.326582         8.8867 
  70   0.0000       0.337722         9.1899 
  71   0.0000       0.339638         9.2420 
  72   0.0000       0.347828         9.4649 
  73   0.0000       0.356484         9.7004 
  74   0.0000       0.371153        10.0996 
  75   0.0000       0.373493        10.1633 
  76   0.0000       0.380065        10.3421 
  77   0.0000       0.388571        10.5736 
  78   0.0000       0.391251        10.6465 
  79   0.0000       0.396498        10.7893 
  80   0.0000       0.409621        11.1464 
  81   0.0000       0.416947        11.3457 
  82   0.0000       0.421523        11.4702 
  83   0.0000       0.426272        11.5995 
  84   0.0000       0.438234        11.9249 
  85   0.0000       0.440826        11.9955 
  86   0.0000       0.445429        12.1207 
  87   0.0000       0.452699        12.3186 
  88   0.0000       0.458140        12.4666 
  89   0.0000       0.465052        12.6547 
  90   0.0000       0.469610        12.7787 
  91   0.0000       0.473968        12.8973 
  92   0.0000       0.483617        13.1599 
  93   0.0000       0.492655        13.4058 
  94   0.0000       0.498289        13.5591 
  95   0.0000       0.515817        14.0361 
  96   0.0000       0.518521        14.1097 
  97   0.0000       0.518901        14.1200 
  98   0.0000       0.532451        14.4887 
  99   0.0000       0.534300        14.5390 
 100   0.0000       0.553973        15.0744 
 101   0.0000       0.566576        15.4173 
 102   0.0000       0.570990        15.5374 
 103   0.0000       0.582539        15.8517 
 104   0.0000       0.601573        16.3696 
 105   0.0000       0.604838        16.4585 
 106   0.0000       0.617495        16.8029 
 107   0.0000       0.629483        17.1291 
 108   0.0000       0.636539        17.3211 
 109   0.0000       0.643954        17.5229 
 110   0.0000       0.655689        17.8422 
 111   0.0000       0.659334        17.9414 
 112   0.0000       0.664215        18.0742 
 113   0.0000       0.675855        18.3909 
 114   0.0000       0.683753        18.6059 
 115   0.0000       0.692214        18.8361 
 116   0.0000       0.695929        18.9372 
 117   0.0000       0.706681        19.2298 
 118   0.0000       0.720728        19.6120 
 119   0.0000       0.730030        19.8651 
 120   0.0000       0.735176        20.0052 
 121   0.0000       0.745135        20.2761 
 122   0.0000       0.752866        20.4865 
 123   0.0000       0.766254        20.8508 
 124   0.0000       0.778045        21.1717 
 125   0.0000       0.781224        21.2582 
 126   0.0000       0.784475        21.3466 
 127   0.0000       0.804879        21.9019 
 128   0.0000       0.822244        22.3744 
 129   0.0000       0.831592        22.6288 
 130   0.0000       0.857235        23.3265 
 131   0.0000       0.867992        23.6193 
 132   0.0000       0.870796        23.6956 
 133   0.0000       0.896958        24.4075 
 134   0.0000       0.907876        24.7046 
 135   0.0000       0.923541        25.1308 
 136   0.0000       0.936204        25.4754 
 137   0.0000       0.957219        26.0472 
 138   0.0000       0.968027        26.3413 
 139   0.0000       1.000399        27.2222 
 140   0.0000       1.010810        27.5055 
 141   0.0000       1.041834        28.3498 
 142   0.0000       1.053406        28.6646 
 143   0.0000       1.055220        28.7140 
 144   0.0000       1.117796        30.4168 
 145   0.0000       1.132641        30.8207 
 146   0.0000       1.134171        30.8624 
 147   0.0000       1.174690        31.9649 
 148   0.0000       1.188463        32.3397 
 149   0.0000       1.216846        33.1121 
 150   0.0000       1.221798        33.2468 
 151   0.0000       1.236422        33.6448 
 152   0.0000       1.245655        33.8960 
 153   0.0000       1.275052        34.6959 
 154   0.0000       1.300567        35.3902 
 155   0.0000       1.316690        35.8290 
 156   0.0000       1.338318        36.4175 
 157   0.0000       1.394068        37.9345 
 158   0.0000       1.406799        38.2810 
 159   0.0000       1.444005        39.2934 
 160   0.0000       1.452933        39.5363 
 161   0.0000       1.492430        40.6111 
 162   0.0000       1.534896        41.7666 
 163   0.0000       1.615441        43.9584 
 164   0.0000       1.625413        44.2297 
 165   0.0000       1.646746        44.8103 
 166   0.0000       1.691768        46.0353 
 167   0.0000       1.720965        46.8298 
 168   0.0000       1.748937        47.5910 
 169   0.0000       1.754761        47.7495 
 170   0.0000       1.764670        48.0191 
 171   0.0000       1.778571        48.3974 
 172   0.0000       1.798525        48.9404 
 173   0.0000       1.811121        49.2831 
 174   0.0000       1.822203        49.5847 
 175   0.0000       1.825582        49.6766 
 176   0.0000       1.841051        50.0975 
 177   0.0000       1.858683        50.5773 
 178   0.0000       1.863422        50.7063 
 179   0.0000       1.886493        51.3341 
 180   0.0000       1.891441        51.4687 
 181   0.0000       1.904416        51.8218 
 182   0.0000       1.931397        52.5560 
 183   0.0000       1.959598        53.3234 
 184   0.0000       1.980612        53.8952 
 185   0.0000       2.018894        54.9369 
 186   0.0000       2.031381        55.2767 
 187   0.0000       2.068823        56.2955 
 188   0.0000       2.090398        56.8826 
 189   0.0000       2.103235        57.2319 
 190   0.0000       2.119599        57.6772 
 191   0.0000       2.146966        58.4219 
 192   0.0000       2.181482        59.3611 
 193   0.0000       2.215769        60.2941 
 194   0.0000       2.234506        60.8040 
 195   0.0000       2.280821        62.0643 
 196   0.0000       2.299669        62.5772 
 197   0.0000       2.331731        63.4496 
 198   0.0000       2.366731        64.4020 
 199   0.0000       2.385985        64.9260 
 200   0.0000       2.420675        65.8699 
 201   0.0000       2.428040        66.0703 
 202   0.0000       2.471346        67.2487 
 203   0.0000       2.486762        67.6682 
 204   0.0000       2.502882        68.1069 
 205   0.0000       2.518259        68.5253 
 206   0.0000       2.535131        68.9844 
 207   0.0000       2.545633        69.2702 
 208   0.0000       2.554127        69.5013 
 209   0.0000       2.585587        70.3574 
 210   0.0000       2.624605        71.4191 
 211   0.0000       2.637472        71.7693 
 212   0.0000       2.645652        71.9918 
 213   0.0000       2.667879        72.5967 
 214   0.0000       2.710212        73.7486 
 215   0.0000       2.728184        74.2377 
 216   0.0000       2.742969        74.6400 
 217   0.0000       2.752977        74.9123 
 218   0.0000       2.775237        75.5180 
 219   0.0000       2.813360        76.5554 
 220   0.0000       2.822848        76.8136 
 221   0.0000       2.839426        77.2647 
 222   0.0000       2.872564        78.1664 
 223   0.0000       2.907461        79.1160 
 224   0.0000       2.930790        79.7508 
 225   0.0000       2.950543        80.2884 
 226   0.0000       2.974651        80.9444 
 227   0.0000       3.000039        81.6352 
 228   0.0000       3.018449        82.1362 
 229   0.0000       3.025615        82.3312 
 230   0.0000       3.045303        82.8669 
 231   0.0000       3.108118        84.5762 
 232   0.0000       3.129389        85.1550 
 233   0.0000       3.143590        85.5414 
 234   0.0000       3.166479        86.1643 
 235   0.0000       3.188266        86.7571 
 236   0.0000       3.199984        87.0760 
 237   0.0000       3.204312        87.1938 
 238   0.0000       3.234110        88.0046 
 239   0.0000       3.279200        89.2316 
 240   0.0000       3.286276        89.4241 
 241   0.0000       3.327280        90.5399 
 242   0.0000       3.342048        90.9417 
 243   0.0000       3.351714        91.2048 
 244   0.0000       3.373447        91.7962 
 245   0.0000       3.390628        92.2637 
 246   0.0000       3.403545        92.6152 
 247   0.0000       3.431433        93.3740 
 248   0.0000       3.462779        94.2270 
 249   0.0000       3.486351        94.8684 
 250   0.0000       3.508700        95.4766 
 251   0.0000       3.526950        95.9732 
 252   0.0000       3.554646        96.7268 
 253   0.0000       3.558615        96.8348 
 254   0.0000       3.593196        97.7758 
 255   0.0000       3.626561        98.6838 
 256   0.0000       3.664702        99.7216 
 257   0.0000       3.708628       100.9169 
 258   0.0000       3.754514       102.1655 
 259   0.0000       3.782299       102.9216 
 260   0.0000       3.829940       104.2180 
 261   0.0000       3.896133       106.0192 
 262   0.0000       3.932367       107.0052 
 263   0.0000       3.968362       107.9846 
 264   0.0000       3.985024       108.4380 
 265   0.0000       4.009775       109.1115 
 266   0.0000       4.051849       110.2564 
 267   0.0000       4.111054       111.8675 
 268   0.0000       4.119848       112.1067 
 269   0.0000       4.197600       114.2225 
 270   0.0000       4.232032       115.1595 
 271   0.0000       4.302651       117.0811 
 272   0.0000       4.319872       117.5497 
 273   0.0000       4.402816       119.8067 
 274   0.0000       4.465143       121.5027 
 275   0.0000       4.522845       123.0729 
 276   0.0000       4.561046       124.1124 
 277   0.0000       4.594262       125.0162 
 278   0.0000       4.633669       126.0885 
 279   0.0000       4.649131       126.5093 
 280   0.0000       4.695283       127.7651 
 281   0.0000       4.763133       129.6114 
 282   0.0000       4.779880       130.0671 
 283   0.0000       4.849865       131.9715 
 284   0.0000       4.872974       132.6004 
 285   0.0000       4.904625       133.4616 
 286   0.0000       4.950400       134.7072 
 287   0.0000       4.990215       135.7907 
 288   0.0000       5.023593       136.6989 
 289   0.0000       5.090117       138.5091 
 290   0.0000       5.125620       139.4752 
 291   0.0000       5.185667       141.1092 
 292   0.0000       5.228821       142.2834 
 293   0.0000       5.265584       143.2838 
 294   0.0000       5.318976       144.7367 
 295   0.0000       5.364079       145.9640 
 296   0.0000       5.411224       147.2469 
 297   0.0000       5.442300       148.0925 
 298   0.0000       5.516721       150.1176 
 299   0.0000       5.545732       150.9070 
 300   0.0000       5.627668       153.1366 
 301   0.0000       5.793080       157.6377 
 302   0.0000       5.861537       159.5005 
 303   0.0000       6.015507       163.6903 
 304   0.0000       6.076972       165.3628 
 305   0.0000       6.273247       170.7037 
 306   0.0000      22.530192       613.0777 
 307   0.0000      22.627313       615.7205 
 308   0.0000      22.774025       619.7127 
 309   0.0000      23.494424       639.3158 
 310   0.0000      32.313877       879.3053 
 311   0.0000      32.758304       891.3988 

                    ********************************
                    * MULLIKEN POPULATION ANALYSIS *
                    ********************************

-----------------------
MULLIKEN ATOMIC CHARGES
-----------------------
   0 C :   -0.084517
   1 N :   -0.284710
   2 C :   -1.075168
   3 C :    0.714590
   4 N :   -0.504403
   5 C :   -1.206025
   6 H :    0.248518
   7 H :    0.350411
   8 H :    0.240175
   9 H :    0.178377
  10 H :    0.200452
  11 H :    0.250153
  12 H :    0.155375
  13 H :    0.303066
  14 H :    0.229783
  15 H :    0.283924
Sum of atomic charges:   -0.0000000

--------------------------------
MULLIKEN REDUCED ORBITAL CHARGES
--------------------------------
  0 C s       :     3.212714  s :     3.212714
      pz      :     1.104492  p :     2.836269
      px      :     0.842933
      py      :     0.888845
      dz2     :    -0.019175  d :     0.026534
      dxz     :     0.012194
      dyz     :     0.021926
      dx2y2   :     0.015169
      dxy     :    -0.003581
      f0      :     0.000631  f :     0.009000
      f+1     :     0.001246
      f-1     :     0.000966
      f+2     :     0.001757
      f-2     :     0.000608
      f+3     :     0.001871
      f-3     :     0.001921
  1 N s       :     3.544700  s :     3.544700
      pz      :     1.127081  p :     3.651866
      px      :     1.035543
      py      :     1.489242
      dz2     :     0.022591  d :     0.084034
      dxz     :     0.018698
      dyz     :     0.015344
      dx2y2   :     0.015332
      dxy     :     0.012069
      f0      :     0.000840  f :     0.004110
      f+1     :     0.000615
      f-1     :     0.000501
      f+2     :     0.000544
      f-2     :     0.000665
      f+3     :     0.000473
      f-3     :     0.000473
  2 C s       :     3.488897  s :     3.488897
      pz      :     1.247582  p :     3.502863
      px      :     1.265066
      py      :     0.990215
      dz2     :     0.004482  d :     0.078984
      dxz     :     0.032914
      dyz     :     0.022916
      dx2y2   :     0.023378
      dxy     :    -0.004706
      f0      :     0.000207  f :     0.004424
      f+1     :     0.000618
      f-1     :     0.000815
      f+2     :     0.000994
      f-2     :     0.000391
      f+3     :     0.000874
      f-3     :     0.000525
  3 C s       :     3.077076  s :     3.077076
      pz      :     0.551077  p :     1.957833
      px      :     0.590034
      py      :     0.816722
      dz2     :     0.037148  d :     0.231544
      dxz     :     0.056835
      dyz     :     0.045000
      dx2y2   :     0.048373
      dxy     :     0.044188
      f0      :     0.003123  f :     0.018957
      f+1     :     0.003930
      f-1     :     0.002985
      f+2     :     0.002648
      f-2     :     0.001838
      f+3     :     0.002467
      f-3     :     0.001968
  4 N s       :     3.631759  s :     3.631759
      pz      :     1.301649  p :     3.818654
      px      :     1.304184
      py      :     1.212821
      dz2     :     0.006969  d :     0.050692
      dxz     :     0.003922
      dyz     :     0.002215
      dx2y2   :     0.024734
      dxy     :     0.012852
      f0      :     0.000404  f :     0.003298
      f+1     :     0.000630
      f-1     :     0.000365
      f+2     :     0.000534
      f-2     :     0.000317
      f+3     :     0.000449
      f-3     :     0.000599
  5 C s       :     3.635282  s :     3.635282
      pz      :     1.102838  p :     3.504869
      px      :     1.131122
      py      :     1.270909
      dz2     :     0.035752  d :     0.060634
      dxz     :    -0.001618
      dyz     :     0.006029
      dx2y2   :     0.015980
      dxy     :     0.004491
      f0      :     0.001070  f :     0.005240
      f+1     :     0.000497
      f-1     :     0.000707
      f+2     :     0.000708
      f-2     :     0.000508
      f+3     :     0.000846
      f-3     :     0.000905
  6 H s       :     0.649962  s :     0.649962
      pz      :     0.022506  p :     0.101520
      px      :     0.040133
      py      :     0.038881
  7 H s       :     0.561935  s :     0.561935
      pz      :     0.017555  p :     0.087654
      px      :     0.059917
      py      :     0.010182
  8 H s       :     0.726267  s :     0.726267
      pz      :     0.007831  p :     0.033559
      px      :     0.009540
      py      :     0.016188
  9 H s       :     0.758723  s :     0.758723
      pz      :     0.014993  p :     0.062900
      px      :     0.015733
      py      :     0.032174
 10 H s       :     0.756131  s :     0.756131
      pz      :     0.020291  p :     0.043418
      px      :     0.012991
      py      :     0.010136
 11 H s       :     0.687208  s :     0.687208
      pz      :     0.045958  p :     0.062639
      px      :     0.006740
      py      :     0.009940
 12 H s       :     0.768110  s :     0.768110
      pz      :     0.015448  p :     0.076515
      px      :     0.042042
      py      :     0.019026
 13 H s       :     0.636030  s :     0.636030
      pz      :     0.029789  p :     0.060905
      px      :     0.014188
      py      :     0.016928
 14 H s       :     0.700314  s :     0.700314
      pz      :     0.018357  p :     0.069903
      px      :     0.041844
      py      :     0.009702
 15 H s       :     0.652439  s :     0.652439
      pz      :     0.026784  p :     0.063637
      px      :     0.022716
      py      :     0.014137


                     *******************************
                     * LOEWDIN POPULATION ANALYSIS *
                     *******************************

----------------------
LOEWDIN ATOMIC CHARGES
----------------------
   0 C :   -0.224660
   1 N :    0.022657
   2 C :   -0.082513
   3 C :   -0.580729
   4 N :    0.118186
   5 C :    0.011070
   6 H :    0.005666
   7 H :    0.001254
   8 H :    0.123516
   9 H :    0.096805
  10 H :    0.104502
  11 H :    0.106248
  12 H :    0.108119
  13 H :    0.065450
  14 H :    0.062842
  15 H :    0.061587

-------------------------------
LOEWDIN REDUCED ORBITAL CHARGES
-------------------------------
  0 C s       :     2.681418  s :     2.681418
      pz      :     0.935568  p :     2.680816
      px      :     0.817400
      py      :     0.927849
      dz2     :     0.095939  d :     0.806590
      dxz     :     0.162954
      dyz     :     0.164994
      dx2y2   :     0.185527
      dxy     :     0.197176
      f0      :     0.004597  f :     0.055835
      f+1     :     0.008139
      f-1     :     0.006205
      f+2     :     0.007873
      f-2     :     0.004479
      f+3     :     0.012250
      f-3     :     0.012292
  1 N s       :     2.861037  s :     2.861037
      pz      :     1.153998  p :     3.424910
      px      :     1.047103
      py      :     1.223809
      dz2     :     0.138233  d :     0.674065
      dxz     :     0.203587
      dyz     :     0.098557
      dx2y2   :     0.105655
      dxy     :     0.128033
      f0      :     0.003744  f :     0.017331
      f+1     :     0.003310
      f-1     :     0.002038
      f+2     :     0.002159
      f-2     :     0.002518
      f+3     :     0.001873
      f-3     :     0.001688
  2 C s       :     2.735996  s :     2.735996
      pz      :     0.967134  p :     2.874292
      px      :     0.964663
      py      :     0.942495
      dz2     :     0.060238  d :     0.444311
      dxz     :     0.064331
      dyz     :     0.126561
      dx2y2   :     0.112354
      dxy     :     0.080825
      f0      :     0.002185  f :     0.027915
      f+1     :     0.003569
      f-1     :     0.005513
      f+2     :     0.004240
      f-2     :     0.003020
      f+3     :     0.005599
      f-3     :     0.003788
  3 C s       :     2.600670  s :     2.600670
      pz      :     0.862868  p :     2.540809
      px      :     0.868164
      py      :     0.809777
      dz2     :     0.307368  d :     1.322075
      dxz     :     0.288424
      dyz     :     0.234484
      dx2y2   :     0.295267
      dxy     :     0.196532
      f0      :     0.020295  f :     0.117175
      f+1     :     0.024661
      f-1     :     0.017920
      f+2     :     0.015536
      f-2     :     0.012020
      f+3     :     0.013853
      f-3     :     0.012890
  4 N s       :     2.929206  s :     2.929206
      pz      :     1.164814  p :     3.546651
      px      :     1.247498
      py      :     1.134339
      dz2     :     0.076358  d :     0.392739
      dxz     :     0.087567
      dyz     :     0.026757
      dx2y2   :     0.112531
      dxy     :     0.089526
      f0      :     0.001447  f :     0.013218
      f+1     :     0.001970
      f-1     :     0.001206
      f+2     :     0.002388
      f-2     :     0.001111
      f+3     :     0.002117
      f-3     :     0.002977
  5 C s       :     2.730335  s :     2.730335
      pz      :     0.945139  p :     2.846225
      px      :     0.938119
      py      :     0.962967
      dz2     :     0.121091  d :     0.380790
      dxz     :     0.064935
      dyz     :     0.062105
      dx2y2   :     0.061766
      dxy     :     0.070893
      f0      :     0.005337  f :     0.031580
      f+1     :     0.002862
      f-1     :     0.005272
      f+2     :     0.005161
      f-2     :     0.005427
      f+3     :     0.003436
      f-3     :     0.004086
  6 H s       :     0.727905  s :     0.727905
      pz      :     0.101109  p :     0.266429
      px      :     0.074671
      py      :     0.090648
  7 H s       :     0.719881  s :     0.719881
      pz      :     0.077192  p :     0.278865
      px      :     0.107008
      py      :     0.094665
  8 H s       :     0.607970  s :     0.607970
      pz      :     0.080326  p :     0.268514
      px      :     0.090194
      py      :     0.097995
  9 H s       :     0.635060  s :     0.635060
      pz      :     0.075401  p :     0.268135
      px      :     0.069431
      py      :     0.123302
 10 H s       :     0.628405  s :     0.628405
      pz      :     0.124064  p :     0.267092
      px      :     0.076435
      py      :     0.066593
 11 H s       :     0.672324  s :     0.672324
      pz      :     0.101703  p :     0.221428
      px      :     0.058886
      py      :     0.060839
 12 H s       :     0.700507  s :     0.700507
      pz      :     0.074399  p :     0.191375
      px      :     0.049030
      py      :     0.067945
 13 H s       :     0.711813  s :     0.711813
      pz      :     0.085921  p :     0.222737
      px      :     0.065460
      py      :     0.071356
 14 H s       :     0.713827  s :     0.713827
      pz      :     0.061712  p :     0.223331
      px      :     0.105312
      py      :     0.056307
 15 H s       :     0.712632  s :     0.712632
      pz      :     0.091126  p :     0.225781
      px      :     0.078884
      py      :     0.055771


                      *****************************
                      * MAYER POPULATION ANALYSIS *
                      *****************************

  NA   - Mulliken gross atomic population
  ZA   - Total nuclear charge
  QA   - Mulliken gross atomic charge
  VA   - Mayer's total valence
  BVA  - Mayer's bonded valence
  FA   - Mayer's free valence

  ATOM       NA         ZA         QA         VA         BVA        FA
  0 C      6.0845     6.0000    -0.0845     3.4519     3.4519    -0.0000
  1 N      7.2847     7.0000    -0.2847     3.1186     3.1186    -0.0000
  2 C      7.0752     6.0000    -1.0752     3.8799     3.8799    -0.0000
  3 C      5.2854     6.0000     0.7146     3.1509     3.1509     0.0000
  4 N      7.5044     7.0000    -0.5044     3.0793     3.0793    -0.0000
  5 C      7.2060     6.0000    -1.2060     3.5812     3.5812    -0.0000
  6 H      0.7515     1.0000     0.2485     1.0832     1.0832    -0.0000
  7 H      0.6496     1.0000     0.3504     0.9727     0.9727    -0.0000
  8 H      0.7598     1.0000     0.2402     0.8979     0.8979     0.0000
  9 H      0.8216     1.0000     0.1784     1.0146     1.0146    -0.0000
 10 H      0.7995     1.0000     0.2005     0.9480     0.9480    -0.0000
 11 H      0.7498     1.0000     0.2502     0.9414     0.9414    -0.0000
 12 H      0.8446     1.0000     0.1554     1.0949     1.0949     0.0000
 13 H      0.6969     1.0000     0.3031     0.9738     0.9738    -0.0000
 14 H      0.7702     1.0000     0.2298     1.0913     1.0913     0.0000
 15 H      0.7161     1.0000     0.2839     1.0231     1.0231    -0.0000

  Mayer bond orders larger than 0.100000
B(  0-C ,  1-N ) :   0.8406 B(  0-C ,  2-C ) :   0.7591 B(  0-C , 11-H ) :   0.8692 
B(  0-C , 12-H ) :   0.9658 B(  1-N ,  3-C ) :   1.0271 B(  1-N ,  8-H ) :   0.8897 
B(  2-C , 13-H ) :   0.9697 B(  2-C , 14-H ) :   0.9852 B(  2-C , 15-H ) :   0.9543 
B(  3-C ,  4-N ) :   0.9098 B(  3-C ,  5-C ) :   1.3192 B(  4-N ,  5-C ) :   0.1124 
B(  4-N ,  9-H ) :   0.9850 B(  4-N , 10-H ) :   0.9465 B(  5-C ,  6-H ) :   1.0715 
B(  5-C ,  7-H ) :   0.8814 

-------
TIMINGS
-------

Total SCF time: 0 days 0 hours 0 min 25 sec 

Total time                  ....      25.470 sec
Sum of individual times     ....      25.014 sec  ( 98.2%)

Fock matrix formation       ....      23.376 sec  ( 91.8%)
  Split-RI-J                ....       3.112 sec  ( 13.3% of F)
  XC integration            ....      20.170 sec  ( 86.3% of F)
    Basis function eval.    ....       2.413 sec  ( 12.0% of XC)
    Density eval.           ....       6.624 sec  ( 32.8% of XC)
    XC-Functional eval.     ....       0.625 sec  (  3.1% of XC)
    XC-Potential eval.      ....       9.595 sec  ( 47.6% of XC)
Diagonalization             ....       0.202 sec  (  0.8%)
Density matrix formation    ....       0.013 sec  (  0.1%)
Population analysis         ....       0.019 sec  (  0.1%)
Initial guess               ....       0.499 sec  (  2.0%)
Orbital Transformation      ....       0.000 sec  (  0.0%)
Orbital Orthonormalization  ....       0.000 sec  (  0.0%)
DIIS solution               ....       0.100 sec  (  0.4%)
SOSCF solution              ....       0.143 sec  (  0.6%)
Grid generation             ....       0.661 sec  (  2.6%)

Maximum memory used throughout the entire SCF-calculation: 36.1 MB


-------------------------------------------------------------------------------
                          DFT DISPERSION CORRECTION                            
                                                                               
                              DFTD3 V3.1  Rev 1                                
                          USING Becke-Johnson damping                          
-------------------------------------------------------------------------------
The TPSS functional is recognized
Active option DFTDOPT                   ...         4   

molecular C6(AA) [au] = 1935.741896 


            DFT-D V3
 parameters
 s6 scaling factor         :     1.0000 
 a1 scaling factor         :     0.4535 
 s8 scaling factor         :     1.9435 
 a2 scaling factor         :     4.4752 
 ad hoc parameters k1-k3   :    16.0000     1.3333    -4.0000 

 Edisp/kcal,au: -9.763750665196  -0.015559525437 
 E6   /kcal   :  -5.143871035 
 E8   /kcal   :  -4.619879630 
 % E8         :  47.316648987 

-------------------------   ----------------
Dispersion correction           -0.015559525
-------------------------   ----------------


-------------------------   --------------------
FINAL SINGLE POINT ENERGY      -268.059043748414
-------------------------   --------------------


                            ***************************************
                            *     ORCA property calculations      *
                            ***************************************

                                    ---------------------
                                    Active property flags
                                    ---------------------
   (+) Dipole Moment


------------------------------------------------------------------------------
                       ORCA ELECTRIC PROPERTIES CALCULATION
------------------------------------------------------------------------------

Dipole Moment Calculation                       ... on
Quadrupole Moment Calculation                   ... off
Polarizability Calculation                      ... off
GBWName                                         ... TZVPD_TPSS_C3_wt_dlpno_pos.gbw
Electron density file                           ... TZVPD_TPSS_C3_wt_dlpno_pos.scfp
The origin for moment calculation is the CENTER OF MASS  = ( 9.647430,  5.625683 -8.885577)

-------------
DIPOLE MOMENT
-------------
                                X             Y             Z
Electronic contribution:      3.38134       2.09958      -0.97215
Nuclear contribution   :     -3.34013      -3.37002       1.28371
                        -----------------------------------------
Total Dipole Moment    :      0.04121      -1.27044       0.31156
                        -----------------------------------------
Magnitude (a.u.)       :      1.30873
Magnitude (Debye)      :      3.32653



--------------------
Rotational spectrum 
--------------------
 
Rotational constants in cm-1:     0.239537     0.072280     0.060961 
Rotational constants in MHz :  7181.153552  2166.902802  1827.551447 

 Dipole components along the rotational axes: 
x,y,z [a.u.] :     0.747552     0.917702    -0.558365 
x,y,z [Debye]:     1.900126     2.332613    -1.419250 

 

Timings for individual modules:

Sum of individual times         ...       26.484 sec (=   0.441 min)
GTO integral calculation        ...        0.626 sec (=   0.010 min)   2.4 %
SCF iterations                  ...       25.857 sec (=   0.431 min)  97.6 %
                             ****ORCA TERMINATED NORMALLY****
TOTAL RUN TIME: 0 days 0 hours 0 minutes 27 seconds 54 msec
