
                                        *****************
                                        * O   R   C   A *
                                        *****************

                                            #,                                       
                                            ###                                      
                                            ####                                     
                                            #####                                    
                                            ######                                   
                                           ########,                                 
                                     ,,################,,,,,                         
                               ,,#################################,,                 
                          ,,##########################################,,             
                       ,#########################################, ''#####,          
                    ,#############################################,,   '####,        
                  ,##################################################,,,,####,       
                ,###########''''           ''''###############################       
              ,#####''   ,,,,##########,,,,          '''####'''          '####       
            ,##' ,,,,###########################,,,                        '##       
           ' ,,###''''                  '''############,,,                           
         ,,##''                                '''############,,,,        ,,,,,,###''
      ,#''                                            '''#######################'''  
     '                                                          ''''####''''         
             ,#######,   #######,   ,#######,      ##                                
            ,#'     '#,  ##    ##  ,#'     '#,    #''#        ######   ,####,        
            ##       ##  ##   ,#'  ##            #'  '#       #        #'  '#        
            ##       ##  #######   ##           ,######,      #####,   #    #        
            '#,     ,#'  ##    ##  '#,     ,#' ,#      #,         ##   #,  ,#        
             '#######'   ##     ##  '#######'  #'      '#     #####' # '####'        



                  #######################################################
                  #                        -***-                        #
                  #          Department of theory and spectroscopy      #
                  #    Directorship and core code : Frank Neese         #
                  #        Max Planck Institute fuer Kohlenforschung    #
                  #                Kaiser Wilhelm Platz 1               #
                  #                 D-45470 Muelheim/Ruhr               #
                  #                      Germany                        #
                  #                                                     #
                  #                  All rights reserved                #
                  #                        -***-                        #
                  #######################################################


                         Program Version 5.0.0 -  RELEASE  -
                                (SVN: $Rev: 19529$)
                ($Date: 2021-06-28 11:36:33 +0200 (Mo, 28 Jun 2021) $)


 With contributions from (in alphabetic order):
   Daniel Aravena         : Magnetic Suceptibility
   Michael Atanasov       : Ab Initio Ligand Field Theory (pilot matlab implementation)
   Alexander A. Auer      : GIAO ZORA, VPT2 properties, NMR spectrum
   Ute Becker             : Parallelization
   Giovanni Bistoni       : ED, misc. LED, open-shell LED, HFLD
   Martin Brehm           : Molecular dynamics
   Dmytro Bykov           : SCF Hessian
   Vijay G. Chilkuri      : MRCI spin determinant printing, contributions to CSF-ICE
   Dipayan Datta          : RHF DLPNO-CCSD density
   Achintya Kumar Dutta   : EOM-CC, STEOM-CC
   Dmitry Ganyushin       : Spin-Orbit,Spin-Spin,Magnetic field MRCI
   Miquel Garcia          : C-PCM Hessian, Gaussian charge scheme
   Yang Guo               : DLPNO-NEVPT2, F12-NEVPT2, CIM, IAO-localization
   Andreas Hansen         : Spin unrestricted coupled pair/coupled cluster methods
   Benjamin Helmich-Paris : MC-RPA, TRAH-SCF, COSX integrals
   Lee Huntington         : MR-EOM, pCC
   Robert Izsak           : Overlap fitted RIJCOSX, COSX-SCS-MP3, EOM
   Marcus Kettner         : VPT2
   Christian Kollmar      : KDIIS, OOCD, Brueckner-CCSD(T), CCSD density, CASPT2, CASPT2-K
   Simone Kossmann        : Meta GGA functionals, TD-DFT gradient, OOMP2, MP2 Hessian
   Martin Krupicka        : Initial AUTO-CI
   Lucas Lang             : DCDCAS
   Marvin Lechner         : AUTO-CI (C++ implementation), FIC-MRCC
   Dagmar Lenk            : GEPOL surface, SMD
   Dimitrios Liakos       : Extrapolation schemes; Compound Job, initial MDCI parallelization
   Dimitrios Manganas     : Further ROCIS development; embedding schemes
   Dimitrios Pantazis     : SARC Basis sets
   Anastasios Papadopoulos: AUTO-CI, single reference methods and gradients
   Taras Petrenko         : DFT Hessian,TD-DFT gradient, ASA, ECA, R-Raman, ABS, FL, XAS/XES, NRVS
   Peter Pinski           : DLPNO-MP2, DLPNO-MP2 Gradient
   Christoph Reimann      : Effective Core Potentials
   Marius Retegan         : Local ZFS, SOC
   Christoph Riplinger    : Optimizer, TS searches, QM/MM, DLPNO-CCSD(T), (RO)-DLPNO pert. Triples
   Tobias Risthaus        : Range-separated hybrids, TD-DFT gradient, RPA, STAB
   Michael Roemelt        : Original ROCIS implementation
   Masaaki Saitow         : Open-shell DLPNO-CCSD energy and density
   Barbara Sandhoefer     : DKH picture change effects
   Avijit Sen             : IP-ROCIS
   Kantharuban Sivalingam : CASSCF convergence, NEVPT2, FIC-MRCI
   Bernardo de Souza      : ESD, SOC TD-DFT
   Georgi Stoychev        : AutoAux, RI-MP2 NMR
   Willem Van den Heuvel  : Paramagnetic NMR
   Boris Wezisla          : Elementary symmetry handling
   Frank Wennmohs         : Technical directorship


 We gratefully acknowledge several colleagues who have allowed us to
 interface, adapt or use parts of their codes:
   Stefan Grimme, W. Hujo, H. Kruse, P. Pracht,  : VdW corrections, initial TS optimization,
                  C. Bannwarth, S. Ehlert          DFT functionals, gCP, sTDA/sTD-DF
   Ed Valeev, F. Pavosevic, A. Kumar             : LibInt (2-el integral package), F12 methods
   Garnet Chan, S. Sharma, J. Yang, R. Olivares  : DMRG
   Ulf Ekstrom                                   : XCFun DFT Library
   Mihaly Kallay                                 : mrcc  (arbitrary order and MRCC methods)
   Jiri Pittner, Ondrej Demel                    : Mk-CCSD
   Frank Weinhold                                : gennbo (NPA and NBO analysis)
   Christopher J. Cramer and Donald G. Truhlar   : smd solvation model
   Lars Goerigk                                  : TD-DFT with DH, B97 family of functionals
   V. Asgeirsson, H. Jonsson                     : NEB implementation
   FAccTs GmbH                                   : IRC, NEB, NEB-TS, DLPNO-Multilevel, CI-OPT
                                                   MM, QMMM, 2- and 3-layer-ONIOM, Crystal-QMMM,
                                                   LR-CPCM, SF, NACMEs, symmetry and pop. for TD-DFT,
                                                   nearIR, NL-DFT gradient (VV10), updates on ESD,
                                                   ML-optimized integration grids
   S Lehtola, MJT Oliveira, MAL Marques          : LibXC Library
   Liviu Ungur et al                             : ANISO software


 Your calculation uses the libint2 library for the computation of 2-el integrals
 For citations please refer to: http://libint.valeyev.net

 Your ORCA version has been built with support for libXC version: 5.1.0
 For citations please refer to: https://tddft.org/programs/libxc/

 This ORCA versions uses:
   CBLAS   interface :  Fast vector & matrix operations
   LAPACKE interface :  Fast linear algebra routines
   SCALAPACK package :  Parallel linear algebra routines
   Shared memory     :  Shared parallel matrices
   BLAS/LAPACK       :  OpenBLAS 0.3.15  USE64BITINT DYNAMIC_ARCH NO_AFFINITY Haswell SINGLE_THREADED
        Core in use  :  Haswell
   Copyright (c) 2011-2014, The OpenBLAS Project


Your calculation utilizes the atom-pairwise dispersion correction
with the zero-damping scheme (D30)
Cite in your paper:
S.Grimme, J.Antony, S.Ehrlich and H.Krieg, J.Chem.Phys., 132, (2010), 154104 
   

XCFun DFT library Copyright 2009-2010 Ulf Ekstrom and contributors.
See http://admol.org/xcfun for more information.
This is free software; see the source code for copying conditions.
There is ABSOLUTELY NO WARRANTY; not even for MERCHANTABILITY or FITNESS FOR A PARTICULAR PURPOSE.
For details see the documentation.
Scientific users of this library should cite U. Ekstrom, L. Visscher, R. Bast, A. J. Thorvaldsen and K. Ruud;
J.Chem.Theor.Comp. 2010, DOI: 10.1021/ct100117s
XCFun Version 0.99 

================================================================================

----- Orbital basis set information -----
Your calculation utilizes the basis: def2-SVP
   F. Weigend and R. Ahlrichs, Phys. Chem. Chem. Phys. 7, 3297 (2005).

----- AuxJ basis set information -----
Your calculation utilizes the auxiliary basis: def2/J
   F. Weigend, Phys. Chem. Chem. Phys. 8, 1057 (2006).

================================================================================
                                        WARNINGS
                       Please study these warnings very carefully!
================================================================================


INFO   : the flag for use of the SHARK integral package has been found!

================================================================================
                                       INPUT FILE
================================================================================
NAME = C1_neg.com
|  1> !wB97X-D3 RIJCOSX def2-SVP def2/J TightSCF 
|  2> *xyz 0 1 
|  3> C          3.51177       -2.80621       -6.49228
|  4> S          3.00462       -1.09621       -6.38926
|  5> F          4.12886       -0.32965       -6.95372
|  6> O          1.78128       -1.00078       -7.13640
|  7> O          2.85155       -0.78368       -4.95679
|  8> H          3.63615       -3.08010       -7.51913
|  9> H          2.76397       -3.42755       -6.04548
| 10> H          4.43892       -2.93511       -5.97393
| 11> *
| 12> 
| 13> %MaxCore 64000
| 14> 
| 15> %pal nprocs 8
| 16> end  
| 17> 
| 18> %scf
| 19>   MaxIter 150
| 20> end
| 21> 
| 22> 
| 23>                          ****END OF INPUT****
================================================================================

                       ****************************
                       * Single Point Calculation *
                       ****************************

---------------------------------
CARTESIAN COORDINATES (ANGSTROEM)
---------------------------------
  C      3.511770   -2.806210   -6.492280
  S      3.004620   -1.096210   -6.389260
  F      4.128860   -0.329650   -6.953720
  O      1.781280   -1.000780   -7.136400
  O      2.851550   -0.783680   -4.956790
  H      3.636150   -3.080100   -7.519130
  H      2.763970   -3.427550   -6.045480
  H      4.438920   -2.935110   -5.973930

----------------------------
CARTESIAN COORDINATES (A.U.)
----------------------------
  NO LB      ZA    FRAG     MASS         X           Y           Z
   0 C     6.0000    0    12.011    6.636284   -5.302968  -12.268631
   1 S    16.0000    0    32.060    5.677909   -2.071537  -12.073952
   2 F     9.0000    0    18.998    7.802415   -0.622948  -13.140626
   3 O     8.0000    0    15.999    3.366131   -1.891200  -13.485842
   4 O     8.0000    0    15.999    5.388649   -1.480941   -9.366976
   5 H     1.0000    0     1.008    6.871328   -5.820545  -14.209096
   6 H     1.0000    0     1.008    5.223146   -6.477131  -11.424302
   7 H     1.0000    0     1.008    8.388343   -5.546554  -11.289092

--------------------------------
INTERNAL COORDINATES (ANGSTROEM)
--------------------------------
 C      0   0   0     0.000000000000     0.00000000     0.00000000
 S      1   0   0     1.786592914712     0.00000000     0.00000000
 F      2   1   0     1.473141168660   105.02979337     0.00000000
 O      2   1   3     1.436623061245   105.98059332   121.66598764
 O      2   1   3     1.474135586267   106.76390466   243.26178603
 H      1   2   3     1.070003289247   109.47113180   296.73796521
 H      1   2   3     1.069999287663   109.47114366   176.73839966
 H      1   2   3     1.070004231300   109.47128568    56.73849307

---------------------------
INTERNAL COORDINATES (A.U.)
---------------------------
 C      0   0   0     0.000000000000     0.00000000     0.00000000
 S      1   0   0     3.376171321610     0.00000000     0.00000000
 F      2   1   0     2.783833365371   105.02979337     0.00000000
 O      2   1   3     2.714824143428   105.98059332   121.66598764
 O      2   1   3     2.785712542313   106.76390466   243.26178603
 H      1   2   3     2.022013179072   109.47113180   296.73796521
 H      1   2   3     2.022005617174   109.47114366   176.73839966
 H      1   2   3     2.022014959294   109.47128568    56.73849307

---------------------
BASIS SET INFORMATION
---------------------
There are 5 groups of distinct atoms

 Group   1 Type C   : 7s4p1d contracted to 3s2p1d pattern {511/31/1}
 Group   2 Type S   : 10s7p1d contracted to 4s3p1d pattern {5311/511/1}
 Group   3 Type F   : 7s4p1d contracted to 3s2p1d pattern {511/31/1}
 Group   4 Type O   : 7s4p1d contracted to 3s2p1d pattern {511/31/1}
 Group   5 Type H   : 4s1p contracted to 2s1p pattern {31/1}

Atom   0C    basis set group =>   1
Atom   1S    basis set group =>   2
Atom   2F    basis set group =>   3
Atom   3O    basis set group =>   4
Atom   4O    basis set group =>   4
Atom   5H    basis set group =>   5
Atom   6H    basis set group =>   5
Atom   7H    basis set group =>   5
---------------------------------
AUXILIARY/J BASIS SET INFORMATION
---------------------------------
There are 5 groups of distinct atoms

 Group   1 Type C   : 12s5p4d2f1g contracted to 6s4p3d1f1g pattern {711111/2111/211/2/1}
 Group   2 Type S   : 14s5p5d2f1g contracted to 8s4p3d1f1g pattern {71111111/2111/311/2/1}
 Group   3 Type F   : 12s5p4d2f1g contracted to 6s4p3d1f1g pattern {711111/2111/211/2/1}
 Group   4 Type O   : 12s5p4d2f1g contracted to 6s4p3d1f1g pattern {711111/2111/211/2/1}
 Group   5 Type H   : 5s2p1d contracted to 3s1p1d pattern {311/2/1}

Atom   0C    basis set group =>   1
Atom   1S    basis set group =>   2
Atom   2F    basis set group =>   3
Atom   3O    basis set group =>   4
Atom   4O    basis set group =>   4
Atom   5H    basis set group =>   5
Atom   6H    basis set group =>   5
Atom   7H    basis set group =>   5


           ************************************************************
           *        Program running with 8 parallel MPI-processes     *
           *              working on a common directory               *
           ************************************************************
------------------------------------------------------------------------------
                           ORCA GTO INTEGRAL CALCULATION
                           -- RI-GTO INTEGRALS CHOSEN --
------------------------------------------------------------------------------
------------------------------------------------------------------------------
                   ___                                                        
                  /   \      - P O W E R E D   B Y -                         
                 /     \                                                     
                 |  |  |   _    _      __       _____    __    __             
                 |  |  |  | |  | |    /  \     |  _  \  |  |  /  |          
                  \  \/   | |  | |   /    \    | | | |  |  | /  /          
                 / \  \   | |__| |  /  /\  \   | |_| |  |  |/  /          
                |  |  |   |  __  | /  /__\  \  |    /   |      \           
                |  |  |   | |  | | |   __   |  |    \   |  |\   \          
                \     /   | |  | | |  |  |  |  | |\  \  |  | \   \       
                 \___/    |_|  |_| |__|  |__|  |_| \__\ |__|  \__/        
                                                                              
                      - O R C A' S   B I G   F R I E N D -                    
                                      &                                       
                       - I N T E G R A L  F E E D E R -                       
                                                                              
 v1 FN, 2020, v2 2021                                                         
------------------------------------------------------------------------------


Reading SHARK input file C1_neg.SHARKINP.tmp ... ok
----------------------
SHARK INTEGRAL PACKAGE
----------------------

Number of atoms                             ...      8
Number of basis functions                   ...     89
Number of shells                            ...     41
Maximum angular momentum                    ...      2
Integral batch strategy                     ... SHARK/LIBINT Hybrid
RI-J (if used) integral strategy            ... SPLIT-RIJ (Revised 2003 algorithm where possible)
Printlevel                                  ...      1
Contraction scheme used                     ... SEGMENTED contraction
Coulomb Range Separation                    ... NOT USED
Exchange Range Separation                   ... Long Range
   Mu parameter                             ...  0.250000
   Scaling (regular/separated)              ...  0.195728  0.804272
Finite Nucleus Model                        ... NOT USED
Auxiliary Coulomb fitting basis             ... AVAILABLE
   # of basis functions in Aux-J            ...    280
   # of shells in Aux-J                     ...     92
   Maximum angular momentum in Aux-J        ...      4
Auxiliary J/K fitting basis                 ... NOT available
Auxiliary Correlation fitting basis         ... NOT available
Auxiliary 'external' fitting basis          ... NOT available
Integral threshold                          ...     2.500000e-11
Primitive cut-off                           ...     2.500000e-12
Primitive pair pre-selection threshold      ...     2.500000e-12

Calculating pre-screening integrals         ... done (  0.0 sec) Dimension = 41
Organizing shell pair data                  ... done (  0.0 sec)
Shell pair information
Total number of shell pairs                 ...       861
Shell pairs after pre-screening             ...       848
Total number of primitive shell pairs       ...      3405
Primitive shell pairs kept                  ...      2587
          la=0 lb=0:    243 shell pairs
          la=1 lb=0:    305 shell pairs
          la=1 lb=1:    105 shell pairs
          la=2 lb=0:    110 shell pairs
          la=2 lb=1:     70 shell pairs
          la=2 lb=2:     15 shell pairs

Calculating one electron integrals          ... done (  0.0 sec)
Calculating RI/J V-Matrix + Cholesky decomp.... done (  0.0 sec)
Calculating Nuclear repulsion               ... done (  0.0 sec) ENN=    282.667059461717 Eh

SHARK setup successfully completed in   0.1 seconds

Maximum memory used throughout the entire GTOINT-calculation: 8.8 MB


           ************************************************************
           *        Program running with 8 parallel MPI-processes     *
           *              working on a common directory               *
           ************************************************************
-------------------------------------------------------------------------------
                                 ORCA SCF
-------------------------------------------------------------------------------

------------
SCF SETTINGS
------------
Hamiltonian:
 Density Functional     Method          .... DFT(GTOs)
 Exchange Functional    Exchange        .... WB97X-D3
 Correlation Functional Correlation     .... WB97X-D3
 Gradients option       PostSCFGGA      .... off
 Hybrid DFT is turned on
   Fraction HF Exchange ScalHFX         ....  0.195728
   Scaling of DF-GGA-X  ScalDFX         ....  0.000000
   Scaling of DF-GGA-C  ScalDFC         ....  1.000000
   Scaling of DF-LDA-C  ScalLDAC        ....  1.000000
   Perturbative correction              ....  0.000000
   Density functional embedding theory  .... OFF
 Long-range corrected/Screened/Range-Separated Hybrid DFT is turned on
   Amount of maximum screened exact exchange              ....  0.804272
   Range separation parameter mu (erf(mu*r12)/r12)        ....  0.250000
 RI-approximation to the Coulomb term is turned on
   Number of AuxJ basis functions       .... 280
   RIJ-COSX (HFX calculated with COS-X)).... on


General Settings:
 Integral files         IntName         .... C1_neg
 Hartree-Fock type      HFTyp           .... RHF
 Total Charge           Charge          ....    0
 Multiplicity           Mult            ....    1
 Number of Electrons    NEL             ....   50
 Basis Dimension        Dim             ....   89
 Nuclear Repulsion      ENuc            ....    282.6670594617 Eh

Convergence Acceleration:
 DIIS                   CNVDIIS         .... on
   Start iteration      DIISMaxIt       ....    12
   Startup error        DIISStart       ....  0.200000
   # of expansion vecs  DIISMaxEq       ....     5
   Bias factor          DIISBfac        ....   1.050
   Max. coefficient     DIISMaxC        ....  10.000
 Trust-Rad. Augm. Hess. CNVTRAH         .... auto
   Auto Start mean grad. ratio tolernc. ....  1.125000
   Auto Start start iteration           ....    20
   Auto Start num. interpolation iter.  ....    10
   Max. Number of Micro iterations      ....    16
   Max. Number of Macro iterations      .... Maxiter - #DIIS iter
   Number of Davidson start vectors     ....     2
   Converg. threshold I  (grad. norm)   ....   1.000e-05
   Converg. threshold II (energy diff.) ....   1.000e-08
   Grad. Scal. Fac. for Micro threshold ....   0.100
   Minimum threshold for Micro iter.    ....   0.010
   NR start threshold (gradient norm)   ....   0.001
   Initial trust radius                 ....   0.400
   Minimum AH scaling param. (alpha)    ....   1.000
   Maximum AH scaling param. (alpha)    .... 1000.000
   Orbital update algorithm             .... Taylor
   White noise on init. David. guess    .... on
   Maximum white noise                  ....   0.010
   Quad. conv. algorithm                .... NR
 SOSCF                  CNVSOSCF        .... on
   Start iteration      SOSCFMaxIt      ....   150
   Startup grad/error   SOSCFStart      ....  0.003300
 Level Shifting         CNVShift        .... on
   Level shift para.    LevelShift      ....    0.2500
   Turn off err/grad.   ShiftErr        ....    0.0010
 Zerner damping         CNVZerner       .... off
 Static damping         CNVDamp         .... on
   Fraction old density DampFac         ....    0.7000
   Max. Damping (<1)    DampMax         ....    0.9800
   Min. Damping (>=0)   DampMin         ....    0.0000
   Turn off err/grad.   DampErr         ....    0.1000
 Fernandez-Rico         CNVRico         .... off

SCF Procedure:
 Maximum # iterations   MaxIter         ....   150
 SCF integral mode      SCFMode         .... Direct
   Integral package                     .... SHARK and LIBINT hybrid scheme
 Reset frequency        DirectResetFreq ....    20
 Integral Threshold     Thresh          ....  2.500e-11 Eh
 Primitive CutOff       TCut            ....  2.500e-12 Eh

Convergence Tolerance:
 Convergence Check Mode ConvCheckMode   .... Total+1el-Energy
 Convergence forced     ConvForced      .... 0
 Energy Change          TolE            ....  1.000e-08 Eh
 1-El. energy change                    ....  1.000e-05 Eh
 Orbital Gradient       TolG            ....  1.000e-05
 Orbital Rotation angle TolX            ....  1.000e-05
 DIIS Error             TolErr          ....  5.000e-07


Diagonalization of the overlap matrix:
Smallest eigenvalue                        ... 5.875e-03
Time for diagonalization                   ...    0.002 sec
Threshold for overlap eigenvalues          ... 1.000e-08
Number of eigenvalues below threshold      ... 0
Time for construction of square roots      ...    0.003 sec
Total time needed                          ...    0.006 sec

Time for model grid setup =    0.038 sec

------------------------------
INITIAL GUESS: MODEL POTENTIAL
------------------------------
Loading Hartree-Fock densities                     ... done
Calculating cut-offs                               ... done
Initializing the effective Hamiltonian             ... done
Setting up the integral package (SHARK)            ... done
Starting the Coulomb interaction                   ... done (   0.0 sec)
Reading the grid                                   ... done
Mapping shells                                     ... done
Starting the XC term evaluation                    ... done (   0.0 sec)
  promolecular density results
     # of electrons  =     49.998469734
     EX              =    -57.337986034
     EC              =     -1.799696024
     EX+EC           =    -59.137682058
Transforming the Hamiltonian                       ... done (   0.0 sec)
Diagonalizing the Hamiltonian                      ... done (   0.0 sec)
Back transforming the eigenvectors                 ... done (   0.0 sec)
Now organizing SCF variables                       ... done
                      ------------------
                      INITIAL GUESS DONE (   0.1 sec)
                      ------------------
-------------------
DFT GRID GENERATION
-------------------

General Integration Accuracy     IntAcc      ... 4.388
Radial Grid Type                 RadialGrid  ... OptM3 with GC (2021)
Angular Grid (max. ang.)         AngularGrid ... 4 (Lebedev-302)
Angular grid pruning method      GridPruning ... 4 (adaptive)
Weight generation scheme         WeightScheme... Becke
Basis function cutoff            BFCut       ... 1.0000e-11
Integration weight cutoff        WCut        ... 1.0000e-14
Angular grids for H and He will be reduced by one unit
Partially contracted basis set               ... off
Rotationally invariant grid construction     ... off

Total number of grid points                  ...    41490
Total number of batches                      ...      652
Average number of points per batch           ...       63
Average number of grid points per atom       ...     5186
Time for grid setup =    0.234 sec

--------------------
COSX GRID GENERATION
--------------------

GRIDX 1
-------
General Integration Accuracy     IntAcc      ... 3.816
Radial Grid Type                 RadialGrid  ... OptM3 with GC (2021)
Angular Grid (max. ang.)         AngularGrid ... 1 (Lebedev-50)
Angular grid pruning method      GridPruning ... 4 (adaptive)
Weight generation scheme         WeightScheme... Becke
Basis function cutoff            BFCut       ... 1.0000e-11
Integration weight cutoff        WCut        ... 1.0000e-14
Angular grids for H and He will be reduced by one unit
Partially contracted basis set               ... on
Rotationally invariant grid construction     ... off

Total number of grid points                  ...     5214
Total number of batches                      ...       85
Average number of points per batch           ...       61
Average number of grid points per atom       ...      652
UseSFitting                                  ... on

GRIDX 2
-------
General Integration Accuracy     IntAcc      ... 4.020
Radial Grid Type                 RadialGrid  ... OptM3 with GC (2021)
Angular Grid (max. ang.)         AngularGrid ... 2 (Lebedev-110)
Angular grid pruning method      GridPruning ... 4 (adaptive)
Weight generation scheme         WeightScheme... Becke
Basis function cutoff            BFCut       ... 1.0000e-11
Integration weight cutoff        WCut        ... 1.0000e-14
Angular grids for H and He will be reduced by one unit
Partially contracted basis set               ... on
Rotationally invariant grid construction     ... off

Total number of grid points                  ...    11736
Total number of batches                      ...      187
Average number of points per batch           ...       62
Average number of grid points per atom       ...     1467
UseSFitting                                  ... on

GRIDX 3
-------
General Integration Accuracy     IntAcc      ... 4.338
Radial Grid Type                 RadialGrid  ... OptM3 with GC (2021)
Angular Grid (max. ang.)         AngularGrid ... 3 (Lebedev-194)
Angular grid pruning method      GridPruning ... 4 (adaptive)
Weight generation scheme         WeightScheme... Becke
Basis function cutoff            BFCut       ... 1.0000e-11
Integration weight cutoff        WCut        ... 1.0000e-14
Angular grids for H and He will be reduced by one unit
Partially contracted basis set               ... on
Rotationally invariant grid construction     ... off

Total number of grid points                  ...    26508
Total number of batches                      ...      419
Average number of points per batch           ...       63
Average number of grid points per atom       ...     3314
UseSFitting                                  ... on

Time for X-Grid setup             =    0.165 sec

--------------
SCF ITERATIONS
--------------
ITER       Energy         Delta-E        Max-DP      RMS-DP      [F,P]     Damp
               ***  Starting incremental Fock matrix formation  ***
  0   -687.5707242934   0.000000000000 0.17459080  0.00487796  0.2817281 0.7000
  1   -687.7086987223  -0.137974428844 0.09659565  0.00295036  0.1242084 0.7000
                               ***Turning on DIIS***
  2   -687.7622788936  -0.053580171295 0.09711813  0.00406596  0.0459576 0.0000
  3   -687.8524149601  -0.090136066554 0.08103708  0.00214265  0.0654756 0.0000
  4   -687.8685646655  -0.016149705377 0.01324206  0.00036512  0.0123203 0.0000
                      *** Initiating the SOSCF procedure ***
                           *** Shutting down DIIS ***
                      *** Re-Reading the Fockian *** 
                      *** Removing any level shift *** 
ITER      Energy       Delta-E        Grad      Rot      Max-DP    RMS-DP
  5   -687.86895497  -0.0003903014  0.000547  0.000547  0.001697  0.000088
               *** Restarting incremental Fock matrix formation ***
  6   -687.86898280  -0.0000278335  0.000318  0.000361  0.000925  0.000049
  7   -687.86898448  -0.0000016771  0.000323  0.000245  0.000491  0.000023
  8   -687.86898603  -0.0000015508  0.000038  0.000047  0.000326  0.000007
  9   -687.86898604  -0.0000000163  0.000032  0.000029  0.000122  0.000003
 10   -687.86898607  -0.0000000293  0.000007  0.000005  0.000031  0.000001
 11   -687.86898608  -0.0000000023  0.000004  0.000003  0.000018  0.000000
                  ***Gradient check signals convergence***
              ***Rediagonalizing the Fockian in SOSCF/NRSCF***

               *****************************************************
               *                     SUCCESS                       *
               *           SCF CONVERGED AFTER  12 CYCLES          *
               *****************************************************

Old exchange energy                            =    -16.777654378 Eh
New exchange energy                            =    -16.777654300 Eh
Exchange energy change after final integration =      0.000000078 Eh
Total energy after final integration           =   -687.868985997 Eh
Final COS-X integration done in                =     0.582 sec

----------------
TOTAL SCF ENERGY
----------------

Total Energy       :         -687.86898600 Eh          -18717.86671 eV

Components:
Nuclear Repulsion  :          282.66705946 Eh            7691.76173 eV
Electronic Energy  :         -970.53604546 Eh          -26409.62844 eV
One Electron Energy:        -1508.66480013 Eh          -41052.85630 eV
Two Electron Energy:          538.12875467 Eh           14643.22786 eV
Max COSX asymmetry :            0.00000645 Eh               0.00018 eV

Virial components:
Potential Energy   :        -1373.01040900 Eh          -37361.51265 eV
Kinetic Energy     :          685.14142300 Eh           18643.64594 eV
Virial Ratio       :            2.00398102


DFT components:
N(Alpha)           :       24.999977245413 electrons
N(Beta)            :       24.999977245413 electrons
N(Total)           :       49.999954490827 electrons
E(XC)              :      -43.180567161479 Eh       
DFET-embed. en.    :        0.000000000000 Eh       

---------------
SCF CONVERGENCE
---------------

  Last Energy change         ...    9.3803e-10  Tolerance :   1.0000e-08
  Last MAX-Density change    ...    5.7732e-15  Tolerance :   1.0000e-07
  Last RMS-Density change    ...    1.0421e-16  Tolerance :   5.0000e-09
  Last Orbital Gradient      ...    8.1282e-07  Tolerance :   1.0000e-05
  Last Orbital Rotation      ...    1.3323e-06  Tolerance :   1.0000e-05

             **** THE GBW FILE WAS UPDATED (C1_neg.gbw) ****
             **** DENSITY C1_neg.scfp WAS UPDATED ****
             **** ENERGY FILE WAS UPDATED (C1_neg.en.tmp) ****
             **** THE GBW FILE WAS UPDATED (C1_neg.gbw) ****
             **** DENSITY C1_neg.scfp WAS UPDATED ****
----------------
ORBITAL ENERGIES
----------------

  NO   OCC          E(Eh)            E(eV) 
   0   2.0000     -89.217783     -2427.7393 
   1   2.0000     -24.895236      -677.4338 
   2   2.0000     -19.246639      -523.7277 
   3   2.0000     -19.234425      -523.3953 
   4   2.0000     -10.347412      -281.5674 
   5   2.0000      -8.300171      -225.8591 
   6   2.0000      -6.263185      -170.4299 
   7   2.0000      -6.256716      -170.2539 
   8   2.0000      -6.255944      -170.2329 
   9   2.0000      -1.464680       -39.8560 
  10   2.0000      -1.222398       -33.2631 
  11   2.0000      -1.116612       -30.3846 
  12   2.0000      -0.916679       -24.9441 
  13   2.0000      -0.809630       -22.0312 
  14   2.0000      -0.697610       -18.9829 
  15   2.0000      -0.673288       -18.3211 
  16   2.0000      -0.651554       -17.7297 
  17   2.0000      -0.580211       -15.7883 
  18   2.0000      -0.574951       -15.6452 
  19   2.0000      -0.565076       -15.3765 
  20   2.0000      -0.529940       -14.4204 
  21   2.0000      -0.480302       -13.0697 
  22   2.0000      -0.430059       -11.7025 
  23   2.0000      -0.418292       -11.3823 
  24   2.0000      -0.398683       -10.8487 
  25   0.0000       0.116913         3.1814 
  26   0.0000       0.147331         4.0091 
  27   0.0000       0.164556         4.4778 
  28   0.0000       0.172847         4.7034 
  29   0.0000       0.185289         5.0420 
  30   0.0000       0.216147         5.8817 
  31   0.0000       0.237151         6.4532 
  32   0.0000       0.453457        12.3392 
  33   0.0000       0.496375        13.5071 
  34   0.0000       0.501484        13.6461 
  35   0.0000       0.504900        13.7390 
  36   0.0000       0.705063        19.1857 
  37   0.0000       0.708944        19.2913 
  38   0.0000       0.716444        19.4954 
  39   0.0000       0.728666        19.8280 
  40   0.0000       0.730771        19.8853 
  41   0.0000       0.766418        20.8553 
  42   0.0000       0.771095        20.9826 
  43   0.0000       0.799290        21.7498 
  44   0.0000       0.820530        22.3277 
  45   0.0000       0.940776        25.5998 
  46   0.0000       0.950700        25.8699 
  47   0.0000       1.067756        29.0551 
  48   0.0000       1.091153        29.6918 
  49   0.0000       1.097829        29.8734 
  50   0.0000       1.143100        31.1053 
  51   0.0000       1.165200        31.7067 
  52   0.0000       1.201431        32.6926 
  53   0.0000       1.220963        33.2241 
  54   0.0000       1.247059        33.9342 
  55   0.0000       1.263798        34.3897 
  56   0.0000       1.378831        37.5199 
  57   0.0000       1.382984        37.6329 
  58   0.0000       1.398462        38.0541 
  59   0.0000       1.586525        43.1715 
  60   0.0000       1.598359        43.4936 
  61   0.0000       1.612686        43.8834 
  62   0.0000       1.827573        49.7308 
  63   0.0000       1.835457        49.9453 
  64   0.0000       1.877624        51.0927 
  65   0.0000       1.925764        52.4027 
  66   0.0000       2.029677        55.2303 
  67   0.0000       2.031527        55.2807 
  68   0.0000       2.311493        62.8989 
  69   0.0000       2.492451        67.8230 
  70   0.0000       2.498022        67.9746 
  71   0.0000       2.710039        73.7439 
  72   0.0000       2.713728        73.8443 
  73   0.0000       2.729095        74.2625 
  74   0.0000       2.729616        74.2766 
  75   0.0000       2.744667        74.6862 
  76   0.0000       2.805751        76.3484 
  77   0.0000       2.852825        77.6293 
  78   0.0000       2.889790        78.6352 
  79   0.0000       2.991570        81.4047 
  80   0.0000       3.011283        81.9412 
  81   0.0000       3.025285        82.3222 
  82   0.0000       3.068882        83.5085 
  83   0.0000       3.103994        84.4640 
  84   0.0000       3.231034        87.9209 
  85   0.0000       3.287806        89.4658 
  86   0.0000       3.346175        91.0541 
  87   0.0000       3.521109        95.8142 
  88   0.0000       3.723800       101.3297 

                    ********************************
                    * MULLIKEN POPULATION ANALYSIS *
                    ********************************

-----------------------
MULLIKEN ATOMIC CHARGES
-----------------------
   0 C :   -0.096643
   1 S :    0.939472
   2 F :   -0.205642
   3 O :   -0.442031
   4 O :   -0.480053
   5 H :    0.085819
   6 H :    0.113280
   7 H :    0.085799
Sum of atomic charges:    0.0000000

--------------------------------
MULLIKEN REDUCED ORBITAL CHARGES
--------------------------------
  0 C s       :     3.043278  s :     3.043278
      pz      :     1.074299  p :     3.028229
      px      :     1.069420
      py      :     0.884510
      dz2     :     0.006963  d :     0.025136
      dxz     :     0.004772
      dyz     :     0.002285
      dx2y2   :     0.007189
      dxy     :     0.003927
  1 S s       :     5.315067  s :     5.315067
      pz      :     2.942418  p :     8.921744
      px      :     2.908146
      py      :     3.071180
      dz2     :     0.196382  d :     0.823717
      dxz     :     0.193801
      dyz     :     0.136721
      dx2y2   :     0.138044
      dxy     :     0.158770
  2 F s       :     3.908089  s :     3.908089
      pz      :     1.832636  p :     5.286435
      px      :     1.668910
      py      :     1.784890
      dz2     :     0.001471  d :     0.011118
      dxz     :     0.002432
      dyz     :     0.001398
      dx2y2   :     0.002491
      dxy     :     0.003327
  3 O s       :     3.838064  s :     3.838064
      pz      :     1.590302  p :     4.584445
      px      :     1.313714
      py      :     1.680429
      dz2     :     0.003158  d :     0.019522
      dxz     :     0.006000
      dyz     :     0.001504
      dx2y2   :     0.004665
      dxy     :     0.004196
  4 O s       :     3.855801  s :     3.855801
      pz      :     1.250199  p :     4.606387
      px      :     1.675757
      py      :     1.680431
      dz2     :     0.007505  d :     0.017864
      dxz     :     0.004613
      dyz     :     0.005022
      dx2y2   :     0.000359
      dxy     :     0.000366
  5 H s       :     0.888618  s :     0.888618
      pz      :     0.015233  p :     0.025563
      px      :     0.005300
      py      :     0.005030
  6 H s       :     0.861085  s :     0.861085
      pz      :     0.007197  p :     0.025635
      px      :     0.010582
      py      :     0.007856
  7 H s       :     0.888680  s :     0.888680
      pz      :     0.007857  p :     0.025522
      px      :     0.013263
      py      :     0.004402


                     *******************************
                     * LOEWDIN POPULATION ANALYSIS *
                     *******************************

----------------------
LOEWDIN ATOMIC CHARGES
----------------------
   0 C :   -0.156540
   1 S :    1.171468
   2 F :   -0.149743
   3 O :   -0.482304
   4 O :   -0.521748
   5 H :    0.040566
   6 H :    0.057528
   7 H :    0.040773

-------------------------------
LOEWDIN REDUCED ORBITAL CHARGES
-------------------------------
  0 C s       :     2.881446  s :     2.881446
      pz      :     1.111847  p :     3.210566
      px      :     1.106640
      py      :     0.992079
      dz2     :     0.017626  d :     0.064528
      dxz     :     0.012193
      dyz     :     0.006223
      dx2y2   :     0.017737
      dxy     :     0.010750
  1 S s       :     5.029416  s :     5.029416
      pz      :     2.905108  p :     8.728966
      px      :     2.870333
      py      :     2.953525
      dz2     :     0.259701  d :     1.070150
      dxz     :     0.255714
      dyz     :     0.162999
      dx2y2   :     0.185873
      dxy     :     0.205862
  2 F s       :     3.776931  s :     3.776931
      pz      :     1.847565  p :     5.356237
      px      :     1.709667
      py      :     1.799005
      dz2     :     0.002091  d :     0.016576
      dxz     :     0.003838
      dyz     :     0.002049
      dx2y2   :     0.003148
      dxy     :     0.005449
  3 O s       :     3.675107  s :     3.675107
      pz      :     1.642371  p :     4.776296
      px      :     1.446552
      py      :     1.687373
      dz2     :     0.003966  d :     0.030901
      dxz     :     0.011591
      dyz     :     0.001788
      dx2y2   :     0.008726
      dxy     :     0.004830
  4 O s       :     3.700001  s :     3.700001
      pz      :     1.395372  p :     4.793501
      px      :     1.703721
      py      :     1.694408
      dz2     :     0.014930  d :     0.028246
      dxz     :     0.005850
      dyz     :     0.006632
      dx2y2   :     0.000405
      dxy     :     0.000430
  5 H s       :     0.884467  s :     0.884467
      pz      :     0.042825  p :     0.074967
      px      :     0.015014
      py      :     0.017129
  6 H s       :     0.867869  s :     0.867869
      pz      :     0.019706  p :     0.074603
      px      :     0.029040
      py      :     0.025857
  7 H s       :     0.884312  s :     0.884312
      pz      :     0.021809  p :     0.074915
      px      :     0.038257
      py      :     0.014849


                      *****************************
                      * MAYER POPULATION ANALYSIS *
                      *****************************

  NA   - Mulliken gross atomic population
  ZA   - Total nuclear charge
  QA   - Mulliken gross atomic charge
  VA   - Mayer's total valence
  BVA  - Mayer's bonded valence
  FA   - Mayer's free valence

  ATOM       NA         ZA         QA         VA         BVA        FA
  0 C      6.0966     6.0000    -0.0966     3.9179     3.9179     0.0000
  1 S     15.0605    16.0000     0.9395     5.5423     5.5423     0.0000
  2 F      9.2056     9.0000    -0.2056     1.1073     1.1073     0.0000
  3 O      8.4420     8.0000    -0.4420     1.9636     1.9636     0.0000
  4 O      8.4801     8.0000    -0.4801     1.9259     1.9259     0.0000
  5 H      0.9142     1.0000     0.0858     0.9965     0.9965     0.0000
  6 H      0.8867     1.0000     0.1133     1.0021     1.0021    -0.0000
  7 H      0.9142     1.0000     0.0858     0.9975     0.9975     0.0000

  Mayer bond orders larger than 0.100000
B(  0-C ,  1-S ) :   0.9416 B(  0-C ,  5-H ) :   0.9528 B(  0-C ,  6-H ) :   0.9571 
B(  0-C ,  7-H ) :   0.9540 B(  1-S ,  2-F ) :   0.9883 B(  1-S ,  3-O ) :   1.7965 
B(  1-S ,  4-O ) :   1.7577 

-------
TIMINGS
-------

Total SCF time: 0 days 0 hours 0 min 4 sec 

Total time                  ....       4.719 sec
Sum of individual times     ....       4.568 sec  ( 96.8%)

Fock matrix formation       ....       4.053 sec  ( 85.9%)
  Split-RI-J                ....       0.319 sec  (  7.9% of F)
  Chain of spheres X        ....       3.172 sec  ( 78.3% of F)
  XC integration            ....       0.538 sec  ( 13.3% of F)
    Basis function eval.    ....       0.188 sec  ( 35.0% of XC)
    Density eval.           ....       0.090 sec  ( 16.7% of XC)
    XC-Functional eval.     ....       0.108 sec  ( 20.2% of XC)
    XC-Potential eval.      ....       0.077 sec  ( 14.3% of XC)
Diagonalization             ....       0.017 sec  (  0.3%)
Density matrix formation    ....       0.002 sec  (  0.0%)
Population analysis         ....       0.004 sec  (  0.1%)
Initial guess               ....       0.024 sec  (  0.5%)
Orbital Transformation      ....       0.000 sec  (  0.0%)
Orbital Orthonormalization  ....       0.000 sec  (  0.0%)
DIIS solution               ....       0.014 sec  (  0.3%)
SOSCF solution              ....       0.016 sec  (  0.3%)
Grid generation             ....       0.437 sec  (  9.3%)

Maximum memory used throughout the entire SCF-calculation: 46.3 MB


-------------------------------------------------------------------------------
                          DFT DISPERSION CORRECTION                            
                                                                               
                              DFTD3 V3.1  Rev 1                                
                              USING zero damping                               
-------------------------------------------------------------------------------
The omegaB97X-D3 functional is recognized. Fit by Chai et al.
Active option DFTDOPT                   ...         3   

molecular C6(AA) [au] = 915.008815 


            DFT-D V3
 parameters
 s6 scaling factor         :     1.0000 
 rs6 scaling factor        :     1.2810 
 s8 scaling factor         :     1.0000 
 rs8 scaling factor        :     1.0940 
 Damping factor alpha6     :    14.0000 
 Damping factor alpha8     :    16.0000 
 ad hoc parameters k1-k3   :    16.0000     1.3333    -4.0000 

 Edisp/kcal,au: -0.958696892423  -0.001527780583 
 E6   /kcal   :  -0.318755624 
 E8   /kcal   :  -0.639941268 
 % E8         :  66.751157017 

-------------------------   ----------------
Dispersion correction           -0.001527781
-------------------------   ----------------


-------------------------   --------------------
FINAL SINGLE POINT ENERGY      -687.870513777538
-------------------------   --------------------


                            ***************************************
                            *     ORCA property calculations      *
                            ***************************************

                                    ---------------------
                                    Active property flags
                                    ---------------------
   (+) Dipole Moment


------------------------------------------------------------------------------
                       ORCA ELECTRIC PROPERTIES CALCULATION
------------------------------------------------------------------------------

Dipole Moment Calculation                       ... on
Quadrupole Moment Calculation                   ... off
Polarizability Calculation                      ... off
GBWName                                         ... C1_neg.gbw
Electron density file                           ... C1_neg.scfp
The origin for moment calculation is the CENTER OF MASS  = ( 5.817933, -2.180425 -12.100347)

-------------
DIPOLE MOMENT
-------------
                                X             Y             Z
Electronic contribution:      0.59746       5.26031      -0.78866
Nuclear contribution   :      0.51040      -6.36905       0.21167
                        -----------------------------------------
Total Dipole Moment    :      1.10786      -1.10873      -0.57700
                        -----------------------------------------
Magnitude (a.u.)       :      1.67020
Magnitude (Debye)      :      4.24531



--------------------
Rotational spectrum 
--------------------
 
Rotational constants in cm-1:     0.163860     0.154073     0.147119 
Rotational constants in MHz :  4912.396151  4618.979177  4410.507958 

 Dipole components along the rotational axes: 
x,y,z [a.u.] :    -1.080662    -1.269794    -0.096726 
x,y,z [Debye]:    -2.746824    -3.227560    -0.245859 

 

Timings for individual modules:

Sum of individual times         ...        5.636 sec (=   0.094 min)
GTO integral calculation        ...        0.505 sec (=   0.008 min)   9.0 %
SCF iterations                  ...        5.131 sec (=   0.086 min)  91.0 %
                             ****ORCA TERMINATED NORMALLY****
TOTAL RUN TIME: 0 days 0 hours 0 minutes 6 seconds 166 msec
