
                                        *****************
                                        * O   R   C   A *
                                        *****************

                                            #,                                       
                                            ###                                      
                                            ####                                     
                                            #####                                    
                                            ######                                   
                                           ########,                                 
                                     ,,################,,,,,                         
                               ,,#################################,,                 
                          ,,##########################################,,             
                       ,#########################################, ''#####,          
                    ,#############################################,,   '####,        
                  ,##################################################,,,,####,       
                ,###########''''           ''''###############################       
              ,#####''   ,,,,##########,,,,          '''####'''          '####       
            ,##' ,,,,###########################,,,                        '##       
           ' ,,###''''                  '''############,,,                           
         ,,##''                                '''############,,,,        ,,,,,,###''
      ,#''                                            '''#######################'''  
     '                                                          ''''####''''         
             ,#######,   #######,   ,#######,      ##                                
            ,#'     '#,  ##    ##  ,#'     '#,    #''#        ######   ,####,        
            ##       ##  ##   ,#'  ##            #'  '#       #        #'  '#        
            ##       ##  #######   ##           ,######,      #####,   #    #        
            '#,     ,#'  ##    ##  '#,     ,#' ,#      #,         ##   #,  ,#        
             '#######'   ##     ##  '#######'  #'      '#     #####' # '####'        



                  #######################################################
                  #                        -***-                        #
                  #          Department of theory and spectroscopy      #
                  #    Directorship and core code : Frank Neese         #
                  #        Max Planck Institute fuer Kohlenforschung    #
                  #                Kaiser Wilhelm Platz 1               #
                  #                 D-45470 Muelheim/Ruhr               #
                  #                      Germany                        #
                  #                                                     #
                  #                  All rights reserved                #
                  #                        -***-                        #
                  #######################################################


                         Program Version 5.0.0 -  RELEASE  -
                                (SVN: $Rev: 19529$)
                ($Date: 2021-06-28 11:36:33 +0200 (Mo, 28 Jun 2021) $)


 With contributions from (in alphabetic order):
   Daniel Aravena         : Magnetic Suceptibility
   Michael Atanasov       : Ab Initio Ligand Field Theory (pilot matlab implementation)
   Alexander A. Auer      : GIAO ZORA, VPT2 properties, NMR spectrum
   Ute Becker             : Parallelization
   Giovanni Bistoni       : ED, misc. LED, open-shell LED, HFLD
   Martin Brehm           : Molecular dynamics
   Dmytro Bykov           : SCF Hessian
   Vijay G. Chilkuri      : MRCI spin determinant printing, contributions to CSF-ICE
   Dipayan Datta          : RHF DLPNO-CCSD density
   Achintya Kumar Dutta   : EOM-CC, STEOM-CC
   Dmitry Ganyushin       : Spin-Orbit,Spin-Spin,Magnetic field MRCI
   Miquel Garcia          : C-PCM Hessian, Gaussian charge scheme
   Yang Guo               : DLPNO-NEVPT2, F12-NEVPT2, CIM, IAO-localization
   Andreas Hansen         : Spin unrestricted coupled pair/coupled cluster methods
   Benjamin Helmich-Paris : MC-RPA, TRAH-SCF, COSX integrals
   Lee Huntington         : MR-EOM, pCC
   Robert Izsak           : Overlap fitted RIJCOSX, COSX-SCS-MP3, EOM
   Marcus Kettner         : VPT2
   Christian Kollmar      : KDIIS, OOCD, Brueckner-CCSD(T), CCSD density, CASPT2, CASPT2-K
   Simone Kossmann        : Meta GGA functionals, TD-DFT gradient, OOMP2, MP2 Hessian
   Martin Krupicka        : Initial AUTO-CI
   Lucas Lang             : DCDCAS
   Marvin Lechner         : AUTO-CI (C++ implementation), FIC-MRCC
   Dagmar Lenk            : GEPOL surface, SMD
   Dimitrios Liakos       : Extrapolation schemes; Compound Job, initial MDCI parallelization
   Dimitrios Manganas     : Further ROCIS development; embedding schemes
   Dimitrios Pantazis     : SARC Basis sets
   Anastasios Papadopoulos: AUTO-CI, single reference methods and gradients
   Taras Petrenko         : DFT Hessian,TD-DFT gradient, ASA, ECA, R-Raman, ABS, FL, XAS/XES, NRVS
   Peter Pinski           : DLPNO-MP2, DLPNO-MP2 Gradient
   Christoph Reimann      : Effective Core Potentials
   Marius Retegan         : Local ZFS, SOC
   Christoph Riplinger    : Optimizer, TS searches, QM/MM, DLPNO-CCSD(T), (RO)-DLPNO pert. Triples
   Tobias Risthaus        : Range-separated hybrids, TD-DFT gradient, RPA, STAB
   Michael Roemelt        : Original ROCIS implementation
   Masaaki Saitow         : Open-shell DLPNO-CCSD energy and density
   Barbara Sandhoefer     : DKH picture change effects
   Avijit Sen             : IP-ROCIS
   Kantharuban Sivalingam : CASSCF convergence, NEVPT2, FIC-MRCI
   Bernardo de Souza      : ESD, SOC TD-DFT
   Georgi Stoychev        : AutoAux, RI-MP2 NMR
   Willem Van den Heuvel  : Paramagnetic NMR
   Boris Wezisla          : Elementary symmetry handling
   Frank Wennmohs         : Technical directorship


 We gratefully acknowledge several colleagues who have allowed us to
 interface, adapt or use parts of their codes:
   Stefan Grimme, W. Hujo, H. Kruse, P. Pracht,  : VdW corrections, initial TS optimization,
                  C. Bannwarth, S. Ehlert          DFT functionals, gCP, sTDA/sTD-DF
   Ed Valeev, F. Pavosevic, A. Kumar             : LibInt (2-el integral package), F12 methods
   Garnet Chan, S. Sharma, J. Yang, R. Olivares  : DMRG
   Ulf Ekstrom                                   : XCFun DFT Library
   Mihaly Kallay                                 : mrcc  (arbitrary order and MRCC methods)
   Jiri Pittner, Ondrej Demel                    : Mk-CCSD
   Frank Weinhold                                : gennbo (NPA and NBO analysis)
   Christopher J. Cramer and Donald G. Truhlar   : smd solvation model
   Lars Goerigk                                  : TD-DFT with DH, B97 family of functionals
   V. Asgeirsson, H. Jonsson                     : NEB implementation
   FAccTs GmbH                                   : IRC, NEB, NEB-TS, DLPNO-Multilevel, CI-OPT
                                                   MM, QMMM, 2- and 3-layer-ONIOM, Crystal-QMMM,
                                                   LR-CPCM, SF, NACMEs, symmetry and pop. for TD-DFT,
                                                   nearIR, NL-DFT gradient (VV10), updates on ESD,
                                                   ML-optimized integration grids
   S Lehtola, MJT Oliveira, MAL Marques          : LibXC Library
   Liviu Ungur et al                             : ANISO software


 Your calculation uses the libint2 library for the computation of 2-el integrals
 For citations please refer to: http://libint.valeyev.net

 Your ORCA version has been built with support for libXC version: 5.1.0
 For citations please refer to: https://tddft.org/programs/libxc/

 This ORCA versions uses:
   CBLAS   interface :  Fast vector & matrix operations
   LAPACKE interface :  Fast linear algebra routines
   SCALAPACK package :  Parallel linear algebra routines
   Shared memory     :  Shared parallel matrices
   BLAS/LAPACK       :  OpenBLAS 0.3.15  USE64BITINT DYNAMIC_ARCH NO_AFFINITY Haswell SINGLE_THREADED
        Core in use  :  Haswell
   Copyright (c) 2011-2014, The OpenBLAS Project




***************************************
The coordinates will be read from file: D9.xyz
***************************************


Your calculation utilizes the atom-pairwise dispersion correction
with the zero-damping scheme (D30)
Cite in your paper:
S.Grimme, J.Antony, S.Ehrlich and H.Krieg, J.Chem.Phys., 132, (2010), 154104 
   

XCFun DFT library Copyright 2009-2010 Ulf Ekstrom and contributors.
See http://admol.org/xcfun for more information.
This is free software; see the source code for copying conditions.
There is ABSOLUTELY NO WARRANTY; not even for MERCHANTABILITY or FITNESS FOR A PARTICULAR PURPOSE.
For details see the documentation.
Scientific users of this library should cite U. Ekstrom, L. Visscher, R. Bast, A. J. Thorvaldsen and K. Ruud;
J.Chem.Theor.Comp. 2010, DOI: 10.1021/ct100117s
XCFun Version 0.99 

================================================================================

----- Orbital basis set information -----
Your calculation utilizes the basis: def2-SVP
   F. Weigend and R. Ahlrichs, Phys. Chem. Chem. Phys. 7, 3297 (2005).

----- AuxJ basis set information -----
Your calculation utilizes the auxiliary basis: def2/J
   F. Weigend, Phys. Chem. Chem. Phys. 8, 1057 (2006).

================================================================================
                                        WARNINGS
                       Please study these warnings very carefully!
================================================================================


INFO   : the flag for use of the SHARK integral package has been found!

================================================================================
                                       INPUT FILE
================================================================================
NAME = D9.com
|  1> !wB97X-D3 RIJCOSX def2-SVP def2/J TightSCF xyzfile                                                                                         
|  2> 
|  3> *xyzfile 0 1 D9.xyz
|  4> 
|  5> %MaxCore 64000
|  6> 
|  7> %pal nprocs 18
|  8> end  
|  9> 
| 10> %scf
| 11>   MaxIter 150
| 12> end
| 13> 
| 14> 
| 15>                          ****END OF INPUT****
================================================================================

                       ****************************
                       * Single Point Calculation *
                       ****************************

---------------------------------
CARTESIAN COORDINATES (ANGSTROEM)
---------------------------------
  C      4.490588    1.155899   -2.469290
  N      4.305394    1.222762   -3.908317
  C      4.906458   -3.102816   -5.954844
  C      3.511771   -2.806215   -6.492283
  H      2.736044   -3.373445   -5.973736
  H      3.444904   -3.040831   -7.555281
  S      3.004618   -1.096206   -6.389259
  C      4.631918    2.246365   -4.670958
  N      4.541686    2.143990   -5.987139
  C      5.084086    3.393584   -4.118545
  H      4.920675    3.570501   -3.135870
  H      5.254652    4.197390   -4.706956
  H      3.824530    0.449113   -4.350926
  H      4.343373    1.249318   -6.416646
  H      4.676712    2.956624   -6.574113
  O      4.128856   -0.329647   -6.953717
  O      1.781285   -1.000779   -7.136399
  C      5.942129    0.939500   -2.036893
  H      3.864305    0.328532   -2.136611
  H      4.076233    2.049994   -1.989010
  C      6.462677   -3.117775   -3.944671
  C      5.024977   -3.025679   -4.437625
  H      4.423321   -3.818693   -3.977648
  H      4.579350   -2.087131   -4.108727
  H      5.201533   -4.100207   -6.296905
  H      5.605922   -2.397822   -6.413368
  C      6.559957   -0.356290   -2.559086
  H      5.967976    0.952567   -0.942444
  H      6.547184    1.788331   -2.368849
  C      6.006283   -1.615917   -1.899301
  H      7.642360   -0.318000   -2.402059
  H      6.414855   -0.403433   -3.642587
  C      6.608718   -2.917014   -2.435655
  H      6.190324   -1.561115   -0.820948
  H      4.919250   -1.651245   -2.016586
  H      7.066975   -2.374258   -4.475514
  H      6.887808   -4.089747   -4.215332
  H      6.135197   -3.755573   -1.915159
  H      7.671142   -2.955503   -2.172291
  F      2.851546   -0.783683   -4.956789

----------------------------
CARTESIAN COORDINATES (A.U.)
----------------------------
  NO LB      ZA    FRAG     MASS         X           Y           Z
   0 C     6.0000    0    12.011    8.485982    2.184332   -4.666282
   1 N     7.0000    0    14.007    8.136015    2.310685   -7.385649
   2 C     6.0000    0    12.011    9.271862   -5.863473  -11.253025
   3 C     6.0000    0    12.011    6.636285   -5.302977  -12.268638
   4 H     1.0000    0     1.008    5.170374   -6.374888  -11.288724
   5 H     1.0000    0     1.008    6.509926   -5.746338  -14.277412
   6 S    16.0000    0    32.060    5.677904   -2.071530  -12.073950
   7 C     6.0000    0    12.011    8.753057    4.245015   -8.826831
   8 N     7.0000    0    14.007    8.582543    4.051553  -11.314052
   9 C     6.0000    0    12.011    9.607530    6.412945   -7.782923
  10 H     1.0000    0     1.008    9.298728    6.747268   -5.925936
  11 H     1.0000    0     1.008    9.929852    7.931917   -8.894858
  12 H     1.0000    0     1.008    7.227314    0.848701   -8.222058
  13 H     1.0000    0     1.008    8.207786    2.360868  -12.125704
  14 H     1.0000    0     1.008    8.837705    5.587209  -12.423274
  15 O     8.0000    0    15.999    7.802408   -0.622942  -13.140621
  16 O     8.0000    0    15.999    3.366140   -1.891199  -13.485840
  17 C     6.0000    0    12.011   11.228997    1.775397   -3.849170
  18 H     1.0000    0     1.008    7.302479    0.620836   -4.037610
  19 H     1.0000    0     1.008    7.702964    3.873927   -3.758685
  20 C     6.0000    0    12.011   12.212689   -5.891741   -7.454347
  21 C     6.0000    0    12.011    9.495831   -5.717705   -8.385896
  22 H     1.0000    0     1.008    8.358866   -7.216284   -7.516666
  23 H     1.0000    0     1.008    8.653718   -3.944106   -7.764369
  24 H     1.0000    0     1.008    9.829473   -7.748269  -11.899427
  25 H     1.0000    0     1.008   10.593657   -4.531226  -12.119509
  26 C     6.0000    0    12.011   12.396522   -0.673291   -4.835971
  27 H     1.0000    0     1.008   11.277840    1.800090   -1.780961
  28 H     1.0000    0     1.008   12.372385    3.379455   -4.476477
  29 C     6.0000    0    12.011   11.350230   -3.053641   -3.589158
  30 H     1.0000    0     1.008   14.441966   -0.600934   -4.539234
  31 H     1.0000    0     1.008   12.122318   -0.762378   -6.883492
  32 C     6.0000    0    12.011   12.488666   -5.512358   -4.602721
  33 H     1.0000    0     1.008   11.698016   -2.950080   -1.551366
  34 H     1.0000    0     1.008    9.296035   -3.120400   -3.810796
  35 H     1.0000    0     1.008   13.354648   -4.486697   -8.457496
  36 H     1.0000    0     1.008   13.016070   -7.728501   -7.965822
  37 H     1.0000    0     1.008   11.593841   -7.097005   -3.619127
  38 H     1.0000    0     1.008   14.496357   -5.585092   -4.105035
  39 F     9.0000    0    18.998    5.388641   -1.480946   -9.366974

--------------------------------
INTERNAL COORDINATES (ANGSTROEM)
--------------------------------
 C      0   0   0     0.000000000000     0.00000000     0.00000000
 N      1   0   0     1.452434888732     0.00000000     0.00000000
 C      2   1   0     4.822880648060   111.29935464     0.00000000
 C      3   2   1     1.523799819616    82.01111056   124.72570022
 H      4   3   2     1.091968299252   112.43309611   255.51929182
 H      4   3   2     1.090632873150   110.97759244   134.54655122
 S      4   3   2     1.786602224664   115.19977359    16.50892478
 C      2   1   3     1.317574833962   125.28497018   214.05519914
 N      8   2   1     1.323236350905   119.91604121   173.18858040
 C      8   2   1     1.351194480527   120.39094198   354.48825376
 H     10   8   2     1.011757151303   119.43893893   342.13916756
 H     10   8   2     1.010654769343   119.58539038   185.29571941
 H      2   1   3     1.012750840265   117.28239304    38.84614007
 H      9   8   2     1.012048706728   120.25757225   351.78674532
 H      9   8   2     1.011506480060   120.39405507   172.23609159
 O      7   4   3     1.473139212620   105.02973514    49.07238667
 O      7   4   3     1.436617023222   105.98041552   170.73821441
 C      1   2   3     1.529956533456   114.04751046    71.27147181
 H      1   2   3     1.089697165343   105.31628314   309.84494500
 H      1   2   3     1.096250554262   110.38499465   196.36075284
 C      3   2   1     2.542211031985    75.28786529   328.63877310
 C     21   3   2     1.522650424266    33.45203408    62.46988994
 H     22  21   3     1.096558425421   109.78678321   123.00138599
 H     22  21   3     1.089784085482   109.90626334   238.94967961
 H      3   2   1     1.094926392967   169.46526939   316.66150389
 H      3   2   1     1.093851646948    71.30795148   237.06279558
 C     18   1   2     1.527569327213   114.02213033   299.75436756
 H     18   1   2     1.094832037269   107.65179087   177.40351951
 H     18   1   2     1.093983651653   109.22173402    62.36298160
 C     27  18   1     1.525952470352   113.93276277   288.90034571
 H     27  18   1     1.094403426518   108.74093275   167.10616769
 H     27  18   1     1.094190161747   108.74874272    52.17399198
 C     21   3   2     1.529300762752   146.92063230    53.80488115
 H     30  27  18     1.095317124906   108.86941482   300.75108730
 H     30  27  18     1.093912987644   109.92906200    56.35085961
 H     21   3   2     1.095348999413    87.16372703   291.04892433
 H     21   3   2     1.094861915024    92.71949470   185.57163885
 H     33  21   3     1.094677724411   109.10507473    72.09358689
 H     33  21   3     1.095256828209   108.98305469   187.60350442
 F      7   4   3     1.474133937430   106.76381078   292.33403201

---------------------------
INTERNAL COORDINATES (A.U.)
---------------------------
 C      0   0   0     0.000000000000     0.00000000     0.00000000
 N      1   0   0     2.744704167055     0.00000000     0.00000000
 C      2   1   0     9.113923601421   111.29935464     0.00000000
 C      3   2   1     2.879564341994    82.01111056   124.72570022
 H      4   3   2     2.063521032510   112.43309611   255.51929182
 H      4   3   2     2.060997442905   110.97759244   134.54655122
 S      4   3   2     3.376188914869   115.19977359    16.50892478
 C      2   1   3     2.489855597135   125.28497018   214.05519914
 N      8   2   1     2.500554313659   119.91604121   173.18858040
 C      8   2   1     2.553387521862   120.39094198   354.48825376
 H     10   8   2     1.911943930000   119.43893893   342.13916756
 H     10   8   2     1.909860730000   119.58539038   185.29571941
 H      2   1   3     1.913821729999   117.28239304    38.84614007
 H      9   8   2     1.912494889904   120.25757225   351.78674532
 H      9   8   2     1.911470230000   120.39405507   172.23609159
 O      7   4   3     2.783829668993   105.02973514    49.07238667
 O      7   4   3     2.714812733219   105.98041552   170.73821441
 C      1   2   3     2.891198845036   114.04751046    71.27147181
 H      1   2   3     2.059229211409   105.31628314   309.84494500
 H      1   2   3     2.071613321715   110.38499465   196.36075284
 C      3   2   1     4.804082625084    75.28786529   328.63877310
 C     21   3   2     2.877392299561    33.45203408    62.46988994
 H     22  21   3     2.072195113889   109.78678321   123.00138599
 H     22  21   3     2.059393466667   109.90626334   238.94967961
 H      3   2   1     2.069111019509   169.46526939   316.66150389
 H      3   2   1     2.067080043870    71.30795148   237.06279558
 C     18   1   2     2.886687679010   114.02213033   299.75436756
 H     18   1   2     2.068932713082   107.65179087   177.40351951
 H     18   1   2     2.067329496612   109.22173402    62.36298160
 C     27  18   1     2.883632262346   113.93276277   288.90034571
 H     27  18   1     2.068122756144   108.74093275   167.10616769
 H     27  18   1     2.067719744133   108.74874272    52.17399198
 C     21   3   2     2.889959617997   146.92063230    53.80488115
 H     30  27  18     2.069849395866   108.86941482   300.75108730
 H     30  27  18     2.067195960987   109.92906200    56.35085961
 H     21   3   2     2.069909629955    87.16372703   291.04892433
 H     21   3   2     2.068989173855    92.71949470   185.57163885
 H     33  21   3     2.068641104040   109.10507473    72.09358689
 H     33  21   3     2.069735451623   108.98305469   187.60350442
 F      7   4   3     2.785709426462   106.76381078   292.33403201

---------------------
BASIS SET INFORMATION
---------------------
There are 6 groups of distinct atoms

 Group   1 Type C   : 7s4p1d contracted to 3s2p1d pattern {511/31/1}
 Group   2 Type N   : 7s4p1d contracted to 3s2p1d pattern {511/31/1}
 Group   3 Type H   : 4s1p contracted to 2s1p pattern {31/1}
 Group   4 Type S   : 10s7p1d contracted to 4s3p1d pattern {5311/511/1}
 Group   5 Type O   : 7s4p1d contracted to 3s2p1d pattern {511/31/1}
 Group   6 Type F   : 7s4p1d contracted to 3s2p1d pattern {511/31/1}

Atom   0C    basis set group =>   1
Atom   1N    basis set group =>   2
Atom   2C    basis set group =>   1
Atom   3C    basis set group =>   1
Atom   4H    basis set group =>   3
Atom   5H    basis set group =>   3
Atom   6S    basis set group =>   4
Atom   7C    basis set group =>   1
Atom   8N    basis set group =>   2
Atom   9C    basis set group =>   1
Atom  10H    basis set group =>   3
Atom  11H    basis set group =>   3
Atom  12H    basis set group =>   3
Atom  13H    basis set group =>   3
Atom  14H    basis set group =>   3
Atom  15O    basis set group =>   5
Atom  16O    basis set group =>   5
Atom  17C    basis set group =>   1
Atom  18H    basis set group =>   3
Atom  19H    basis set group =>   3
Atom  20C    basis set group =>   1
Atom  21C    basis set group =>   1
Atom  22H    basis set group =>   3
Atom  23H    basis set group =>   3
Atom  24H    basis set group =>   3
Atom  25H    basis set group =>   3
Atom  26C    basis set group =>   1
Atom  27H    basis set group =>   3
Atom  28H    basis set group =>   3
Atom  29C    basis set group =>   1
Atom  30H    basis set group =>   3
Atom  31H    basis set group =>   3
Atom  32C    basis set group =>   1
Atom  33H    basis set group =>   3
Atom  34H    basis set group =>   3
Atom  35H    basis set group =>   3
Atom  36H    basis set group =>   3
Atom  37H    basis set group =>   3
Atom  38H    basis set group =>   3
Atom  39F    basis set group =>   6
---------------------------------
AUXILIARY/J BASIS SET INFORMATION
---------------------------------
There are 6 groups of distinct atoms

 Group   1 Type C   : 12s5p4d2f1g contracted to 6s4p3d1f1g pattern {711111/2111/211/2/1}
 Group   2 Type N   : 12s5p4d2f1g contracted to 6s4p3d1f1g pattern {711111/2111/211/2/1}
 Group   3 Type H   : 5s2p1d contracted to 3s1p1d pattern {311/2/1}
 Group   4 Type S   : 14s5p5d2f1g contracted to 8s4p3d1f1g pattern {71111111/2111/311/2/1}
 Group   5 Type O   : 12s5p4d2f1g contracted to 6s4p3d1f1g pattern {711111/2111/211/2/1}
 Group   6 Type F   : 12s5p4d2f1g contracted to 6s4p3d1f1g pattern {711111/2111/211/2/1}

Atom   0C    basis set group =>   1
Atom   1N    basis set group =>   2
Atom   2C    basis set group =>   1
Atom   3C    basis set group =>   1
Atom   4H    basis set group =>   3
Atom   5H    basis set group =>   3
Atom   6S    basis set group =>   4
Atom   7C    basis set group =>   1
Atom   8N    basis set group =>   2
Atom   9C    basis set group =>   1
Atom  10H    basis set group =>   3
Atom  11H    basis set group =>   3
Atom  12H    basis set group =>   3
Atom  13H    basis set group =>   3
Atom  14H    basis set group =>   3
Atom  15O    basis set group =>   5
Atom  16O    basis set group =>   5
Atom  17C    basis set group =>   1
Atom  18H    basis set group =>   3
Atom  19H    basis set group =>   3
Atom  20C    basis set group =>   1
Atom  21C    basis set group =>   1
Atom  22H    basis set group =>   3
Atom  23H    basis set group =>   3
Atom  24H    basis set group =>   3
Atom  25H    basis set group =>   3
Atom  26C    basis set group =>   1
Atom  27H    basis set group =>   3
Atom  28H    basis set group =>   3
Atom  29C    basis set group =>   1
Atom  30H    basis set group =>   3
Atom  31H    basis set group =>   3
Atom  32C    basis set group =>   1
Atom  33H    basis set group =>   3
Atom  34H    basis set group =>   3
Atom  35H    basis set group =>   3
Atom  36H    basis set group =>   3
Atom  37H    basis set group =>   3
Atom  38H    basis set group =>   3
Atom  39F    basis set group =>   6


           ************************************************************
           *        Program running with 18 parallel MPI-processes    *
           *              working on a common directory               *
           ************************************************************
------------------------------------------------------------------------------
                           ORCA GTO INTEGRAL CALCULATION
                           -- RI-GTO INTEGRALS CHOSEN --
------------------------------------------------------------------------------
------------------------------------------------------------------------------
                   ___                                                        
                  /   \      - P O W E R E D   B Y -                         
                 /     \                                                     
                 |  |  |   _    _      __       _____    __    __             
                 |  |  |  | |  | |    /  \     |  _  \  |  |  /  |          
                  \  \/   | |  | |   /    \    | | | |  |  | /  /          
                 / \  \   | |__| |  /  /\  \   | |_| |  |  |/  /          
                |  |  |   |  __  | /  /__\  \  |    /   |      \           
                |  |  |   | |  | | |   __   |  |    \   |  |\   \          
                \     /   | |  | | |  |  |  |  | |\  \  |  | \   \       
                 \___/    |_|  |_| |__|  |__|  |_| \__\ |__|  \__/        
                                                                              
                      - O R C A' S   B I G   F R I E N D -                    
                                      &                                       
                       - I N T E G R A L  F E E D E R -                       
                                                                              
 v1 FN, 2020, v2 2021                                                         
------------------------------------------------------------------------------


Reading SHARK input file D9.SHARKINP.tmp ... ok
----------------------
SHARK INTEGRAL PACKAGE
----------------------

Number of atoms                             ...     40
Number of basis functions                   ...    357
Number of shells                            ...    173
Maximum angular momentum                    ...      2
Integral batch strategy                     ... SHARK/LIBINT Hybrid
RI-J (if used) integral strategy            ... SPLIT-RIJ (Revised 2003 algorithm where possible)
Printlevel                                  ...      1
Contraction scheme used                     ... SEGMENTED contraction
Coulomb Range Separation                    ... NOT USED
Exchange Range Separation                   ... Long Range
   Mu parameter                             ...  0.250000
   Scaling (regular/separated)              ...  0.195728  0.804272
Finite Nucleus Model                        ... NOT USED
Auxiliary Coulomb fitting basis             ... AVAILABLE
   # of basis functions in Aux-J            ...   1088
   # of shells in Aux-J                     ...    372
   Maximum angular momentum in Aux-J        ...      4
Auxiliary J/K fitting basis                 ... NOT available
Auxiliary Correlation fitting basis         ... NOT available
Auxiliary 'external' fitting basis          ... NOT available
Integral threshold                          ...     2.500000e-11
Primitive cut-off                           ...     2.500000e-12
Primitive pair pre-selection threshold      ...     2.500000e-12

Calculating pre-screening integrals         ... done (  0.1 sec) Dimension = 173
Organizing shell pair data                  ... done (  0.1 sec)
Shell pair information
Total number of shell pairs                 ...     15051
Shell pairs after pre-screening             ...     12195
Total number of primitive shell pairs       ...     53275
Primitive shell pairs kept                  ...     28377
          la=0 lb=0:   4115 shell pairs
          la=1 lb=0:   4678 shell pairs
          la=1 lb=1:   1338 shell pairs
          la=2 lb=0:   1268 shell pairs
          la=2 lb=1:    702 shell pairs
          la=2 lb=2:     94 shell pairs

Calculating one electron integrals          ... done (  0.0 sec)
Calculating RI/J V-Matrix + Cholesky decomp.... done (  0.4 sec)
Calculating Nuclear repulsion               ... done (  0.0 sec) ENN=   1577.324071640470 Eh

SHARK setup successfully completed in   0.7 seconds

Maximum memory used throughout the entire GTOINT-calculation: 20.5 MB


           ************************************************************
           *        Program running with 18 parallel MPI-processes    *
           *              working on a common directory               *
           ************************************************************
-------------------------------------------------------------------------------
                                 ORCA SCF
-------------------------------------------------------------------------------

------------
SCF SETTINGS
------------
Hamiltonian:
 Density Functional     Method          .... DFT(GTOs)
 Exchange Functional    Exchange        .... WB97X-D3
 Correlation Functional Correlation     .... WB97X-D3
 Gradients option       PostSCFGGA      .... off
 Hybrid DFT is turned on
   Fraction HF Exchange ScalHFX         ....  0.195728
   Scaling of DF-GGA-X  ScalDFX         ....  0.000000
   Scaling of DF-GGA-C  ScalDFC         ....  1.000000
   Scaling of DF-LDA-C  ScalLDAC        ....  1.000000
   Perturbative correction              ....  0.000000
   Density functional embedding theory  .... OFF
 Long-range corrected/Screened/Range-Separated Hybrid DFT is turned on
   Amount of maximum screened exact exchange              ....  0.804272
   Range separation parameter mu (erf(mu*r12)/r12)        ....  0.250000
 RI-approximation to the Coulomb term is turned on
   Number of AuxJ basis functions       .... 1088
   RIJ-COSX (HFX calculated with COS-X)).... on


General Settings:
 Integral files         IntName         .... D9
 Hartree-Fock type      HFTyp           .... RHF
 Total Charge           Charge          ....    0
 Multiplicity           Mult            ....    1
 Number of Electrons    NEL             ....  144
 Basis Dimension        Dim             ....  357
 Nuclear Repulsion      ENuc            ....   1577.3240716405 Eh

Convergence Acceleration:
 DIIS                   CNVDIIS         .... on
   Start iteration      DIISMaxIt       ....    12
   Startup error        DIISStart       ....  0.200000
   # of expansion vecs  DIISMaxEq       ....     5
   Bias factor          DIISBfac        ....   1.050
   Max. coefficient     DIISMaxC        ....  10.000
 Trust-Rad. Augm. Hess. CNVTRAH         .... auto
   Auto Start mean grad. ratio tolernc. ....  1.125000
   Auto Start start iteration           ....    20
   Auto Start num. interpolation iter.  ....    10
   Max. Number of Micro iterations      ....    16
   Max. Number of Macro iterations      .... Maxiter - #DIIS iter
   Number of Davidson start vectors     ....     2
   Converg. threshold I  (grad. norm)   ....   1.000e-05
   Converg. threshold II (energy diff.) ....   1.000e-08
   Grad. Scal. Fac. for Micro threshold ....   0.100
   Minimum threshold for Micro iter.    ....   0.010
   NR start threshold (gradient norm)   ....   0.001
   Initial trust radius                 ....   0.400
   Minimum AH scaling param. (alpha)    ....   1.000
   Maximum AH scaling param. (alpha)    .... 1000.000
   Orbital update algorithm             .... Taylor
   White noise on init. David. guess    .... on
   Maximum white noise                  ....   0.010
   Quad. conv. algorithm                .... NR
 SOSCF                  CNVSOSCF        .... on
   Start iteration      SOSCFMaxIt      ....   150
   Startup grad/error   SOSCFStart      ....  0.003300
 Level Shifting         CNVShift        .... on
   Level shift para.    LevelShift      ....    0.2500
   Turn off err/grad.   ShiftErr        ....    0.0010
 Zerner damping         CNVZerner       .... off
 Static damping         CNVDamp         .... on
   Fraction old density DampFac         ....    0.7000
   Max. Damping (<1)    DampMax         ....    0.9800
   Min. Damping (>=0)   DampMin         ....    0.0000
   Turn off err/grad.   DampErr         ....    0.1000
 Fernandez-Rico         CNVRico         .... off

SCF Procedure:
 Maximum # iterations   MaxIter         ....   150
 SCF integral mode      SCFMode         .... Direct
   Integral package                     .... SHARK and LIBINT hybrid scheme
 Reset frequency        DirectResetFreq ....    20
 Integral Threshold     Thresh          ....  2.500e-11 Eh
 Primitive CutOff       TCut            ....  2.500e-12 Eh

Convergence Tolerance:
 Convergence Check Mode ConvCheckMode   .... Total+1el-Energy
 Convergence forced     ConvForced      .... 0
 Energy Change          TolE            ....  1.000e-08 Eh
 1-El. energy change                    ....  1.000e-05 Eh
 Orbital Gradient       TolG            ....  1.000e-05
 Orbital Rotation angle TolX            ....  1.000e-05
 DIIS Error             TolErr          ....  5.000e-07


Diagonalization of the overlap matrix:
Smallest eigenvalue                        ... 1.163e-03
Time for diagonalization                   ...    0.031 sec
Threshold for overlap eigenvalues          ... 1.000e-08
Number of eigenvalues below threshold      ... 0
Time for construction of square roots      ...    0.048 sec
Total time needed                          ...    0.080 sec

Time for model grid setup =    0.243 sec

------------------------------
INITIAL GUESS: MODEL POTENTIAL
------------------------------
Loading Hartree-Fock densities                     ... done
Calculating cut-offs                               ... done
Initializing the effective Hamiltonian             ... done
Setting up the integral package (SHARK)            ... done
Starting the Coulomb interaction                   ... done (   0.1 sec)
Reading the grid                                   ... done
Mapping shells                                     ... done
Starting the XC term evaluation                    ... done (   0.1 sec)
  promolecular density results
     # of electrons  =    143.981473746
     EX              =   -127.653170241
     EC              =     -4.951140353
     EX+EC           =   -132.604310594
Transforming the Hamiltonian                       ... done (   0.0 sec)
Diagonalizing the Hamiltonian                      ... done (   0.0 sec)
Back transforming the eigenvectors                 ... done (   0.0 sec)
Now organizing SCF variables                       ... done
                      ------------------
                      INITIAL GUESS DONE (   0.5 sec)
                      ------------------
-------------------
DFT GRID GENERATION
-------------------

General Integration Accuracy     IntAcc      ... 4.388
Radial Grid Type                 RadialGrid  ... OptM3 with GC (2021)
Angular Grid (max. ang.)         AngularGrid ... 4 (Lebedev-302)
Angular grid pruning method      GridPruning ... 4 (adaptive)
Weight generation scheme         WeightScheme... Becke
Basis function cutoff            BFCut       ... 1.0000e-11
Integration weight cutoff        WCut        ... 1.0000e-14
Angular grids for H and He will be reduced by one unit
Partially contracted basis set               ... off
Rotationally invariant grid construction     ... off

Total number of grid points                  ...   175246
Total number of batches                      ...     2761
Average number of points per batch           ...       63
Average number of grid points per atom       ...     4381
Time for grid setup =    1.334 sec

--------------------
COSX GRID GENERATION
--------------------

GRIDX 1
-------
General Integration Accuracy     IntAcc      ... 3.816
Radial Grid Type                 RadialGrid  ... OptM3 with GC (2021)
Angular Grid (max. ang.)         AngularGrid ... 1 (Lebedev-50)
Angular grid pruning method      GridPruning ... 4 (adaptive)
Weight generation scheme         WeightScheme... Becke
Basis function cutoff            BFCut       ... 1.0000e-11
Integration weight cutoff        WCut        ... 1.0000e-14
Angular grids for H and He will be reduced by one unit
Partially contracted basis set               ... on
Rotationally invariant grid construction     ... off

Total number of grid points                  ...    22236
Total number of batches                      ...      375
Average number of points per batch           ...       59
Average number of grid points per atom       ...      556
UseSFitting                                  ... on

GRIDX 2
-------
General Integration Accuracy     IntAcc      ... 4.020
Radial Grid Type                 RadialGrid  ... OptM3 with GC (2021)
Angular Grid (max. ang.)         AngularGrid ... 2 (Lebedev-110)
Angular grid pruning method      GridPruning ... 4 (adaptive)
Weight generation scheme         WeightScheme... Becke
Basis function cutoff            BFCut       ... 1.0000e-11
Integration weight cutoff        WCut        ... 1.0000e-14
Angular grids for H and He will be reduced by one unit
Partially contracted basis set               ... on
Rotationally invariant grid construction     ... off

Total number of grid points                  ...    46723
Total number of batches                      ...      752
Average number of points per batch           ...       62
Average number of grid points per atom       ...     1168
UseSFitting                                  ... on

GRIDX 3
-------
General Integration Accuracy     IntAcc      ... 4.338
Radial Grid Type                 RadialGrid  ... OptM3 with GC (2021)
Angular Grid (max. ang.)         AngularGrid ... 3 (Lebedev-194)
Angular grid pruning method      GridPruning ... 4 (adaptive)
Weight generation scheme         WeightScheme... Becke
Basis function cutoff            BFCut       ... 1.0000e-11
Integration weight cutoff        WCut        ... 1.0000e-14
Angular grids for H and He will be reduced by one unit
Partially contracted basis set               ... on
Rotationally invariant grid construction     ... off

Total number of grid points                  ...   102086
Total number of batches                      ...     1622
Average number of points per batch           ...       62
Average number of grid points per atom       ...     2552
UseSFitting                                  ... on

Time for X-Grid setup             =    1.114 sec

--------------
SCF ITERATIONS
--------------
ITER       Energy         Delta-E        Max-DP      RMS-DP      [F,P]     Damp
               ***  Starting incremental Fock matrix formation  ***
  0  -1189.2589478173   0.000000000000 0.17794508  0.00180185  0.2779651 0.7000
  1  -1189.5576860318  -0.298738214460 0.09834328  0.00122079  0.1375947 0.7000
                               ***Turning on DIIS***
  2  -1189.6955133726  -0.137827340814 0.12742597  0.00212433  0.0716475 0.0000
  3  -1189.9203217816  -0.224808409036 0.09568128  0.00085549  0.0598223 0.0000
  4  -1189.9566089117  -0.036287130092 0.01127664  0.00018694  0.0117230 0.0000
  5  -1189.9578776657  -0.001268754037 0.00450429  0.00006403  0.0065590 0.0000
                      *** Initiating the SOSCF procedure ***
                           *** Shutting down DIIS ***
                      *** Re-Reading the Fockian *** 
                      *** Removing any level shift *** 
ITER      Energy       Delta-E        Grad      Rot      Max-DP    RMS-DP
  6  -1189.95803914  -0.0001614716  0.000547  0.000547  0.001991  0.000038
               *** Restarting incremental Fock matrix formation ***
  7  -1189.95821381  -0.0001746707  0.000216  0.000216  0.000875  0.000016
  8  -1189.95821520  -0.0000013947  0.000244  0.000239  0.000467  0.000007
  9  -1189.95821691  -0.0000017036  0.000032  0.000094  0.000181  0.000003
 10  -1189.95821694  -0.0000000364  0.000015  0.000024  0.000090  0.000001
 11  -1189.95821696  -0.0000000215  0.000004  0.000004  0.000023  0.000000
 12  -1189.95821697  -0.0000000045  0.000003  0.000001  0.000012  0.000000
                  ***Gradient check signals convergence***
              ***Rediagonalizing the Fockian in SOSCF/NRSCF***

               *****************************************************
               *                     SUCCESS                       *
               *           SCF CONVERGED AFTER  13 CYCLES          *
               *****************************************************

Old exchange energy                            =    -40.984152836 Eh
New exchange energy                            =    -40.984240798 Eh
Exchange energy change after final integration =     -0.000087962 Eh
Total energy after final integration           =  -1189.958304947 Eh
Final COS-X integration done in                =     7.542 sec

----------------
TOTAL SCF ENERGY
----------------

Total Energy       :        -1189.95830495 Eh          -32380.41167 eV

Components:
Nuclear Repulsion  :         1577.32407164 Eh           42921.17006 eV
Electronic Energy  :        -2767.28237659 Eh          -75301.58173 eV
One Electron Energy:        -4761.50350718 Eh         -129567.09749 eV
Two Electron Energy:         1994.22113059 Eh           54265.51577 eV
Max COSX asymmetry :            0.00000665 Eh               0.00018 eV

Virial components:
Potential Energy   :        -2371.82433035 Eh          -64540.62121 eV
Kinetic Energy     :         1181.86602540 Eh           32160.20954 eV
Virial Ratio       :            2.00684704


DFT components:
N(Alpha)           :       71.999764333403 electrons
N(Beta)            :       71.999764333403 electrons
N(Total)           :      143.999528666805 electrons
E(XC)              :      -94.636869580213 Eh       
DFET-embed. en.    :        0.000000000000 Eh       

---------------
SCF CONVERGENCE
---------------

  Last Energy change         ...   -1.6854e-08  Tolerance :   1.0000e-08
  Last MAX-Density change    ...    4.4409e-15  Tolerance :   1.0000e-07
  Last RMS-Density change    ...    4.1684e-17  Tolerance :   5.0000e-09
  Last Orbital Gradient      ...    5.0925e-07  Tolerance :   1.0000e-05
  Last Orbital Rotation      ...    1.0766e-06  Tolerance :   1.0000e-05

             **** THE GBW FILE WAS UPDATED (D9.gbw) ****
             **** DENSITY D9.scfp WAS UPDATED ****
             **** ENERGY FILE WAS UPDATED (D9.en.tmp) ****
             **** THE GBW FILE WAS UPDATED (D9.gbw) ****
             **** DENSITY D9.scfp WAS UPDATED ****
----------------
ORBITAL ENERGIES
----------------

  NO   OCC          E(Eh)            E(eV) 
   0   2.0000     -89.244302     -2428.4609 
   1   2.0000     -24.932449      -678.4464 
   2   2.0000     -19.274499      -524.4858 
   3   2.0000     -19.272616      -524.4345 
   4   2.0000     -14.417110      -392.3095 
   5   2.0000     -14.393195      -391.6588 
   6   2.0000     -10.369030      -282.1556 
   7   2.0000     -10.329447      -281.0785 
   8   2.0000     -10.313020      -280.6315 
   9   2.0000     -10.311628      -280.5937 
  10   2.0000     -10.310912      -280.5742 
  11   2.0000     -10.298561      -280.2381 
  12   2.0000     -10.291478      -280.0454 
  13   2.0000     -10.285374      -279.8793 
  14   2.0000     -10.277008      -279.6516 
  15   2.0000     -10.270510      -279.4748 
  16   2.0000     -10.174656      -276.8665 
  17   2.0000      -8.327384      -226.5996 
  18   2.0000      -6.290650      -171.1773 
  19   2.0000      -6.284112      -170.9994 
  20   2.0000      -6.282360      -170.9517 
  21   2.0000      -1.502977       -40.8981 
  22   2.0000      -1.254772       -34.1441 
  23   2.0000      -1.154430       -31.4136 
  24   2.0000      -1.057988       -28.7893 
  25   2.0000      -0.973569       -26.4922 
  26   2.0000      -0.968816       -26.3628 
  27   2.0000      -0.931750       -25.3542 
  28   2.0000      -0.897430       -24.4203 
  29   2.0000      -0.865299       -23.5460 
  30   2.0000      -0.843516       -22.9532 
  31   2.0000      -0.807312       -21.9681 
  32   2.0000      -0.790578       -21.5127 
  33   2.0000      -0.770126       -20.9562 
  34   2.0000      -0.746826       -20.3222 
  35   2.0000      -0.721703       -19.6385 
  36   2.0000      -0.710940       -19.3456 
  37   2.0000      -0.701150       -19.0793 
  38   2.0000      -0.684394       -18.6233 
  39   2.0000      -0.667497       -18.1635 
  40   2.0000      -0.635720       -17.2988 
  41   2.0000      -0.624586       -16.9959 
  42   2.0000      -0.618580       -16.8324 
  43   2.0000      -0.607565       -16.5327 
  44   2.0000      -0.596534       -16.2325 
  45   2.0000      -0.594088       -16.1660 
  46   2.0000      -0.574304       -15.6276 
  47   2.0000      -0.573037       -15.5931 
  48   2.0000      -0.553073       -15.0499 
  49   2.0000      -0.549108       -14.9420 
  50   2.0000      -0.537454       -14.6249 
  51   2.0000      -0.535721       -14.5777 
  52   2.0000      -0.515821       -14.0362 
  53   2.0000      -0.507906       -13.8208 
  54   2.0000      -0.495055       -13.4711 
  55   2.0000      -0.488486       -13.2924 
  56   2.0000      -0.480105       -13.0643 
  57   2.0000      -0.471483       -12.8297 
  58   2.0000      -0.465051       -12.6547 
  59   2.0000      -0.458038       -12.4638 
  60   2.0000      -0.452138       -12.3033 
  61   2.0000      -0.447016       -12.1639 
  62   2.0000      -0.443211       -12.0604 
  63   2.0000      -0.437643       -11.9089 
  64   2.0000      -0.435978       -11.8636 
  65   2.0000      -0.429480       -11.6867 
  66   2.0000      -0.424418       -11.5490 
  67   2.0000      -0.410425       -11.1682 
  68   2.0000      -0.408618       -11.1191 
  69   2.0000      -0.399537       -10.8720 
  70   2.0000      -0.317392        -8.6367 
  71   2.0000      -0.224157        -6.0996 
  72   0.0000       0.085708         2.3322 
  73   0.0000       0.115380         3.1397 
  74   0.0000       0.132030         3.5927 
  75   0.0000       0.138178         3.7600 
  76   0.0000       0.141472         3.8497 
  77   0.0000       0.151436         4.1208 
  78   0.0000       0.155122         4.2211 
  79   0.0000       0.161262         4.3882 
  80   0.0000       0.169106         4.6016 
  81   0.0000       0.183277         4.9872 
  82   0.0000       0.185586         5.0501 
  83   0.0000       0.192416         5.2359 
  84   0.0000       0.197229         5.3669 
  85   0.0000       0.204503         5.5648 
  86   0.0000       0.212196         5.7742 
  87   0.0000       0.220392         5.9972 
  88   0.0000       0.224838         6.1181 
  89   0.0000       0.226488         6.1631 
  90   0.0000       0.231452         6.2981 
  91   0.0000       0.239985         6.5303 
  92   0.0000       0.247756         6.7418 
  93   0.0000       0.254551         6.9267 
  94   0.0000       0.265109         7.2140 
  95   0.0000       0.270081         7.3493 
  96   0.0000       0.274451         7.4682 
  97   0.0000       0.288973         7.8634 
  98   0.0000       0.293560         7.9882 
  99   0.0000       0.299241         8.1428 
 100   0.0000       0.306051         8.3281 
 101   0.0000       0.311521         8.4769 
 102   0.0000       0.322868         8.7857 
 103   0.0000       0.326298         8.8790 
 104   0.0000       0.333356         9.0711 
 105   0.0000       0.343244         9.3402 
 106   0.0000       0.357468         9.7272 
 107   0.0000       0.369635        10.0583 
 108   0.0000       0.384014        10.4495 
 109   0.0000       0.421536        11.4706 
 110   0.0000       0.438666        11.9367 
 111   0.0000       0.470648        12.8070 
 112   0.0000       0.481588        13.1047 
 113   0.0000       0.492157        13.3923 
 114   0.0000       0.503567        13.7028 
 115   0.0000       0.503959        13.7134 
 116   0.0000       0.511698        13.9240 
 117   0.0000       0.521277        14.1847 
 118   0.0000       0.529446        14.4070 
 119   0.0000       0.538162        14.6441 
 120   0.0000       0.548050        14.9132 
 121   0.0000       0.564666        15.3653 
 122   0.0000       0.572942        15.5906 
 123   0.0000       0.585205        15.9242 
 124   0.0000       0.599110        16.3026 
 125   0.0000       0.609352        16.5813 
 126   0.0000       0.623332        16.9617 
 127   0.0000       0.638203        17.3664 
 128   0.0000       0.658648        17.9227 
 129   0.0000       0.666365        18.1327 
 130   0.0000       0.670480        18.2447 
 131   0.0000       0.682927        18.5834 
 132   0.0000       0.688646        18.7390 
 133   0.0000       0.693546        18.8723 
 134   0.0000       0.697787        18.9878 
 135   0.0000       0.705899        19.2085 
 136   0.0000       0.709915        19.3178 
 137   0.0000       0.712762        19.3952 
 138   0.0000       0.716838        19.5061 
 139   0.0000       0.721894        19.6437 
 140   0.0000       0.730381        19.8747 
 141   0.0000       0.736317        20.0362 
 142   0.0000       0.738295        20.0900 
 143   0.0000       0.743372        20.2282 
 144   0.0000       0.748807        20.3761 
 145   0.0000       0.756917        20.5968 
 146   0.0000       0.759938        20.6790 
 147   0.0000       0.767592        20.8872 
 148   0.0000       0.769433        20.9373 
 149   0.0000       0.774192        21.0668 
 150   0.0000       0.781349        21.2616 
 151   0.0000       0.783882        21.3305 
 152   0.0000       0.786938        21.4137 
 153   0.0000       0.792700        21.5705 
 154   0.0000       0.802950        21.8494 
 155   0.0000       0.803636        21.8681 
 156   0.0000       0.808827        22.0093 
 157   0.0000       0.813560        22.1381 
 158   0.0000       0.826364        22.4865 
 159   0.0000       0.830149        22.5895 
 160   0.0000       0.834080        22.6965 
 161   0.0000       0.841863        22.9083 
 162   0.0000       0.851458        23.1694 
 163   0.0000       0.856453        23.3053 
 164   0.0000       0.863815        23.5056 
 165   0.0000       0.878726        23.9113 
 166   0.0000       0.881930        23.9985 
 167   0.0000       0.891229        24.2516 
 168   0.0000       0.900147        24.4942 
 169   0.0000       0.916167        24.9302 
 170   0.0000       0.921042        25.0628 
 171   0.0000       0.938409        25.5354 
 172   0.0000       0.959160        26.1001 
 173   0.0000       0.967836        26.3362 
 174   0.0000       0.976492        26.5717 
 175   0.0000       0.993418        27.0323 
 176   0.0000       1.016817        27.6690 
 177   0.0000       1.020961        27.7818 
 178   0.0000       1.032345        28.0915 
 179   0.0000       1.046650        28.4808 
 180   0.0000       1.063523        28.9399 
 181   0.0000       1.067349        29.0440 
 182   0.0000       1.085041        29.5255 
 183   0.0000       1.099073        29.9073 
 184   0.0000       1.120646        30.4943 
 185   0.0000       1.128998        30.7216 
 186   0.0000       1.135793        30.9065 
 187   0.0000       1.147178        31.2163 
 188   0.0000       1.157460        31.4961 
 189   0.0000       1.175782        31.9947 
 190   0.0000       1.183090        32.1935 
 191   0.0000       1.193584        32.4791 
 192   0.0000       1.212607        32.9967 
 193   0.0000       1.227689        33.4071 
 194   0.0000       1.243914        33.8486 
 195   0.0000       1.255120        34.1535 
 196   0.0000       1.261048        34.3149 
 197   0.0000       1.277038        34.7500 
 198   0.0000       1.296746        35.2862 
 199   0.0000       1.304483        35.4968 
 200   0.0000       1.316466        35.8229 
 201   0.0000       1.344755        36.5926 
 202   0.0000       1.349678        36.7266 
 203   0.0000       1.362715        37.0814 
 204   0.0000       1.375489        37.4290 
 205   0.0000       1.384196        37.6659 
 206   0.0000       1.409121        38.3441 
 207   0.0000       1.416542        38.5461 
 208   0.0000       1.432777        38.9878 
 209   0.0000       1.440586        39.2003 
 210   0.0000       1.453205        39.5437 
 211   0.0000       1.465376        39.8749 
 212   0.0000       1.474517        40.1236 
 213   0.0000       1.487107        40.4662 
 214   0.0000       1.514767        41.2189 
 215   0.0000       1.518686        41.3256 
 216   0.0000       1.540142        41.9094 
 217   0.0000       1.550292        42.1856 
 218   0.0000       1.564499        42.5722 
 219   0.0000       1.575393        42.8686 
 220   0.0000       1.594451        43.3872 
 221   0.0000       1.635801        44.5124 
 222   0.0000       1.643633        44.7255 
 223   0.0000       1.653021        44.9810 
 224   0.0000       1.675814        45.6012 
 225   0.0000       1.703051        46.3424 
 226   0.0000       1.725776        46.9607 
 227   0.0000       1.765190        48.0333 
 228   0.0000       1.798227        48.9323 
 229   0.0000       1.809044        49.2266 
 230   0.0000       1.823240        49.6129 
 231   0.0000       1.823631        49.6235 
 232   0.0000       1.837143        49.9912 
 233   0.0000       1.840358        50.0787 
 234   0.0000       1.843709        50.1699 
 235   0.0000       1.849637        50.3312 
 236   0.0000       1.862657        50.6855 
 237   0.0000       1.872515        50.9537 
 238   0.0000       1.875750        51.0418 
 239   0.0000       1.881329        51.1936 
 240   0.0000       1.884849        51.2894 
 241   0.0000       1.899059        51.6760 
 242   0.0000       1.903580        51.7990 
 243   0.0000       1.908463        51.9319 
 244   0.0000       1.917960        52.1903 
 245   0.0000       1.923873        52.3512 
 246   0.0000       1.936832        52.7039 
 247   0.0000       1.937654        52.7262 
 248   0.0000       1.952479        53.1296 
 249   0.0000       1.955220        53.2042 
 250   0.0000       1.965399        53.4812 
 251   0.0000       1.973896        53.7124 
 252   0.0000       1.977988        53.8238 
 253   0.0000       1.980065        53.8803 
 254   0.0000       1.984227        53.9936 
 255   0.0000       1.985543        54.0294 
 256   0.0000       1.998404        54.3793 
 257   0.0000       2.006575        54.6017 
 258   0.0000       2.010610        54.7115 
 259   0.0000       2.026191        55.1355 
 260   0.0000       2.040721        55.5309 
 261   0.0000       2.046230        55.6808 
 262   0.0000       2.055469        55.9321 
 263   0.0000       2.070056        56.3291 
 264   0.0000       2.080555        56.6148 
 265   0.0000       2.085877        56.7596 
 266   0.0000       2.091218        56.9049 
 267   0.0000       2.100217        57.1498 
 268   0.0000       2.107529        57.3488 
 269   0.0000       2.127746        57.8989 
 270   0.0000       2.130517        57.9743 
 271   0.0000       2.135217        58.1022 
 272   0.0000       2.186212        59.4898 
 273   0.0000       2.188646        59.5561 
 274   0.0000       2.198289        59.8185 
 275   0.0000       2.215776        60.2943 
 276   0.0000       2.233840        60.7859 
 277   0.0000       2.256696        61.4078 
 278   0.0000       2.269277        61.7502 
 279   0.0000       2.290059        62.3157 
 280   0.0000       2.309901        62.8556 
 281   0.0000       2.334694        63.5303 
 282   0.0000       2.360096        64.2215 
 283   0.0000       2.367172        64.4140 
 284   0.0000       2.390212        65.0410 
 285   0.0000       2.409007        65.5524 
 286   0.0000       2.422671        65.9242 
 287   0.0000       2.428796        66.0909 
 288   0.0000       2.442590        66.4663 
 289   0.0000       2.450341        66.6772 
 290   0.0000       2.454190        66.7819 
 291   0.0000       2.482432        67.5504 
 292   0.0000       2.494641        67.8826 
 293   0.0000       2.517530        68.5055 
 294   0.0000       2.534302        68.9619 
 295   0.0000       2.545562        69.2683 
 296   0.0000       2.557333        69.5886 
 297   0.0000       2.560586        69.6771 
 298   0.0000       2.589218        70.4562 
 299   0.0000       2.602295        70.8121 
 300   0.0000       2.612655        71.0940 
 301   0.0000       2.646434        72.0131 
 302   0.0000       2.656581        72.2893 
 303   0.0000       2.665938        72.5439 
 304   0.0000       2.681180        72.9586 
 305   0.0000       2.686169        73.0944 
 306   0.0000       2.690392        73.2093 
 307   0.0000       2.697879        73.4130 
 308   0.0000       2.700166        73.4753 
 309   0.0000       2.713878        73.8484 
 310   0.0000       2.716686        73.9248 
 311   0.0000       2.725547        74.1659 
 312   0.0000       2.741912        74.6112 
 313   0.0000       2.758575        75.0646 
 314   0.0000       2.767774        75.3150 
 315   0.0000       2.782360        75.7119 
 316   0.0000       2.798961        76.1636 
 317   0.0000       2.825377        76.8824 
 318   0.0000       2.841544        77.3223 
 319   0.0000       2.876771        78.2809 
 320   0.0000       2.880719        78.3884 
 321   0.0000       2.904900        79.0464 
 322   0.0000       2.925225        79.5994 
 323   0.0000       2.949873        80.2701 
 324   0.0000       2.958769        80.5122 
 325   0.0000       2.971570        80.8605 
 326   0.0000       2.993975        81.4702 
 327   0.0000       3.001469        81.6741 
 328   0.0000       3.006642        81.8149 
 329   0.0000       3.014990        82.0420 
 330   0.0000       3.030091        82.4530 
 331   0.0000       3.051809        83.0439 
 332   0.0000       3.058859        83.2358 
 333   0.0000       3.064168        83.3803 
 334   0.0000       3.089996        84.0831 
 335   0.0000       3.094530        84.2064 
 336   0.0000       3.105335        84.5005 
 337   0.0000       3.124874        85.0321 
 338   0.0000       3.131971        85.2253 
 339   0.0000       3.172519        86.3286 
 340   0.0000       3.185776        86.6894 
 341   0.0000       3.191389        86.8421 
 342   0.0000       3.193841        86.9088 
 343   0.0000       3.202774        87.1519 
 344   0.0000       3.217481        87.5521 
 345   0.0000       3.223701        87.7214 
 346   0.0000       3.253099        88.5213 
 347   0.0000       3.269967        88.9803 
 348   0.0000       3.272776        89.0567 
 349   0.0000       3.303337        89.8884 
 350   0.0000       3.341503        90.9269 
 351   0.0000       3.399529        92.5059 
 352   0.0000       3.462883        94.2298 
 353   0.0000       3.513548        95.6085 
 354   0.0000       3.719725       101.2189 
 355   0.0000       3.812845       103.7528 
 356   0.0000       3.823433       104.0409 

                    ********************************
                    * MULLIKEN POPULATION ANALYSIS *
                    ********************************

-----------------------
MULLIKEN ATOMIC CHARGES
-----------------------
   0 C :    0.097898
   1 N :   -0.219605
   2 C :   -0.043181
   3 C :   -0.108974
   4 H :    0.086925
   5 H :    0.117938
   6 S :    0.989686
   7 C :    0.012445
   8 N :   -0.123234
   9 C :   -0.147008
  10 H :   -0.046245
  11 H :   -0.060213
  12 H :    0.099279
  13 H :    0.103145
  14 H :    0.127072
  15 O :   -0.466447
  16 O :   -0.410527
  17 C :    0.014033
  18 H :    0.001607
  19 H :    0.036976
  20 C :   -0.044544
  21 C :   -0.071977
  22 H :    0.025758
  23 H :   -0.007211
  24 H :    0.052899
  25 H :    0.064742
  26 C :   -0.055833
  27 H :    0.009345
  28 H :    0.038889
  29 C :   -0.066609
  30 H :    0.021346
  31 H :    0.017511
  32 C :    0.016005
  33 H :    0.021116
  34 H :    0.009483
  35 H :    0.034275
  36 H :    0.024102
  37 H :    0.016787
  38 H :    0.025274
  39 F :   -0.192928
Sum of atomic charges:   -0.0000000

--------------------------------
MULLIKEN REDUCED ORBITAL CHARGES
--------------------------------
  0 C s       :     2.988013  s :     2.988013
      pz      :     0.816945  p :     2.863001
      px      :     1.010174
      py      :     1.035882
      dz2     :     0.015782  d :     0.051088
      dxz     :     0.012980
      dyz     :     0.008052
      dx2y2   :     0.005557
      dxy     :     0.008718
  1 N s       :     3.317209  s :     3.317209
      pz      :     1.095189  p :     3.880500
      px      :     1.592781
      py      :     1.192530
      dz2     :     0.005146  d :     0.021896
      dxz     :     0.003812
      dyz     :     0.007484
      dx2y2   :     0.002260
      dxy     :     0.003195
  2 C s       :     3.035681  s :     3.035681
      pz      :     0.990483  p :     2.971820
      px      :     0.937214
      py      :     1.044123
      dz2     :     0.008382  d :     0.035680
      dxz     :     0.007935
      dyz     :     0.007032
      dx2y2   :     0.006613
      dxy     :     0.005718
  3 C s       :     3.082504  s :     3.082504
      pz      :     1.087542  p :     2.991709
      px      :     1.038854
      py      :     0.865313
      dz2     :     0.008955  d :     0.034761
      dxz     :     0.006107
      dyz     :     0.002006
      dx2y2   :     0.009218
      dxy     :     0.008475
  4 H s       :     0.889962  s :     0.889962
      pz      :     0.006839  p :     0.023113
      px      :     0.009141
      py      :     0.007132
  5 H s       :     0.858818  s :     0.858818
      pz      :     0.015148  p :     0.023244
      px      :     0.003939
      py      :     0.004156
  6 S s       :     5.275258  s :     5.275258
      pz      :     2.847666  p :     8.917721
      px      :     2.963738
      py      :     3.106317
      dz2     :     0.205193  d :     0.817335
      dxz     :     0.172463
      dyz     :     0.097829
      dx2y2   :     0.178710
      dxy     :     0.163140
  7 C s       :     2.989023  s :     2.989023
      pz      :     0.920591  p :     2.901344
      px      :     0.924508
      py      :     1.056245
      dz2     :     0.021163  d :     0.097189
      dxz     :     0.023383
      dyz     :     0.022339
      dx2y2   :     0.015188
      dxy     :     0.015116
  8 N s       :     3.259975  s :     3.259975
      pz      :     1.048146  p :     3.848024
      px      :     1.739266
      py      :     1.060613
      dz2     :     0.004762  d :     0.015235
      dxz     :     0.002830
      dyz     :     0.005473
      dx2y2   :     0.001740
      dxy     :     0.000429
  9 C s       :     3.009921  s :     3.009921
      pz      :     0.845646  p :     3.113422
      px      :     1.346886
      py      :     0.920890
      dz2     :     0.005442  d :     0.023666
      dxz     :     0.002097
      dyz     :     0.008054
      dx2y2   :     0.004289
      dxy     :     0.003784
 10 H s       :     1.015375  s :     1.015375
      pz      :     0.015513  p :     0.030870
      px      :     0.009398
      py      :     0.005959
 11 H s       :     1.030109  s :     1.030109
      pz      :     0.008889  p :     0.030104
      px      :     0.009448
      py      :     0.011767
 12 H s       :     0.853272  s :     0.853272
      pz      :     0.009823  p :     0.047449
      px      :     0.017537
      py      :     0.020089
 13 H s       :     0.843363  s :     0.843363
      pz      :     0.011657  p :     0.053492
      px      :     0.014483
      py      :     0.027351
 14 H s       :     0.827844  s :     0.827844
      pz      :     0.012809  p :     0.045085
      px      :     0.013243
      py      :     0.019033
 15 O s       :     3.850468  s :     3.850468
      pz      :     1.584810  p :     4.598697
      px      :     1.435377
      py      :     1.578510
      dz2     :     0.002500  d :     0.017282
      dxz     :     0.004116
      dyz     :     0.002266
      dx2y2   :     0.003983
      dxy     :     0.004417
 16 O s       :     3.838866  s :     3.838866
      pz      :     1.474502  p :     4.551900
      px      :     1.396750
      py      :     1.680648
      dz2     :     0.003552  d :     0.019761
      dxz     :     0.006195
      dyz     :     0.001755
      dx2y2   :     0.004297
      dxy     :     0.003961
 17 C s       :     2.996166  s :     2.996166
      pz      :     0.971944  p :     2.955006
      px      :     0.987441
      py      :     0.995622
      dz2     :     0.010292  d :     0.034795
      dxz     :     0.003424
      dyz     :     0.003915
      dx2y2   :     0.007658
      dxy     :     0.009507
 18 H s       :     0.976273  s :     0.976273
      pz      :     0.003945  p :     0.022120
      px      :     0.007438
      py      :     0.010737
 19 H s       :     0.941168  s :     0.941168
      pz      :     0.004349  p :     0.021856
      px      :     0.005444
      py      :     0.012063
 20 C s       :     3.026722  s :     3.026722
      pz      :     1.000607  p :     2.981554
      px      :     0.963172
      py      :     1.017775
      dz2     :     0.008444  d :     0.036268
      dxz     :     0.007819
      dyz     :     0.006187
      dx2y2   :     0.006109
      dxy     :     0.007708
 21 C s       :     3.036767  s :     3.036767
      pz      :     0.948094  p :     2.998740
      px      :     1.032301
      py      :     1.018345
      dz2     :     0.009514  d :     0.036469
      dxz     :     0.006766
      dyz     :     0.006075
      dx2y2   :     0.005274
      dxy     :     0.008841
 22 H s       :     0.952149  s :     0.952149
      pz      :     0.005480  p :     0.022092
      px      :     0.006560
      py      :     0.010052
 23 H s       :     0.982981  s :     0.982981
      pz      :     0.005719  p :     0.024230
      px      :     0.005735
      py      :     0.012776
 24 H s       :     0.924328  s :     0.924328
      pz      :     0.004856  p :     0.022772
      px      :     0.004878
      py      :     0.013038
 25 H s       :     0.912134  s :     0.912134
      pz      :     0.005607  p :     0.023125
      px      :     0.007967
      py      :     0.009551
 26 C s       :     3.038285  s :     3.038285
      pz      :     1.017124  p :     2.981473
      px      :     1.007793
      py      :     0.956557
      dz2     :     0.010793  d :     0.036075
      dxz     :     0.002142
      dyz     :     0.006415
      dx2y2   :     0.010530
      dxy     :     0.006194
 27 H s       :     0.967968  s :     0.967968
      pz      :     0.014105  p :     0.022687
      px      :     0.004227
      py      :     0.004355
 28 H s       :     0.937713  s :     0.937713
      pz      :     0.005968  p :     0.023398
      px      :     0.006591
      py      :     0.010839
 29 C s       :     3.037778  s :     3.037778
      pz      :     1.020582  p :     2.992311
      px      :     1.008345
      py      :     0.963385
      dz2     :     0.010869  d :     0.036520
      dxz     :     0.002039
      dyz     :     0.006215
      dx2y2   :     0.011026
      dxy     :     0.006371
 30 H s       :     0.956273  s :     0.956273
      pz      :     0.004958  p :     0.022381
      px      :     0.013776
      py      :     0.003647
 31 H s       :     0.959197  s :     0.959197
      pz      :     0.014321  p :     0.023292
      px      :     0.005085
      py      :     0.003886
 32 C s       :     2.995010  s :     2.995010
      pz      :     0.961296  p :     2.952778
      px      :     1.003871
      py      :     0.987611
      dz2     :     0.009058  d :     0.036206
      dxz     :     0.004980
      dyz     :     0.008798
      dx2y2   :     0.008080
      dxy     :     0.005291
 33 H s       :     0.956647  s :     0.956647
      pz      :     0.013710  p :     0.022237
      px      :     0.004910
      py      :     0.003617
 34 H s       :     0.967572  s :     0.967572
      pz      :     0.005051  p :     0.022945
      px      :     0.013940
      py      :     0.003954
 35 H s       :     0.942980  s :     0.942980
      pz      :     0.005859  p :     0.022745
      px      :     0.007086
      py      :     0.009799
 36 H s       :     0.953475  s :     0.953475
      pz      :     0.004464  p :     0.022423
      px      :     0.005565
      py      :     0.012394
 37 H s       :     0.960796  s :     0.960796
      pz      :     0.006153  p :     0.022418
      px      :     0.006508
      py      :     0.009757
 38 H s       :     0.952343  s :     0.952343
      pz      :     0.004525  p :     0.022383
      px      :     0.013621
      py      :     0.004237
 39 F s       :     3.909600  s :     3.909600
      pz      :     1.534958  p :     5.272315
      px      :     1.878022
      py      :     1.859335
      dz2     :     0.005129  d :     0.011013
      dxz     :     0.002512
      dyz     :     0.002821
      dx2y2   :     0.000236
      dxy     :     0.000315


                     *******************************
                     * LOEWDIN POPULATION ANALYSIS *
                     *******************************

----------------------
LOEWDIN ATOMIC CHARGES
----------------------
   0 C :    0.042691
   1 N :   -0.042195
   2 C :   -0.050271
   3 C :   -0.137489
   4 H :    0.040333
   5 H :    0.060462
   6 S :    1.190161
   7 C :    0.044560
   8 N :   -0.035609
   9 C :   -0.291278
  10 H :   -0.014133
  11 H :   -0.013585
  12 H :    0.022934
  13 H :    0.019892
  14 H :    0.080610
  15 O :   -0.465888
  16 O :   -0.460136
  17 C :   -0.044624
  18 H :    0.013973
  19 H :    0.022680
  20 C :   -0.038361
  21 C :   -0.047462
  22 H :    0.024919
  23 H :    0.004691
  24 H :    0.039410
  25 H :    0.036403
  26 C :   -0.042755
  27 H :    0.020792
  28 H :    0.032889
  29 C :   -0.043998
  30 H :    0.024696
  31 H :    0.015273
  32 C :   -0.035994
  33 H :    0.025192
  34 H :    0.010504
  35 H :    0.024841
  36 H :    0.024985
  37 H :    0.021665
  38 H :    0.025926
  39 F :   -0.106708

-------------------------------
LOEWDIN REDUCED ORBITAL CHARGES
-------------------------------
  0 C s       :     2.822390  s :     2.822390
      pz      :     0.892950  p :     3.013772
      px      :     1.049389
      py      :     1.071434
      dz2     :     0.037787  d :     0.121146
      dxz     :     0.029092
      dyz     :     0.018426
      dx2y2   :     0.015294
      dxy     :     0.020546
  1 N s       :     3.015655  s :     3.015655
      pz      :     1.161750  p :     3.970507
      px      :     1.553592
      py      :     1.255165
      dz2     :     0.014918  d :     0.056033
      dxz     :     0.008582
      dyz     :     0.019750
      dx2y2   :     0.005271
      dxy     :     0.007512
  2 C s       :     2.832819  s :     2.832819
      pz      :     1.040864  p :     3.128017
      px      :     1.008230
      py      :     1.078922
      dz2     :     0.022872  d :     0.089435
      dxz     :     0.019061
      dyz     :     0.014854
      dx2y2   :     0.017410
      dxy     :     0.015238
  3 C s       :     2.894938  s :     2.894938
      pz      :     1.103998  p :     3.159223
      px      :     1.083029
      py      :     0.972196
      dz2     :     0.021569  d :     0.083328
      dxz     :     0.014714
      dyz     :     0.005511
      dx2y2   :     0.022338
      dxy     :     0.019197
  4 H s       :     0.886934  s :     0.886934
      pz      :     0.020134  p :     0.072733
      px      :     0.028748
      py      :     0.023852
  5 H s       :     0.867032  s :     0.867032
      pz      :     0.044400  p :     0.072505
      px      :     0.013699
      py      :     0.014406
  6 S s       :     5.026171  s :     5.026171
      pz      :     2.812662  p :     8.721800
      px      :     2.916942
      py      :     2.992196
      dz2     :     0.279673  d :     1.061868
      dxz     :     0.228273
      dyz     :     0.120587
      dx2y2   :     0.229194
      dxy     :     0.204140
  7 C s       :     2.793824  s :     2.793824
      pz      :     0.973751  p :     2.935608
      px      :     0.918105
      py      :     1.043751
      dz2     :     0.053340  d :     0.226009
      dxz     :     0.050842
      dyz     :     0.055848
      dx2y2   :     0.033416
      dxy     :     0.032563
  8 N s       :     3.003085  s :     3.003085
      pz      :     1.145310  p :     3.989459
      px      :     1.661431
      py      :     1.182717
      dz2     :     0.013808  d :     0.043065
      dxz     :     0.005913
      dyz     :     0.018289
      dx2y2   :     0.004168
      dxy     :     0.000887
  9 C s       :     2.823937  s :     2.823937
      pz      :     1.046612  p :     3.397821
      px      :     1.307532
      py      :     1.043678
      dz2     :     0.018404  d :     0.069519
      dxz     :     0.005059
      dyz     :     0.025670
      dx2y2   :     0.010549
      dxy     :     0.009837
 10 H s       :     0.922272  s :     0.922272
      pz      :     0.040386  p :     0.091861
      px      :     0.033916
      py      :     0.017559
 11 H s       :     0.924321  s :     0.924321
      pz      :     0.023999  p :     0.089264
      px      :     0.032769
      py      :     0.032496
 12 H s       :     0.823386  s :     0.823386
      pz      :     0.031082  p :     0.153680
      px      :     0.058192
      py      :     0.064405
 13 H s       :     0.807552  s :     0.807552
      pz      :     0.031303  p :     0.172555
      px      :     0.046831
      py      :     0.094421
 14 H s       :     0.795944  s :     0.795944
      pz      :     0.031286  p :     0.123446
      px      :     0.042636
      py      :     0.049524
 15 O s       :     3.668451  s :     3.668451
      pz      :     1.630280  p :     4.769150
      px      :     1.531869
      py      :     1.607002
      dz2     :     0.003537  d :     0.028286
      dxz     :     0.006872
      dyz     :     0.003655
      dx2y2   :     0.005601
      dxy     :     0.008621
 16 O s       :     3.674300  s :     3.674300
      pz      :     1.547628  p :     4.754327
      px      :     1.514677
      py      :     1.692021
      dz2     :     0.004208  d :     0.031509
      dxz     :     0.012357
      dyz     :     0.002062
      dx2y2   :     0.008119
      dxy     :     0.004763
 17 C s       :     2.834094  s :     2.834094
      pz      :     1.047200  p :     3.123160
      px      :     1.034862
      py      :     1.041098
      dz2     :     0.026411  d :     0.087370
      dxz     :     0.008938
      dyz     :     0.009305
      dx2y2   :     0.019797
      dxy     :     0.022919
 18 H s       :     0.920496  s :     0.920496
      pz      :     0.012874  p :     0.065531
      px      :     0.023077
      py      :     0.029580
 19 H s       :     0.910907  s :     0.910907
      pz      :     0.015412  p :     0.066412
      px      :     0.017567
      py      :     0.033433
 20 C s       :     2.829229  s :     2.829229
      pz      :     1.035256  p :     3.119358
      px      :     1.019984
      py      :     1.064118
      dz2     :     0.022541  d :     0.089774
      dxz     :     0.018472
      dyz     :     0.014235
      dx2y2   :     0.016587
      dxy     :     0.017938
 21 C s       :     2.828089  s :     2.828089
      pz      :     1.010139  p :     3.128747
      px      :     1.052462
      py      :     1.066146
      dz2     :     0.025562  d :     0.090626
      dxz     :     0.016536
      dyz     :     0.013693
      dx2y2   :     0.014264
      dxy     :     0.020570
 22 H s       :     0.908464  s :     0.908464
      pz      :     0.017964  p :     0.066618
      px      :     0.021607
      py      :     0.027047
 23 H s       :     0.924868  s :     0.924868
      pz      :     0.017197  p :     0.070441
      px      :     0.018909
      py      :     0.034335
 24 H s       :     0.893228  s :     0.893228
      pz      :     0.016109  p :     0.067362
      px      :     0.014978
      py      :     0.036275
 25 H s       :     0.894053  s :     0.894053
      pz      :     0.018330  p :     0.069543
      px      :     0.025005
      py      :     0.026208
 26 C s       :     2.828918  s :     2.828918
      pz      :     1.058167  p :     3.124216
      px      :     1.052731
      py      :     1.013318
      dz2     :     0.026968  d :     0.089621
      dxz     :     0.005163
      dyz     :     0.015587
      dx2y2   :     0.026435
      dxy     :     0.015468
 27 H s       :     0.912466  s :     0.912466
      pz      :     0.039408  p :     0.066742
      px      :     0.013945
      py      :     0.013389
 28 H s       :     0.897369  s :     0.897369
      pz      :     0.016325  p :     0.069742
      px      :     0.021544
      py      :     0.031873
 29 C s       :     2.830558  s :     2.830558
      pz      :     1.054373  p :     3.123300
      px      :     1.051445
      py      :     1.017482
      dz2     :     0.026791  d :     0.090139
      dxz     :     0.005003
      dyz     :     0.015599
      dx2y2   :     0.027646
      dxy     :     0.015101
 30 H s       :     0.908762  s :     0.908762
      pz      :     0.014153  p :     0.066542
      px      :     0.039141
      py      :     0.013247
 31 H s       :     0.915858  s :     0.915858
      pz      :     0.040631  p :     0.068869
      px      :     0.014443
      py      :     0.013795
 32 C s       :     2.830458  s :     2.830458
      pz      :     1.019108  p :     3.115876
      px      :     1.059144
      py      :     1.037625
      dz2     :     0.024241  d :     0.089660
      dxz     :     0.011514
      dyz     :     0.020224
      dx2y2   :     0.020501
      dxy     :     0.013179
 33 H s       :     0.908455  s :     0.908455
      pz      :     0.039103  p :     0.066353
      px      :     0.013964
      py      :     0.013286
 34 H s       :     0.921535  s :     0.921535
      pz      :     0.014470  p :     0.067961
      px      :     0.039440
      py      :     0.014051
 35 H s       :     0.907713  s :     0.907713
      pz      :     0.019692  p :     0.067445
      px      :     0.021377
      py      :     0.026376
 36 H s       :     0.908524  s :     0.908524
      pz      :     0.015482  p :     0.066491
      px      :     0.017086
      py      :     0.033923
 37 H s       :     0.911977  s :     0.911977
      pz      :     0.019277  p :     0.066358
      px      :     0.018101
      py      :     0.028981
 38 H s       :     0.907897  s :     0.907897
      pz      :     0.014622  p :     0.066177
      px      :     0.038352
      py      :     0.013203
 39 F s       :     3.761244  s :     3.761244
      pz      :     1.598598  p :     5.328564
      px      :     1.877080
      py      :     1.852885
      dz2     :     0.008796  d :     0.016901
      dxz     :     0.003404
      dyz     :     0.003903
      dx2y2   :     0.000311
      dxy     :     0.000486


                      *****************************
                      * MAYER POPULATION ANALYSIS *
                      *****************************

  NA   - Mulliken gross atomic population
  ZA   - Total nuclear charge
  QA   - Mulliken gross atomic charge
  VA   - Mayer's total valence
  BVA  - Mayer's bonded valence
  FA   - Mayer's free valence

  ATOM       NA         ZA         QA         VA         BVA        FA
  0 C      5.9021     6.0000     0.0979     4.0557     4.0557    -0.0000
  1 N      7.2196     7.0000    -0.2196     3.1549     3.1549     0.0000
  2 C      6.0432     6.0000    -0.0432     3.9768     3.9768     0.0000
  3 C      6.1090     6.0000    -0.1090     3.9203     3.9203     0.0000
  4 H      0.9131     1.0000     0.0869     0.9895     0.9895     0.0000
  5 H      0.8821     1.0000     0.1179     0.9910     0.9910    -0.0000
  6 S     15.0103    16.0000     0.9897     5.4165     5.4165    -0.0000
  7 C      5.9876     6.0000     0.0124     4.3638     4.3638     0.0000
  8 N      7.1232     7.0000    -0.1232     3.1645     3.1645    -0.0000
  9 C      6.1470     6.0000    -0.1470     3.7683     3.7683     0.0000
 10 H      1.0462     1.0000    -0.0462     0.9904     0.9904     0.0000
 11 H      1.0602     1.0000    -0.0602     0.9947     0.9947    -0.0000
 12 H      0.9007     1.0000     0.0993     1.0455     1.0455     0.0000
 13 H      0.8969     1.0000     0.1031     1.0797     1.0797    -0.0000
 14 H      0.8729     1.0000     0.1271     0.9994     0.9994     0.0000
 15 O      8.4664     8.0000    -0.4664     1.9491     1.9491    -0.0000
 16 O      8.4105     8.0000    -0.4105     2.0147     2.0147    -0.0000
 17 C      5.9860     6.0000     0.0140     3.9949     3.9949    -0.0000
 18 H      0.9984     1.0000     0.0016     0.9880     0.9880    -0.0000
 19 H      0.9630     1.0000     0.0370     0.9835     0.9835    -0.0000
 20 C      6.0445     6.0000    -0.0445     4.0533     4.0533    -0.0000
 21 C      6.0720     6.0000    -0.0720     4.0194     4.0194    -0.0000
 22 H      0.9742     1.0000     0.0258     0.9799     0.9799     0.0000
 23 H      1.0072     1.0000    -0.0072     1.0198     1.0198     0.0000
 24 H      0.9471     1.0000     0.0529     0.9829     0.9829     0.0000
 25 H      0.9353     1.0000     0.0647     1.0053     1.0053     0.0000
 26 C      6.0558     6.0000    -0.0558     4.0299     4.0299    -0.0000
 27 H      0.9907     1.0000     0.0093     0.9849     0.9849    -0.0000
 28 H      0.9611     1.0000     0.0389     1.0179     1.0179     0.0000
 29 C      6.0666     6.0000    -0.0666     4.0323     4.0323    -0.0000
 30 H      0.9787     1.0000     0.0213     0.9811     0.9811    -0.0000
 31 H      0.9825     1.0000     0.0175     1.0043     1.0043    -0.0000
 32 C      5.9840     6.0000     0.0160     4.0513     4.0513    -0.0000
 33 H      0.9789     1.0000     0.0211     0.9822     0.9822     0.0000
 34 H      0.9905     1.0000     0.0095     0.9875     0.9875    -0.0000
 35 H      0.9657     1.0000     0.0343     0.9898     0.9898     0.0000
 36 H      0.9759     1.0000     0.0241     0.9801     0.9801    -0.0000
 37 H      0.9832     1.0000     0.0168     0.9794     0.9794    -0.0000
 38 H      0.9747     1.0000     0.0253     0.9820     0.9820    -0.0000
 39 F      9.1929     9.0000    -0.1929     1.1326     1.1326    -0.0000

  Mayer bond orders larger than 0.100000
B(  0-C ,  1-N ) :   1.0090 B(  0-C , 17-C ) :   1.0613 B(  0-C , 18-H ) :   0.9565 
B(  0-C , 19-H ) :   0.9468 B(  1-N ,  7-C ) :   1.1604 B(  1-N , 12-H ) :   0.9206 
B(  2-C ,  3-C ) :   1.0218 B(  2-C , 21-C ) :   1.0575 B(  2-C , 24-H ) :   0.9379 
B(  2-C , 25-H ) :   0.9455 B(  3-C ,  4-H ) :   0.9304 B(  3-C ,  5-H ) :   0.9301 
B(  3-C ,  6-S ) :   0.9233 B(  6-S , 15-O ) :   1.6531 B(  6-S , 16-O ) :   1.8323 
B(  6-S , 39-F ) :   0.9380 B(  7-C ,  8-N ) :   1.2660 B(  7-C ,  9-C ) :   1.7129 
B(  8-N , 13-H ) :   0.9085 B(  8-N , 14-H ) :   0.9435 B(  9-C , 10-H ) :   0.9385 
B(  9-C , 11-H ) :   0.9501 B( 13-H , 15-O ) :   0.1084 B( 17-C , 26-C ) :   1.0747 
B( 17-C , 27-H ) :   0.9453 B( 17-C , 28-H ) :   0.9349 B( 20-C , 21-C ) :   1.0619 
B( 20-C , 32-C ) :   1.0751 B( 20-C , 35-H ) :   0.9492 B( 20-C , 36-H ) :   0.9475 
B( 21-C , 22-H ) :   0.9461 B( 21-C , 23-H ) :   0.9438 B( 26-C , 29-C ) :   1.0489 
B( 26-C , 30-H ) :   0.9505 B( 26-C , 31-H ) :   0.9417 B( 29-C , 32-C ) :   1.0791 
B( 29-C , 33-H ) :   0.9439 B( 29-C , 34-H ) :   0.9459 B( 32-C , 37-H ) :   0.9480 
B( 32-C , 38-H ) :   0.9472 

-------
TIMINGS
-------

Total SCF time: 0 days 0 hours 0 min 50 sec 

Total time                  ....      50.412 sec
Sum of individual times     ....      49.846 sec  ( 98.9%)

Fock matrix formation       ....      46.183 sec  ( 91.6%)
  Split-RI-J                ....       2.996 sec  (  6.5% of F)
  Chain of spheres X        ....      40.149 sec  ( 86.9% of F)
  XC integration            ....       2.878 sec  (  6.2% of F)
    Basis function eval.    ....       0.994 sec  ( 34.5% of XC)
    Density eval.           ....       0.622 sec  ( 21.6% of XC)
    XC-Functional eval.     ....       0.223 sec  (  7.7% of XC)
    XC-Potential eval.      ....       0.439 sec  ( 15.2% of XC)
Diagonalization             ....       0.272 sec  (  0.5%)
Density matrix formation    ....       0.027 sec  (  0.1%)
Population analysis         ....       0.032 sec  (  0.1%)
Initial guess               ....       0.300 sec  (  0.6%)
Orbital Transformation      ....       0.000 sec  (  0.0%)
Orbital Orthonormalization  ....       0.000 sec  (  0.0%)
DIIS solution               ....       0.143 sec  (  0.3%)
SOSCF solution              ....       0.198 sec  (  0.4%)
Grid generation             ....       2.691 sec  (  5.3%)

Maximum memory used throughout the entire SCF-calculation: 79.2 MB


-------------------------------------------------------------------------------
                          DFT DISPERSION CORRECTION                            
                                                                               
                              DFTD3 V3.1  Rev 1                                
                              USING zero damping                               
-------------------------------------------------------------------------------
The omegaB97X-D3 functional is recognized. Fit by Chai et al.
Active option DFTDOPT                   ...         3   

molecular C6(AA) [au] = 13772.218717 


            DFT-D V3
 parameters
 s6 scaling factor         :     1.0000 
 rs6 scaling factor        :     1.2810 
 s8 scaling factor         :     1.0000 
 rs8 scaling factor        :     1.0940 
 Damping factor alpha6     :    14.0000 
 Damping factor alpha8     :    16.0000 
 ad hoc parameters k1-k3   :    16.0000     1.3333    -4.0000 

 Edisp/kcal,au: -13.648801456512  -0.021750747303 
 E6   /kcal   :  -6.357112884 
 E8   /kcal   :  -7.291688572 
 % E8         :  53.423654784 

-------------------------   ----------------
Dispersion correction           -0.021750747
-------------------------   ----------------


-------------------------   --------------------
FINAL SINGLE POINT ENERGY     -1189.980055694726
-------------------------   --------------------


                            ***************************************
                            *     ORCA property calculations      *
                            ***************************************

                                    ---------------------
                                    Active property flags
                                    ---------------------
   (+) Dipole Moment


------------------------------------------------------------------------------
                       ORCA ELECTRIC PROPERTIES CALCULATION
------------------------------------------------------------------------------

Dipole Moment Calculation                       ... on
Quadrupole Moment Calculation                   ... off
Polarizability Calculation                      ... off
GBWName                                         ... D9.gbw
Electron density file                           ... D9.scfp
The origin for moment calculation is the CENTER OF MASS  = ( 8.539747, -1.087329 -8.832600)

-------------
DIPOLE MOMENT
-------------
                                X             Y             Z
Electronic contribution:    -19.10992       1.78020     -17.98083
Nuclear contribution   :     18.85717      -4.60195      17.96505
                        -----------------------------------------
Total Dipole Moment    :     -0.25275      -2.82175      -0.01578
                        -----------------------------------------
Magnitude (a.u.)       :      2.83309
Magnitude (Debye)      :      7.20114



--------------------
Rotational spectrum 
--------------------
 
Rotational constants in cm-1:     0.014436     0.012382     0.007563 
Rotational constants in MHz :   432.785702   371.214592   226.743759 

 Dipole components along the rotational axes: 
x,y,z [a.u.] :    -1.035034     2.588554     0.504471 
x,y,z [Debye]:    -2.630849     6.579581     1.282263 

 

Timings for individual modules:

Sum of individual times         ...       51.998 sec (=   0.867 min)
GTO integral calculation        ...        1.171 sec (=   0.020 min)   2.3 %
SCF iterations                  ...       50.827 sec (=   0.847 min)  97.7 %
                             ****ORCA TERMINATED NORMALLY****
TOTAL RUN TIME: 0 days 0 hours 0 minutes 52 seconds 648 msec
