
                                        *****************
                                        * O   R   C   A *
                                        *****************

                                            #,                                       
                                            ###                                      
                                            ####                                     
                                            #####                                    
                                            ######                                   
                                           ########,                                 
                                     ,,################,,,,,                         
                               ,,#################################,,                 
                          ,,##########################################,,             
                       ,#########################################, ''#####,          
                    ,#############################################,,   '####,        
                  ,##################################################,,,,####,       
                ,###########''''           ''''###############################       
              ,#####''   ,,,,##########,,,,          '''####'''          '####       
            ,##' ,,,,###########################,,,                        '##       
           ' ,,###''''                  '''############,,,                           
         ,,##''                                '''############,,,,        ,,,,,,###''
      ,#''                                            '''#######################'''  
     '                                                          ''''####''''         
             ,#######,   #######,   ,#######,      ##                                
            ,#'     '#,  ##    ##  ,#'     '#,    #''#        ######   ,####,        
            ##       ##  ##   ,#'  ##            #'  '#       #        #'  '#        
            ##       ##  #######   ##           ,######,      #####,   #    #        
            '#,     ,#'  ##    ##  '#,     ,#' ,#      #,         ##   #,  ,#        
             '#######'   ##     ##  '#######'  #'      '#     #####' # '####'        



                  #######################################################
                  #                        -***-                        #
                  #          Department of theory and spectroscopy      #
                  #    Directorship and core code : Frank Neese         #
                  #        Max Planck Institute fuer Kohlenforschung    #
                  #                Kaiser Wilhelm Platz 1               #
                  #                 D-45470 Muelheim/Ruhr               #
                  #                      Germany                        #
                  #                                                     #
                  #                  All rights reserved                #
                  #                        -***-                        #
                  #######################################################


                         Program Version 5.0.0 -  RELEASE  -
                                (SVN: $Rev: 19529$)
                ($Date: 2021-06-28 11:36:33 +0200 (Mo, 28 Jun 2021) $)


 With contributions from (in alphabetic order):
   Daniel Aravena         : Magnetic Suceptibility
   Michael Atanasov       : Ab Initio Ligand Field Theory (pilot matlab implementation)
   Alexander A. Auer      : GIAO ZORA, VPT2 properties, NMR spectrum
   Ute Becker             : Parallelization
   Giovanni Bistoni       : ED, misc. LED, open-shell LED, HFLD
   Martin Brehm           : Molecular dynamics
   Dmytro Bykov           : SCF Hessian
   Vijay G. Chilkuri      : MRCI spin determinant printing, contributions to CSF-ICE
   Dipayan Datta          : RHF DLPNO-CCSD density
   Achintya Kumar Dutta   : EOM-CC, STEOM-CC
   Dmitry Ganyushin       : Spin-Orbit,Spin-Spin,Magnetic field MRCI
   Miquel Garcia          : C-PCM Hessian, Gaussian charge scheme
   Yang Guo               : DLPNO-NEVPT2, F12-NEVPT2, CIM, IAO-localization
   Andreas Hansen         : Spin unrestricted coupled pair/coupled cluster methods
   Benjamin Helmich-Paris : MC-RPA, TRAH-SCF, COSX integrals
   Lee Huntington         : MR-EOM, pCC
   Robert Izsak           : Overlap fitted RIJCOSX, COSX-SCS-MP3, EOM
   Marcus Kettner         : VPT2
   Christian Kollmar      : KDIIS, OOCD, Brueckner-CCSD(T), CCSD density, CASPT2, CASPT2-K
   Simone Kossmann        : Meta GGA functionals, TD-DFT gradient, OOMP2, MP2 Hessian
   Martin Krupicka        : Initial AUTO-CI
   Lucas Lang             : DCDCAS
   Marvin Lechner         : AUTO-CI (C++ implementation), FIC-MRCC
   Dagmar Lenk            : GEPOL surface, SMD
   Dimitrios Liakos       : Extrapolation schemes; Compound Job, initial MDCI parallelization
   Dimitrios Manganas     : Further ROCIS development; embedding schemes
   Dimitrios Pantazis     : SARC Basis sets
   Anastasios Papadopoulos: AUTO-CI, single reference methods and gradients
   Taras Petrenko         : DFT Hessian,TD-DFT gradient, ASA, ECA, R-Raman, ABS, FL, XAS/XES, NRVS
   Peter Pinski           : DLPNO-MP2, DLPNO-MP2 Gradient
   Christoph Reimann      : Effective Core Potentials
   Marius Retegan         : Local ZFS, SOC
   Christoph Riplinger    : Optimizer, TS searches, QM/MM, DLPNO-CCSD(T), (RO)-DLPNO pert. Triples
   Tobias Risthaus        : Range-separated hybrids, TD-DFT gradient, RPA, STAB
   Michael Roemelt        : Original ROCIS implementation
   Masaaki Saitow         : Open-shell DLPNO-CCSD energy and density
   Barbara Sandhoefer     : DKH picture change effects
   Avijit Sen             : IP-ROCIS
   Kantharuban Sivalingam : CASSCF convergence, NEVPT2, FIC-MRCI
   Bernardo de Souza      : ESD, SOC TD-DFT
   Georgi Stoychev        : AutoAux, RI-MP2 NMR
   Willem Van den Heuvel  : Paramagnetic NMR
   Boris Wezisla          : Elementary symmetry handling
   Frank Wennmohs         : Technical directorship


 We gratefully acknowledge several colleagues who have allowed us to
 interface, adapt or use parts of their codes:
   Stefan Grimme, W. Hujo, H. Kruse, P. Pracht,  : VdW corrections, initial TS optimization,
                  C. Bannwarth, S. Ehlert          DFT functionals, gCP, sTDA/sTD-DF
   Ed Valeev, F. Pavosevic, A. Kumar             : LibInt (2-el integral package), F12 methods
   Garnet Chan, S. Sharma, J. Yang, R. Olivares  : DMRG
   Ulf Ekstrom                                   : XCFun DFT Library
   Mihaly Kallay                                 : mrcc  (arbitrary order and MRCC methods)
   Jiri Pittner, Ondrej Demel                    : Mk-CCSD
   Frank Weinhold                                : gennbo (NPA and NBO analysis)
   Christopher J. Cramer and Donald G. Truhlar   : smd solvation model
   Lars Goerigk                                  : TD-DFT with DH, B97 family of functionals
   V. Asgeirsson, H. Jonsson                     : NEB implementation
   FAccTs GmbH                                   : IRC, NEB, NEB-TS, DLPNO-Multilevel, CI-OPT
                                                   MM, QMMM, 2- and 3-layer-ONIOM, Crystal-QMMM,
                                                   LR-CPCM, SF, NACMEs, symmetry and pop. for TD-DFT,
                                                   nearIR, NL-DFT gradient (VV10), updates on ESD,
                                                   ML-optimized integration grids
   S Lehtola, MJT Oliveira, MAL Marques          : LibXC Library
   Liviu Ungur et al                             : ANISO software


 Your calculation uses the libint2 library for the computation of 2-el integrals
 For citations please refer to: http://libint.valeyev.net

 Your ORCA version has been built with support for libXC version: 5.1.0
 For citations please refer to: https://tddft.org/programs/libxc/

 This ORCA versions uses:
   CBLAS   interface :  Fast vector & matrix operations
   LAPACKE interface :  Fast linear algebra routines
   SCALAPACK package :  Parallel linear algebra routines
   Shared memory     :  Shared parallel matrices
   BLAS/LAPACK       :  OpenBLAS 0.3.15  USE64BITINT DYNAMIC_ARCH NO_AFFINITY Haswell SINGLE_THREADED
        Core in use  :  Haswell
   Copyright (c) 2011-2014, The OpenBLAS Project


XCFun DFT library Copyright 2009-2010 Ulf Ekstrom and contributors.
See http://admol.org/xcfun for more information.
This is free software; see the source code for copying conditions.
There is ABSOLUTELY NO WARRANTY; not even for MERCHANTABILITY or FITNESS FOR A PARTICULAR PURPOSE.
For details see the documentation.
Scientific users of this library should cite U. Ekstrom, L. Visscher, R. Bast, A. J. Thorvaldsen and K. Ruud;
J.Chem.Theor.Comp. 2010, DOI: 10.1021/ct100117s
XCFun Version 0.99 

================================================================================

----- Orbital basis set information -----
Your calculation utilizes the basis: def2-SVPD
   F. Weigend and R. Ahlrichs, Phys. Chem. Chem. Phys. 7, 3297 (2005).
   D. Rappoport and F. Furche, J. Chem. Phys. 133 134105 (2010).

----- AuxJ basis set information -----
Your calculation utilizes the auxiliary basis: def2/J
   F. Weigend, Phys. Chem. Chem. Phys. 8, 1057 (2006).

================================================================================
                                        WARNINGS
                       Please study these warnings very carefully!
================================================================================


INFO   : the flag for use of the SHARK integral package has been found!

================================================================================
                                       INPUT FILE
================================================================================
NAME = SVPD_CAMB3LYP_C1_wt_dlpno_pos.com
|  1> !CAM-B3LYP RIJCOSX def2-SVPD def2/J TightSCF
|  2> *xyz 0 1
|  3> C          4.99986       -1.59613       -5.92488
|  4> C          5.28156       -1.97413       -4.53576
|  5> C          3.76678       -2.26611       -6.51175
|  6> C          4.79250       -1.36132       -3.45730
|  7> N          3.93990       -0.37492       -3.55736
|  8> N          5.25986       -1.75422       -2.23913
|  9> H          5.92282       -2.52145       -2.18672
| 10> H          4.65468       -1.64040       -1.44202
| 11> H          5.70914       -2.87560       -4.38702
| 12> H          3.33010       -0.31764       -4.36125
| 13> H          3.69849        0.11447       -2.70833
| 14> H          4.84333       -0.51793       -5.94302
| 15> H          5.90170       -1.82250       -6.49647
| 16> H          3.63046       -1.94025       -7.52177
| 17> H          2.90710       -2.00116       -5.93240
| 18> H          3.89538       -3.32820       -6.49392
| 19> *
| 20> 
| 21> %MaxCore 64000
| 22> 
| 23> %pal nprocs 4
| 24> end  
| 25> 
| 26> %scf
| 27>   MaxIter 150
| 28> end
| 29> 
| 30> 
| 31>                          ****END OF INPUT****
================================================================================

                       ****************************
                       * Single Point Calculation *
                       ****************************

---------------------------------
CARTESIAN COORDINATES (ANGSTROEM)
---------------------------------
  C      4.999860   -1.596130   -5.924880
  C      5.281560   -1.974130   -4.535760
  C      3.766780   -2.266110   -6.511750
  C      4.792500   -1.361320   -3.457300
  N      3.939900   -0.374920   -3.557360
  N      5.259860   -1.754220   -2.239130
  H      5.922820   -2.521450   -2.186720
  H      4.654680   -1.640400   -1.442020
  H      5.709140   -2.875600   -4.387020
  H      3.330100   -0.317640   -4.361250
  H      3.698490    0.114470   -2.708330
  H      4.843330   -0.517930   -5.943020
  H      5.901700   -1.822500   -6.496470
  H      3.630460   -1.940250   -7.521770
  H      2.907100   -2.001160   -5.932400
  H      3.895380   -3.328200   -6.493920

----------------------------
CARTESIAN COORDINATES (A.U.)
----------------------------
  NO LB      ZA    FRAG     MASS         X           Y           Z
   0 C     6.0000    0    12.011    9.448366   -3.016249  -11.196401
   1 C     6.0000    0    12.011    9.980702   -3.730565   -8.571344
   2 C     6.0000    0    12.011    7.118183   -4.282327  -12.305424
   3 C     6.0000    0    12.011    9.056512   -2.572522   -6.533350
   4 N     7.0000    0    14.007    7.445332   -0.708496   -6.722436
   5 N     7.0000    0    14.007    9.939695   -3.314995   -4.231342
   6 H     1.0000    0     1.008   11.192508   -4.764850   -4.132302
   7 H     1.0000    0     1.008    8.796070   -3.099907   -2.725023
   8 H     1.0000    0     1.008   10.788711   -5.434096   -8.290266
   9 H     1.0000    0     1.008    6.292977   -0.600253   -8.241568
  10 H     1.0000    0     1.008    6.989133    0.216317   -5.118002
  11 H     1.0000    0     1.008    9.152567   -0.978746  -11.230680
  12 H     1.0000    0     1.008   11.152597   -3.444026  -12.276549
  13 H     1.0000    0     1.008    6.860575   -3.666541  -14.214085
  14 H     1.0000    0     1.008    5.493623   -3.781644  -11.210611
  15 H     1.0000    0     1.008    7.361201   -6.289387  -12.271730

--------------------------------
INTERNAL COORDINATES (ANGSTROEM)
--------------------------------
 C      0   0   0     0.000000000000     0.00000000     0.00000000
 C      1   0   0     1.466933285600     0.00000000     0.00000000
 C      1   2   0     1.521110082703   114.04948771     0.00000000
 C      2   1   3     1.333338573394   125.24465126   271.38369046
 N      4   2   1     1.307640517726   121.59821647     3.37662360
 N      4   2   1     1.362620243685   117.69524840   186.46465187
 H      6   4   2     1.015334744112   119.20799220   357.06852641
 H      6   4   2     1.007264700513   117.95745335   207.37675318
 H      2   1   3     1.008759835095   116.82696572    77.45307476
 H      5   4   2     1.010631570109   119.80406451    27.35455603
 H      5   4   2     1.009273650255   117.21677800   187.25423597
 H      1   2   3     1.089654046246   107.35684638   119.90287312
 H      1   2   3     1.091454942084   106.48717401   235.80932251
 H      3   1   2     1.070003870273   109.47095908   179.99985773
 H      3   1   2     1.069997489436   109.47166455    60.00019566
 H      3   1   2     1.069995811674   109.47174109   299.99994061

---------------------------
INTERNAL COORDINATES (A.U.)
---------------------------
 C      0   0   0     0.000000000000     0.00000000     0.00000000
 C      1   0   0     2.772102166517     0.00000000     0.00000000
 C      1   2   0     2.874481475855   114.04948771     0.00000000
 C      2   1   3     2.519644747508   125.24465126   271.38369046
 N      4   2   1     2.471082460122   121.59821647     3.37662360
 N      4   2   1     2.574979085102   117.69524840   186.46465187
 H      6   4   2     1.918704600626   119.20799220   357.06852641
 H      6   4   2     1.903454428336   117.95745335   207.37675318
 H      2   1   3     1.906279823228   116.82696572    77.45307476
 H      5   4   2     1.909816889800   119.80406451    27.35455603
 H      5   4   2     1.907250793166   117.21677800   187.25423597
 H      1   2   3     2.059147728124   107.35684638   119.90287312
 H      1   2   3     2.062550928054   106.48717401   235.80932251
 H      3   1   2     2.022014277052   109.47095908   179.99985773
 H      3   1   2     2.022002219018   109.47166455    60.00019566
 H      3   1   2     2.021999048507   109.47174109   299.99994061

---------------------
BASIS SET INFORMATION
---------------------
There are 3 groups of distinct atoms

 Group   1 Type C   : 8s4p2d contracted to 4s2p2d pattern {5111/31/11}
 Group   2 Type N   : 8s4p2d contracted to 4s2p2d pattern {5111/31/11}
 Group   3 Type H   : 4s2p contracted to 2s2p pattern {31/11}

Atom   0C    basis set group =>   1
Atom   1C    basis set group =>   1
Atom   2C    basis set group =>   1
Atom   3C    basis set group =>   1
Atom   4N    basis set group =>   2
Atom   5N    basis set group =>   2
Atom   6H    basis set group =>   3
Atom   7H    basis set group =>   3
Atom   8H    basis set group =>   3
Atom   9H    basis set group =>   3
Atom  10H    basis set group =>   3
Atom  11H    basis set group =>   3
Atom  12H    basis set group =>   3
Atom  13H    basis set group =>   3
Atom  14H    basis set group =>   3
Atom  15H    basis set group =>   3
---------------------------------
AUXILIARY/J BASIS SET INFORMATION
---------------------------------
There are 3 groups of distinct atoms

 Group   1 Type C   : 12s5p4d2f1g contracted to 6s4p3d1f1g pattern {711111/2111/211/2/1}
 Group   2 Type N   : 12s5p4d2f1g contracted to 6s4p3d1f1g pattern {711111/2111/211/2/1}
 Group   3 Type H   : 5s2p1d contracted to 3s1p1d pattern {311/2/1}

Atom   0C    basis set group =>   1
Atom   1C    basis set group =>   1
Atom   2C    basis set group =>   1
Atom   3C    basis set group =>   1
Atom   4N    basis set group =>   2
Atom   5N    basis set group =>   2
Atom   6H    basis set group =>   3
Atom   7H    basis set group =>   3
Atom   8H    basis set group =>   3
Atom   9H    basis set group =>   3
Atom  10H    basis set group =>   3
Atom  11H    basis set group =>   3
Atom  12H    basis set group =>   3
Atom  13H    basis set group =>   3
Atom  14H    basis set group =>   3
Atom  15H    basis set group =>   3


           ************************************************************
           *        Program running with 4 parallel MPI-processes     *
           *              working on a common directory               *
           ************************************************************
------------------------------------------------------------------------------
                           ORCA GTO INTEGRAL CALCULATION
                           -- RI-GTO INTEGRALS CHOSEN --
------------------------------------------------------------------------------
------------------------------------------------------------------------------
                   ___                                                        
                  /   \      - P O W E R E D   B Y -                         
                 /     \                                                     
                 |  |  |   _    _      __       _____    __    __             
                 |  |  |  | |  | |    /  \     |  _  \  |  |  /  |          
                  \  \/   | |  | |   /    \    | | | |  |  | /  /          
                 / \  \   | |__| |  /  /\  \   | |_| |  |  |/  /          
                |  |  |   |  __  | /  /__\  \  |    /   |      \           
                |  |  |   | |  | | |   __   |  |    \   |  |\   \          
                \     /   | |  | | |  |  |  |  | |\  \  |  | \   \       
                 \___/    |_|  |_| |__|  |__|  |_| \__\ |__|  \__/        
                                                                              
                      - O R C A' S   B I G   F R I E N D -                    
                                      &                                       
                       - I N T E G R A L  F E E D E R -                       
                                                                              
 v1 FN, 2020, v2 2021                                                         
------------------------------------------------------------------------------


Reading SHARK input file SVPD_CAMB3LYP_C1_wt_dlpno_pos.SHARKINP.tmp ... ok
----------------------
SHARK INTEGRAL PACKAGE
----------------------

Number of atoms                             ...     16
Number of basis functions                   ...    200
Number of shells                            ...     88
Maximum angular momentum                    ...      2
Integral batch strategy                     ... SHARK/LIBINT Hybrid
RI-J (if used) integral strategy            ... SPLIT-RIJ (Revised 2003 algorithm where possible)
Printlevel                                  ...      1
Contraction scheme used                     ... SEGMENTED contraction
Coulomb Range Separation                    ... NOT USED
Exchange Range Separation                   ... Long Range
   Mu parameter                             ...  0.330000
   Scaling (regular/separated)              ...  0.190000  0.460000
Finite Nucleus Model                        ... NOT USED
Auxiliary Coulomb fitting basis             ... AVAILABLE
   # of basis functions in Aux-J            ...    404
   # of shells in Aux-J                     ...    140
   Maximum angular momentum in Aux-J        ...      4
Auxiliary J/K fitting basis                 ... NOT available
Auxiliary Correlation fitting basis         ... NOT available
Auxiliary 'external' fitting basis          ... NOT available
Integral threshold                          ...     2.500000e-11
Primitive cut-off                           ...     2.500000e-12
Primitive pair pre-selection threshold      ...     2.500000e-12

Calculating pre-screening integrals         ... done (  0.0 sec) Dimension = 88
Organizing shell pair data                  ... done (  0.0 sec)
Shell pair information
Total number of shell pairs                 ...      3916
Shell pairs after pre-screening             ...      3837
Total number of primitive shell pairs       ...     10548
Primitive shell pairs kept                  ...      8606
          la=0 lb=0:    964 shell pairs
          la=1 lb=0:   1380 shell pairs
          la=1 lb=1:    514 shell pairs
          la=2 lb=0:    521 shell pairs
          la=2 lb=1:    380 shell pairs
          la=2 lb=2:     78 shell pairs

Calculating one electron integrals          ... done (  0.0 sec)
Calculating RI/J V-Matrix + Cholesky decomp.... done (  0.0 sec)
Calculating Nuclear repulsion               ... done (  0.0 sec) ENN=    247.259456292730 Eh

SHARK setup successfully completed in   0.2 seconds

Maximum memory used throughout the entire GTOINT-calculation: 8.9 MB


           ************************************************************
           *        Program running with 4 parallel MPI-processes     *
           *              working on a common directory               *
           ************************************************************
-------------------------------------------------------------------------------
                                 ORCA SCF
-------------------------------------------------------------------------------

------------
SCF SETTINGS
------------
Hamiltonian:
 Density Functional     Method          .... DFT(GTOs)
 Exchange Functional    Exchange        .... WB88
 Correlation Functional Correlation     .... LYP
 LDA part of GGA corr.  LDAOpt          .... VWN-5
 Gradients option       PostSCFGGA      .... off
 Hybrid DFT is turned on
   Fraction HF Exchange ScalHFX         ....  0.190000
   Scaling of DF-GGA-X  ScalDFX         ....  0.350000
   Scaling of DF-GGA-C  ScalDFC         ....  0.810000
   Scaling of DF-LDA-C  ScalLDAC        ....  1.000000
   Perturbative correction              ....  0.000000
   Density functional embedding theory  .... OFF
 Long-range corrected/Screened/Range-Separated Hybrid DFT is turned on
   Amount of maximum screened exact exchange              ....  0.460000
   Range separation parameter mu (erf(mu*r12)/r12)        ....  0.330000
 RI-approximation to the Coulomb term is turned on
   Number of AuxJ basis functions       .... 404
   RIJ-COSX (HFX calculated with COS-X)).... on


General Settings:
 Integral files         IntName         .... SVPD_CAMB3LYP_C1_wt_dlpno_pos
 Hartree-Fock type      HFTyp           .... RHF
 Total Charge           Charge          ....    0
 Multiplicity           Mult            ....    1
 Number of Electrons    NEL             ....   48
 Basis Dimension        Dim             ....  200
 Nuclear Repulsion      ENuc            ....    247.2594562927 Eh

Convergence Acceleration:
 DIIS                   CNVDIIS         .... on
   Start iteration      DIISMaxIt       ....    12
   Startup error        DIISStart       ....  0.200000
   # of expansion vecs  DIISMaxEq       ....     5
   Bias factor          DIISBfac        ....   1.050
   Max. coefficient     DIISMaxC        ....  10.000
 Trust-Rad. Augm. Hess. CNVTRAH         .... auto
   Auto Start mean grad. ratio tolernc. ....  1.125000
   Auto Start start iteration           ....    20
   Auto Start num. interpolation iter.  ....    10
   Max. Number of Micro iterations      ....    16
   Max. Number of Macro iterations      .... Maxiter - #DIIS iter
   Number of Davidson start vectors     ....     2
   Converg. threshold I  (grad. norm)   ....   1.000e-05
   Converg. threshold II (energy diff.) ....   1.000e-08
   Grad. Scal. Fac. for Micro threshold ....   0.100
   Minimum threshold for Micro iter.    ....   0.010
   NR start threshold (gradient norm)   ....   0.001
   Initial trust radius                 ....   0.400
   Minimum AH scaling param. (alpha)    ....   1.000
   Maximum AH scaling param. (alpha)    .... 1000.000
   Orbital update algorithm             .... Taylor
   White noise on init. David. guess    .... on
   Maximum white noise                  ....   0.010
   Quad. conv. algorithm                .... NR
 SOSCF                  CNVSOSCF        .... on
   Start iteration      SOSCFMaxIt      ....   150
   Startup grad/error   SOSCFStart      ....  0.003300
 Level Shifting         CNVShift        .... on
   Level shift para.    LevelShift      ....    0.2500
   Turn off err/grad.   ShiftErr        ....    0.0010
 Zerner damping         CNVZerner       .... off
 Static damping         CNVDamp         .... on
   Fraction old density DampFac         ....    0.7000
   Max. Damping (<1)    DampMax         ....    0.9800
   Min. Damping (>=0)   DampMin         ....    0.0000
   Turn off err/grad.   DampErr         ....    0.1000
 Fernandez-Rico         CNVRico         .... off

SCF Procedure:
 Maximum # iterations   MaxIter         ....   150
 SCF integral mode      SCFMode         .... Direct
   Integral package                     .... SHARK and LIBINT hybrid scheme
 Reset frequency        DirectResetFreq ....    20
 Integral Threshold     Thresh          ....  2.500e-11 Eh
 Primitive CutOff       TCut            ....  2.500e-12 Eh

Convergence Tolerance:
 Convergence Check Mode ConvCheckMode   .... Total+1el-Energy
 Convergence forced     ConvForced      .... 0
 Energy Change          TolE            ....  1.000e-08 Eh
 1-El. energy change                    ....  1.000e-05 Eh
 Orbital Gradient       TolG            ....  1.000e-05
 Orbital Rotation angle TolX            ....  1.000e-05
 DIIS Error             TolErr          ....  5.000e-07


Diagonalization of the overlap matrix:
Smallest eigenvalue                        ... 4.528e-05
Time for diagonalization                   ...    0.010 sec
Threshold for overlap eigenvalues          ... 1.000e-08
Number of eigenvalues below threshold      ... 0
Time for construction of square roots      ...    0.007 sec
Total time needed                          ...    0.017 sec

Time for model grid setup =    0.101 sec

------------------------------
INITIAL GUESS: MODEL POTENTIAL
------------------------------
Loading Hartree-Fock densities                     ... done
Calculating cut-offs                               ... done
Initializing the effective Hamiltonian             ... done
Setting up the integral package (SHARK)            ... done
Starting the Coulomb interaction                   ... done (   0.1 sec)
Reading the grid                                   ... done
Mapping shells                                     ... done
Starting the XC term evaluation                    ... done (   0.1 sec)
  promolecular density results
     # of electrons  =     47.992853861
     EX              =    -36.584670837
     EC              =     -1.577240269
     EX+EC           =    -38.161911106
Transforming the Hamiltonian                       ... done (   0.0 sec)
Diagonalizing the Hamiltonian                      ... done (   0.0 sec)
Back transforming the eigenvectors                 ... done (   0.0 sec)
Now organizing SCF variables                       ... done
                      ------------------
                      INITIAL GUESS DONE (   0.3 sec)
                      ------------------
-------------------
DFT GRID GENERATION
-------------------

General Integration Accuracy     IntAcc      ... 4.388
Radial Grid Type                 RadialGrid  ... OptM3 with GC (2021)
Angular Grid (max. ang.)         AngularGrid ... 4 (Lebedev-302)
Angular grid pruning method      GridPruning ... 4 (adaptive)
Weight generation scheme         WeightScheme... Becke
Basis function cutoff            BFCut       ... 1.0000e-11
Integration weight cutoff        WCut        ... 1.0000e-14
Angular grids for H and He will be reduced by one unit
Partially contracted basis set               ... off
Rotationally invariant grid construction     ... off

Total number of grid points                  ...    70255
Total number of batches                      ...     1109
Average number of points per batch           ...       63
Average number of grid points per atom       ...     4391
Time for grid setup =    0.453 sec

--------------------
COSX GRID GENERATION
--------------------

GRIDX 1
-------
General Integration Accuracy     IntAcc      ... 3.816
Radial Grid Type                 RadialGrid  ... OptM3 with GC (2021)
Angular Grid (max. ang.)         AngularGrid ... 1 (Lebedev-50)
Angular grid pruning method      GridPruning ... 4 (adaptive)
Weight generation scheme         WeightScheme... Becke
Basis function cutoff            BFCut       ... 1.0000e-11
Integration weight cutoff        WCut        ... 1.0000e-14
Angular grids for H and He will be reduced by one unit
Partially contracted basis set               ... on
Rotationally invariant grid construction     ... off

Total number of grid points                  ...     8768
Total number of batches                      ...      148
Average number of points per batch           ...       59
Average number of grid points per atom       ...      548
UseSFitting                                  ... on

GRIDX 2
-------
General Integration Accuracy     IntAcc      ... 4.020
Radial Grid Type                 RadialGrid  ... OptM3 with GC (2021)
Angular Grid (max. ang.)         AngularGrid ... 2 (Lebedev-110)
Angular grid pruning method      GridPruning ... 4 (adaptive)
Weight generation scheme         WeightScheme... Becke
Basis function cutoff            BFCut       ... 1.0000e-11
Integration weight cutoff        WCut        ... 1.0000e-14
Angular grids for H and He will be reduced by one unit
Partially contracted basis set               ... on
Rotationally invariant grid construction     ... off

Total number of grid points                  ...    19264
Total number of batches                      ...      309
Average number of points per batch           ...       62
Average number of grid points per atom       ...     1204
UseSFitting                                  ... on

GRIDX 3
-------
General Integration Accuracy     IntAcc      ... 4.338
Radial Grid Type                 RadialGrid  ... OptM3 with GC (2021)
Angular Grid (max. ang.)         AngularGrid ... 3 (Lebedev-194)
Angular grid pruning method      GridPruning ... 4 (adaptive)
Weight generation scheme         WeightScheme... Becke
Basis function cutoff            BFCut       ... 1.0000e-11
Integration weight cutoff        WCut        ... 1.0000e-14
Angular grids for H and He will be reduced by one unit
Partially contracted basis set               ... on
Rotationally invariant grid construction     ... off

Total number of grid points                  ...    44100
Total number of batches                      ...      696
Average number of points per batch           ...       63
Average number of grid points per atom       ...     2756
UseSFitting                                  ... on

Time for X-Grid setup             =    0.472 sec

--------------
SCF ITERATIONS
--------------
ITER       Energy         Delta-E        Max-DP      RMS-DP      [F,P]     Damp
               ***  Starting incremental Fock matrix formation  ***
  0   -267.3130581055   0.000000000000 0.12920166  0.00294587  0.2033429 0.7000
  1   -267.4351874265  -0.122129320955 0.13372280  0.00232574  0.1099252 0.7000
                               ***Turning on DIIS***
  2   -267.4920847893  -0.056897362805 0.27375517  0.00468143  0.0482116 0.0000
  3   -267.5746863017  -0.082601512469 0.07718636  0.00165505  0.0522261 0.0000
  4   -267.5940865124  -0.019400210697 0.01535452  0.00040040  0.0087315 0.0000
                      *** Initiating the SOSCF procedure ***
                           *** Shutting down DIIS ***
                      *** Re-Reading the Fockian *** 
                      *** Removing any level shift *** 
ITER      Energy       Delta-E        Grad      Rot      Max-DP    RMS-DP
  5   -267.59465950  -0.0005729856  0.000824  0.000824  0.008101  0.000176
               *** Restarting incremental Fock matrix formation ***
  6   -267.59474772  -0.0000882177  0.000319  0.001075  0.005439  0.000156
  7   -267.59475411  -0.0000063973  0.000183  0.000442  0.001586  0.000055
  8   -267.59475648  -0.0000023652  0.000032  0.000070  0.001257  0.000018
  9   -267.59475653  -0.0000000508  0.000042  0.000065  0.000232  0.000005
 10   -267.59475658  -0.0000000518  0.000005  0.000017  0.000097  0.000003
                  ***Gradient check signals convergence***
              ***Rediagonalizing the Fockian in SOSCF/NRSCF***

               *****************************************************
               *                     SUCCESS                       *
               *           SCF CONVERGED AFTER  11 CYCLES          *
               *****************************************************

Old exchange energy                            =    -10.886005055 Eh
New exchange energy                            =    -10.886052541 Eh
Exchange energy change after final integration =     -0.000047486 Eh
Total energy after final integration           =   -267.594804065 Eh
Final COS-X integration done in                =     6.215 sec

----------------
TOTAL SCF ENERGY
----------------

Total Energy       :         -267.59480406 Eh           -7281.62481 eV

Components:
Nuclear Repulsion  :          247.25945629 Eh            6728.27186 eV
Electronic Energy  :         -514.85426036 Eh          -14009.89667 eV
One Electron Energy:         -850.17502747 Eh          -23134.43863 eV
Two Electron Energy:          335.32076711 Eh            9124.54196 eV
Max COSX asymmetry :            0.00000423 Eh               0.00012 eV

Virial components:
Potential Energy   :         -532.73779061 Eh          -14496.53227 eV
Kinetic Energy     :          265.14298655 Eh            7214.90746 eV
Virial Ratio       :            2.00924715


DFT components:
N(Alpha)           :       24.000003471825 electrons
N(Beta)            :       24.000003471825 electrons
N(Total)           :       48.000006943650 electrons
E(XC)              :      -28.357251948422 Eh       
DFET-embed. en.    :        0.000000000000 Eh       

---------------
SCF CONVERGENCE
---------------

  Last Energy change         ...    1.7313e-09  Tolerance :   1.0000e-08
  Last MAX-Density change    ...    4.4409e-15  Tolerance :   1.0000e-07
  Last RMS-Density change    ...    4.7297e-17  Tolerance :   5.0000e-09
  Last Orbital Gradient      ...    2.0769e-06  Tolerance :   1.0000e-05
  Last Orbital Rotation      ...    5.4227e-06  Tolerance :   1.0000e-05

             **** THE GBW FILE WAS UPDATED (SVPD_CAMB3LYP_C1_wt_dlpno_pos.gbw) ****
             **** DENSITY SVPD_CAMB3LYP_C1_wt_dlpno_pos.scfp WAS UPDATED ****
             **** ENERGY FILE WAS UPDATED (SVPD_CAMB3LYP_C1_wt_dlpno_pos.en.tmp) ****
             **** THE GBW FILE WAS UPDATED (SVPD_CAMB3LYP_C1_wt_dlpno_pos.gbw) ****
             **** DENSITY SVPD_CAMB3LYP_C1_wt_dlpno_pos.scfp WAS UPDATED ****
----------------
ORBITAL ENERGIES
----------------

  NO   OCC          E(Eh)            E(eV) 
   0   2.0000     -14.410274      -392.1235 
   1   2.0000     -14.401797      -391.8928 
   2   2.0000     -10.303632      -280.3761 
   3   2.0000     -10.231422      -278.4111 
   4   2.0000     -10.228047      -278.3193 
   5   2.0000     -10.182720      -277.0859 
   6   2.0000      -1.038863       -28.2689 
   7   2.0000      -0.944393       -25.6982 
   8   2.0000      -0.850369       -23.1397 
   9   2.0000      -0.769624       -20.9425 
  10   2.0000      -0.688167       -18.7260 
  11   2.0000      -0.651246       -17.7213 
  12   2.0000      -0.618937       -16.8421 
  13   2.0000      -0.575341       -15.6558 
  14   2.0000      -0.548509       -14.9257 
  15   2.0000      -0.514331       -13.9957 
  16   2.0000      -0.485663       -13.2156 
  17   2.0000      -0.465780       -12.6745 
  18   2.0000      -0.452770       -12.3205 
  19   2.0000      -0.419733       -11.4215 
  20   2.0000      -0.392966       -10.6932 
  21   2.0000      -0.384707       -10.4684 
  22   2.0000      -0.332744        -9.0544 
  23   2.0000      -0.221185        -6.0188 
  24   0.0000       0.044967         1.2236 
  25   0.0000       0.070811         1.9269 
  26   0.0000       0.083058         2.2601 
  27   0.0000       0.094471         2.5707 
  28   0.0000       0.109587         2.9820 
  29   0.0000       0.115167         3.1338 
  30   0.0000       0.124180         3.3791 
  31   0.0000       0.131708         3.5839 
  32   0.0000       0.150840         4.1046 
  33   0.0000       0.158735         4.3194 
  34   0.0000       0.175924         4.7871 
  35   0.0000       0.184093         5.0094 
  36   0.0000       0.194868         5.3026 
  37   0.0000       0.201869         5.4931 
  38   0.0000       0.204912         5.5759 
  39   0.0000       0.214215         5.8291 
  40   0.0000       0.225694         6.1415 
  41   0.0000       0.228562         6.2195 
  42   0.0000       0.242518         6.5992 
  43   0.0000       0.246810         6.7161 
  44   0.0000       0.262656         7.1472 
  45   0.0000       0.268667         7.3108 
  46   0.0000       0.280769         7.6401 
  47   0.0000       0.307366         8.3639 
  48   0.0000       0.313170         8.5218 
  49   0.0000       0.322557         8.7772 
  50   0.0000       0.343088         9.3359 
  51   0.0000       0.345401         9.3988 
  52   0.0000       0.347481         9.4554 
  53   0.0000       0.361300         9.8315 
  54   0.0000       0.364603         9.9214 
  55   0.0000       0.373461        10.1624 
  56   0.0000       0.378180        10.2908 
  57   0.0000       0.387733        10.5507 
  58   0.0000       0.393522        10.7083 
  59   0.0000       0.396924        10.8009 
  60   0.0000       0.408859        11.1256 
  61   0.0000       0.417329        11.3561 
  62   0.0000       0.420384        11.4392 
  63   0.0000       0.431263        11.7353 
  64   0.0000       0.432925        11.7805 
  65   0.0000       0.436357        11.8739 
  66   0.0000       0.444108        12.0848 
  67   0.0000       0.453644        12.3443 
  68   0.0000       0.457330        12.4446 
  69   0.0000       0.473383        12.8814 
  70   0.0000       0.478692        13.0259 
  71   0.0000       0.485255        13.2045 
  72   0.0000       0.496666        13.5150 
  73   0.0000       0.509690        13.8694 
  74   0.0000       0.513940        13.9850 
  75   0.0000       0.522159        14.2087 
  76   0.0000       0.527974        14.3669 
  77   0.0000       0.532593        14.4926 
  78   0.0000       0.547562        14.8999 
  79   0.0000       0.554728        15.0949 
  80   0.0000       0.561076        15.2676 
  81   0.0000       0.567148        15.4329 
  82   0.0000       0.574690        15.6381 
  83   0.0000       0.577958        15.7270 
  84   0.0000       0.589489        16.0408 
  85   0.0000       0.598251        16.2792 
  86   0.0000       0.607952        16.5432 
  87   0.0000       0.615688        16.7537 
  88   0.0000       0.633506        17.2386 
  89   0.0000       0.644509        17.5380 
  90   0.0000       0.657188        17.8830 
  91   0.0000       0.671187        18.2639 
  92   0.0000       0.684075        18.6146 
  93   0.0000       0.698381        19.0039 
  94   0.0000       0.713400        19.4126 
  95   0.0000       0.714027        19.4297 
  96   0.0000       0.728849        19.8330 
  97   0.0000       0.742555        20.2059 
  98   0.0000       0.748856        20.3774 
  99   0.0000       0.762557        20.7502 
 100   0.0000       0.775290        21.0967 
 101   0.0000       0.795976        21.6596 
 102   0.0000       0.821590        22.3566 
 103   0.0000       0.822994        22.3948 
 104   0.0000       0.837769        22.7969 
 105   0.0000       0.857393        23.3308 
 106   0.0000       0.933008        25.3884 
 107   0.0000       0.963192        26.2098 
 108   0.0000       0.990094        26.9418 
 109   0.0000       1.012312        27.5464 
 110   0.0000       1.032477        28.0951 
 111   0.0000       1.060412        28.8553 
 112   0.0000       1.083866        29.4935 
 113   0.0000       1.091551        29.7026 
 114   0.0000       1.101656        29.9776 
 115   0.0000       1.112056        30.2606 
 116   0.0000       1.126099        30.6427 
 117   0.0000       1.140207        31.0266 
 118   0.0000       1.160547        31.5801 
 119   0.0000       1.173153        31.9231 
 120   0.0000       1.202928        32.7333 
 121   0.0000       1.205205        32.7953 
 122   0.0000       1.232581        33.5402 
 123   0.0000       1.253865        34.1194 
 124   0.0000       1.261016        34.3140 
 125   0.0000       1.275353        34.7041 
 126   0.0000       1.305297        35.5189 
 127   0.0000       1.315580        35.7988 
 128   0.0000       1.327279        36.1171 
 129   0.0000       1.366394        37.1815 
 130   0.0000       1.388681        37.7879 
 131   0.0000       1.419483        38.6261 
 132   0.0000       1.489169        40.5223 
 133   0.0000       1.501992        40.8713 
 134   0.0000       1.582099        43.0511 
 135   0.0000       1.614023        43.9198 
 136   0.0000       1.628489        44.3134 
 137   0.0000       1.660095        45.1735 
 138   0.0000       1.690102        45.9900 
 139   0.0000       1.702542        46.3285 
 140   0.0000       1.732433        47.1419 
 141   0.0000       1.737640        47.2836 
 142   0.0000       1.769077        48.1390 
 143   0.0000       1.796125        48.8750 
 144   0.0000       1.840385        50.0794 
 145   0.0000       1.867004        50.8038 
 146   0.0000       1.880073        51.1594 
 147   0.0000       1.901863        51.7523 
 148   0.0000       1.944681        52.9175 
 149   0.0000       1.969472        53.5920 
 150   0.0000       1.982138        53.9367 
 151   0.0000       1.988188        54.1013 
 152   0.0000       2.002652        54.4949 
 153   0.0000       2.051080        55.8127 
 154   0.0000       2.085697        56.7547 
 155   0.0000       2.095505        57.0216 
 156   0.0000       2.099767        57.1376 
 157   0.0000       2.136749        58.1439 
 158   0.0000       2.147705        58.4420 
 159   0.0000       2.166145        58.9438 
 160   0.0000       2.177779        59.2604 
 161   0.0000       2.186185        59.4891 
 162   0.0000       2.215090        60.2757 
 163   0.0000       2.219586        60.3980 
 164   0.0000       2.239648        60.9439 
 165   0.0000       2.261413        61.5362 
 166   0.0000       2.273137        61.8552 
 167   0.0000       2.321292        63.1656 
 168   0.0000       2.345163        63.8151 
 169   0.0000       2.390750        65.0556 
 170   0.0000       2.438842        66.3643 
 171   0.0000       2.454748        66.7971 
 172   0.0000       2.475684        67.3668 
 173   0.0000       2.511279        68.3354 
 174   0.0000       2.552353        69.4531 
 175   0.0000       2.560246        69.6678 
 176   0.0000       2.582680        70.2783 
 177   0.0000       2.640493        71.8515 
 178   0.0000       2.676877        72.8415 
 179   0.0000       2.713647        73.8421 
 180   0.0000       2.747005        74.7498 
 181   0.0000       2.770522        75.3897 
 182   0.0000       2.811697        76.5102 
 183   0.0000       2.863236        77.9126 
 184   0.0000       2.917745        79.3959 
 185   0.0000       2.948728        80.2390 
 186   0.0000       2.968554        80.7785 
 187   0.0000       3.101608        84.3990 
 188   0.0000       3.125370        85.0456 
 189   0.0000       3.166344        86.1606 
 190   0.0000       3.188963        86.7761 
 191   0.0000       3.272756        89.0562 
 192   0.0000       3.288222        89.4771 
 193   0.0000       3.319504        90.3283 
 194   0.0000       3.360664        91.4483 
 195   0.0000       3.396534        92.4244 
 196   0.0000       3.462623        94.2228 
 197   0.0000       3.501009        95.2673 
 198   0.0000       3.750136       102.0464 
 199   0.0000       3.812093       103.7323 

                    ********************************
                    * MULLIKEN POPULATION ANALYSIS *
                    ********************************

-----------------------
MULLIKEN ATOMIC CHARGES
-----------------------
   0 C :    0.009638
   1 C :   -0.308644
   2 C :    0.874821
   3 C :    0.746749
   4 N :    0.276799
   5 N :    0.036020
   6 H :   -0.048407
   7 H :   -0.139480
   8 H :   -0.416731
   9 H :   -0.126482
  10 H :   -0.243691
  11 H :   -0.093483
  12 H :   -0.175110
  13 H :   -0.065116
  14 H :   -0.210609
  15 H :   -0.116274
Sum of atomic charges:    0.0000000

--------------------------------
MULLIKEN REDUCED ORBITAL CHARGES
--------------------------------
  0 C s       :     2.623999  s :     2.623999
      pz      :     1.020587  p :     2.855951
      px      :     0.922813
      py      :     0.912552
      dz2     :     0.082476  d :     0.510412
      dxz     :     0.128001
      dyz     :     0.101681
      dx2y2   :     0.142354
      dxy     :     0.055901
  1 C s       :     3.118895  s :     3.118895
      pz      :     0.871348  p :     2.744828
      px      :     1.087114
      py      :     0.786366
      dz2     :     0.197401  d :     0.444921
      dxz     :     0.055344
      dyz     :     0.112871
      dx2y2   :     0.053377
      dxy     :     0.025929
  2 C s       :     2.391991  s :     2.391991
      pz      :     0.850268  p :     2.682453
      px      :     0.931205
      py      :     0.900980
      dz2     :     0.015074  d :     0.050734
      dxz     :     0.008424
      dyz     :    -0.021860
      dx2y2   :     0.017125
      dxy     :     0.031971
  3 C s       :     2.750040  s :     2.750040
      pz      :     0.692267  p :     2.344321
      px      :     0.850373
      py      :     0.801680
      dz2     :     0.076926  d :     0.158891
      dxz     :    -0.005074
      dyz     :    -0.027450
      dx2y2   :     0.044064
      dxy     :     0.070424
  4 N s       :     3.086252  s :     3.086252
      pz      :     1.056838  p :     3.629502
      px      :     1.288805
      py      :     1.283859
      dz2     :    -0.003531  d :     0.007447
      dxz     :    -0.015501
      dyz     :    -0.004511
      dx2y2   :     0.016330
      dxy     :     0.014661
  5 N s       :     3.320701  s :     3.320701
      pz      :     1.011800  p :     3.631829
      px      :     1.247392
      py      :     1.372637
      dz2     :     0.010299  d :     0.011449
      dxz     :    -0.001705
      dyz     :     0.008801
      dx2y2   :     0.003461
      dxy     :    -0.009406
  6 H s       :     1.017925  s :     1.017925
      pz      :    -0.020647  p :     0.030483
      px      :     0.031466
      py      :     0.019663
  7 H s       :     1.066339  s :     1.066339
      pz      :     0.024814  p :     0.073141
      px      :     0.004429
      py      :     0.043898
  8 H s       :     1.337577  s :     1.337577
      pz      :    -0.029358  p :     0.079154
      px      :     0.025272
      py      :     0.083240
  9 H s       :     1.067989  s :     1.067989
      pz      :    -0.005624  p :     0.058493
      px      :     0.052414
      py      :     0.011703
 10 H s       :     1.184695  s :     1.184695
      pz      :    -0.026140  p :     0.058996
      px      :     0.030668
      py      :     0.054468
 11 H s       :     1.057886  s :     1.057886
      pz      :    -0.010150  p :     0.035598
      px      :    -0.034354
      py      :     0.080101
 12 H s       :     1.154315  s :     1.154315
      pz      :    -0.012980  p :     0.020795
      px      :     0.042656
      py      :    -0.008881
 13 H s       :     1.052416  s :     1.052416
      pz      :     0.046157  p :     0.012700
      px      :    -0.019029
      py      :    -0.014427
 14 H s       :     1.111117  s :     1.111117
      pz      :     0.046345  p :     0.099492
      px      :     0.037541
      py      :     0.015606
 15 H s       :     1.065689  s :     1.065689
      pz      :    -0.023237  p :     0.050585
      px      :     0.010060
      py      :     0.063762


                     *******************************
                     * LOEWDIN POPULATION ANALYSIS *
                     *******************************

----------------------
LOEWDIN ATOMIC CHARGES
----------------------
   0 C :   -0.100963
   1 C :   -0.028695
   2 C :    0.115405
   3 C :   -0.229259
   4 N :    0.202642
   5 N :    0.182594
   6 H :   -0.000811
   7 H :   -0.023864
   8 H :   -0.055039
   9 H :   -0.003556
  10 H :   -0.003221
  11 H :    0.003968
  12 H :    0.014022
  13 H :   -0.024023
  14 H :   -0.030714
  15 H :   -0.018488

-------------------------------
LOEWDIN REDUCED ORBITAL CHARGES
-------------------------------
  0 C s       :     2.682187  s :     2.682187
      pz      :     0.913992  p :     2.714494
      px      :     0.897455
      py      :     0.903048
      dz2     :     0.146395  d :     0.704283
      dxz     :     0.208751
      dyz     :     0.110675
      dx2y2   :     0.156862
      dxy     :     0.081599
  1 C s       :     2.693780  s :     2.693780
      pz      :     0.895411  p :     2.730583
      px      :     0.916731
      py      :     0.918440
      dz2     :     0.191752  d :     0.604333
      dxz     :     0.151218
      dyz     :     0.154877
      dx2y2   :     0.053023
      dxy     :     0.053464
  2 C s       :     2.709080  s :     2.709080
      pz      :     0.917183  p :     2.759855
      px      :     0.914666
      py      :     0.928005
      dz2     :     0.097974  d :     0.415660
      dxz     :     0.087508
      dyz     :     0.033620
      dx2y2   :     0.131361
      dxy     :     0.065197
  3 C s       :     2.630607  s :     2.630607
      pz      :     0.896646  p :     2.520753
      px      :     0.801130
      py      :     0.822977
      dz2     :     0.227392  d :     1.077899
      dxz     :     0.247683
      dyz     :     0.241261
      dx2y2   :     0.213659
      dxy     :     0.147904
  4 N s       :     2.916141  s :     2.916141
      pz      :     1.078289  p :     3.525798
      px      :     1.213924
      py      :     1.233585
      dz2     :     0.044063  d :     0.355418
      dxz     :     0.077280
      dyz     :     0.073711
      dx2y2   :     0.092567
      dxy     :     0.067797
  5 N s       :     2.941437  s :     2.941437
      pz      :     1.071445  p :     3.535599
      px      :     1.206422
      py      :     1.257731
      dz2     :     0.110086  d :     0.340370
      dxz     :     0.106580
      dyz     :     0.066750
      dx2y2   :     0.016997
      dxy     :     0.039957
  6 H s       :     0.653229  s :     0.653229
      pz      :     0.079464  p :     0.347581
      px      :     0.122091
      py      :     0.146026
  7 H s       :     0.670611  s :     0.670611
      pz      :     0.117116  p :     0.353254
      px      :     0.125001
      py      :     0.111137
  8 H s       :     0.755591  s :     0.755591
      pz      :     0.072807  p :     0.299448
      px      :     0.109448
      py      :     0.117193
  9 H s       :     0.640033  s :     0.640033
      pz      :     0.142617  p :     0.363523
      px      :     0.123356
      py      :     0.097550
 10 H s       :     0.661682  s :     0.661682
      pz      :     0.132274  p :     0.341539
      px      :     0.096329
      py      :     0.112936
 11 H s       :     0.723187  s :     0.723187
      pz      :     0.077204  p :     0.272845
      px      :     0.072374
      py      :     0.123268
 12 H s       :     0.734243  s :     0.734243
      pz      :     0.086378  p :     0.251735
      px      :     0.097317
      py      :     0.068040
 13 H s       :     0.747528  s :     0.747528
      pz      :     0.125473  p :     0.276495
      px      :     0.070851
      py      :     0.080170
 14 H s       :     0.743240  s :     0.743240
      pz      :     0.099527  p :     0.287474
      px      :     0.103254
      py      :     0.084693
 15 H s       :     0.743473  s :     0.743473
      pz      :     0.074704  p :     0.275015
      px      :     0.071273
      py      :     0.129038


                      *****************************
                      * MAYER POPULATION ANALYSIS *
                      *****************************

  NA   - Mulliken gross atomic population
  ZA   - Total nuclear charge
  QA   - Mulliken gross atomic charge
  VA   - Mayer's total valence
  BVA  - Mayer's bonded valence
  FA   - Mayer's free valence

  ATOM       NA         ZA         QA         VA         BVA        FA
  0 C      5.9904     6.0000     0.0096     5.0272     5.0272     0.0000
  1 C      6.3086     6.0000    -0.3086     4.7074     4.7074     0.0000
  2 C      5.1252     6.0000     0.8748     3.6799     3.6799     0.0000
  3 C      5.2533     6.0000     0.7467     3.3470     3.3470    -0.0000
  4 N      6.7232     7.0000     0.2768     3.9100     3.9100     0.0000
  5 N      6.9640     7.0000     0.0360     3.5494     3.5494     0.0000
  6 H      1.0484     1.0000    -0.0484     0.8896     0.8896     0.0000
  7 H      1.1395     1.0000    -0.1395     1.0326     1.0326     0.0000
  8 H      1.4167     1.0000    -0.4167     1.1806     1.1806     0.0000
  9 H      1.1265     1.0000    -0.1265     0.9641     0.9641     0.0000
 10 H      1.2437     1.0000    -0.2437     0.9730     0.9730     0.0000
 11 H      1.0935     1.0000    -0.0935     1.1286     1.1286     0.0000
 12 H      1.1751     1.0000    -0.1751     1.0314     1.0314     0.0000
 13 H      1.0651     1.0000    -0.0651     1.0096     1.0096    -0.0000
 14 H      1.2106     1.0000    -0.2106     1.1808     1.1808    -0.0000
 15 H      1.1163     1.0000    -0.1163     1.0541     1.0541     0.0000

  Mayer bond orders larger than 0.100000
B(  0-C ,  1-C ) :   1.1674 B(  0-C ,  2-C ) :   1.1894 B(  0-C ,  8-H ) :   0.2539 
B(  0-C , 11-H ) :   0.7957 B(  0-C , 12-H ) :   0.8221 B(  0-C , 13-H ) :   0.1777 
B(  0-C , 14-H ) :   0.2230 B(  0-C , 15-H ) :   0.2460 B(  1-C ,  3-C ) :   1.5489 
B(  1-C ,  4-N ) :   0.3104 B(  1-C ,  5-N ) :   0.3293 B(  1-C ,  8-H ) :   0.8478 
B(  1-C , 11-H ) :   0.3136 B(  1-C , 12-H ) :   0.2009 B(  2-C , 13-H ) :   0.7726 
B(  2-C , 14-H ) :   0.7831 B(  2-C , 15-H ) :   0.7666 B(  3-C ,  4-N ) :   1.1008 
B(  3-C ,  5-N ) :   0.7901 B(  3-C ,  8-H ) :   0.1106 B(  3-C , 11-H ) :  -0.1231 
B(  4-N ,  9-H ) :   1.1107 B(  4-N , 10-H ) :   1.2241 B(  5-N ,  6-H ) :   1.0803 
B(  5-N ,  7-H ) :   1.1373 B(  6-H ,  7-H ) :  -0.1191 B(  9-H , 10-H ) :  -0.1654 


-------
TIMINGS
-------

Total SCF time: 0 days 0 hours 0 min 38 sec 

Total time                  ....      38.260 sec
Sum of individual times     ....      37.921 sec  ( 99.1%)

Fock matrix formation       ....      36.561 sec  ( 95.6%)
  Split-RI-J                ....       1.395 sec  (  3.8% of F)
  Chain of spheres X        ....      30.714 sec  ( 84.0% of F)
  XC integration            ....       4.410 sec  ( 12.1% of F)
    Basis function eval.    ....       1.307 sec  ( 29.6% of XC)
    Density eval.           ....       0.993 sec  ( 22.5% of XC)
    XC-Functional eval.     ....       0.609 sec  ( 13.8% of XC)
    XC-Potential eval.      ....       1.317 sec  ( 29.9% of XC)
Diagonalization             ....       0.061 sec  (  0.2%)
Density matrix formation    ....       0.005 sec  (  0.0%)
Population analysis         ....       0.013 sec  (  0.0%)
Initial guess               ....       0.179 sec  (  0.5%)
Orbital Transformation      ....       0.000 sec  (  0.0%)
Orbital Orthonormalization  ....       0.000 sec  (  0.0%)
DIIS solution               ....       0.033 sec  (  0.1%)
SOSCF solution              ....       0.041 sec  (  0.1%)
Grid generation             ....       1.026 sec  (  2.7%)

Maximum memory used throughout the entire SCF-calculation: 55.0 MB

-------------------------   --------------------
FINAL SINGLE POINT ENERGY      -267.594804064653
-------------------------   --------------------


                            ***************************************
                            *     ORCA property calculations      *
                            ***************************************

                                    ---------------------
                                    Active property flags
                                    ---------------------
   (+) Dipole Moment


------------------------------------------------------------------------------
                       ORCA ELECTRIC PROPERTIES CALCULATION
------------------------------------------------------------------------------

Dipole Moment Calculation                       ... on
Quadrupole Moment Calculation                   ... off
Polarizability Calculation                      ... off
GBWName                                         ... SVPD_CAMB3LYP_C1_wt_dlpno_pos.gbw
Electron density file                           ... SVPD_CAMB3LYP_C1_wt_dlpno_pos.scfp
The origin for moment calculation is the CENTER OF MASS  = ( 8.775470, -2.923501 -8.214272)

-------------
DIPOLE MOMENT
-------------
                                X             Y             Z
Electronic contribution:      1.22348       1.37928       4.49721
Nuclear contribution   :     -1.82485      -1.28952      -3.74132
                        -----------------------------------------
Total Dipole Moment    :     -0.60137       0.08976       0.75590
                        -----------------------------------------
Magnitude (a.u.)       :      0.97010
Magnitude (Debye)      :      2.46579



--------------------
Rotational spectrum 
--------------------
 
Rotational constants in cm-1:     0.245790     0.071632     0.062004 
Rotational constants in MHz :  7368.599517  2147.482078  1858.844841 

 Dipole components along the rotational axes: 
x,y,z [a.u.] :     0.651435     0.483980     0.531491 
x,y,z [Debye]:     1.655816     1.230180     1.350943 

 

Timings for individual modules:

Sum of individual times         ...       42.499 sec (=   0.708 min)
GTO integral calculation        ...        2.369 sec (=   0.039 min)   5.6 %
SCF iterations                  ...       40.130 sec (=   0.669 min)  94.4 %
                             ****ORCA TERMINATED NORMALLY****
TOTAL RUN TIME: 0 days 0 hours 0 minutes 42 seconds 939 msec
