
                                        *****************
                                        * O   R   C   A *
                                        *****************

                                            #,                                       
                                            ###                                      
                                            ####                                     
                                            #####                                    
                                            ######                                   
                                           ########,                                 
                                     ,,################,,,,,                         
                               ,,#################################,,                 
                          ,,##########################################,,             
                       ,#########################################, ''#####,          
                    ,#############################################,,   '####,        
                  ,##################################################,,,,####,       
                ,###########''''           ''''###############################       
              ,#####''   ,,,,##########,,,,          '''####'''          '####       
            ,##' ,,,,###########################,,,                        '##       
           ' ,,###''''                  '''############,,,                           
         ,,##''                                '''############,,,,        ,,,,,,###''
      ,#''                                            '''#######################'''  
     '                                                          ''''####''''         
             ,#######,   #######,   ,#######,      ##                                
            ,#'     '#,  ##    ##  ,#'     '#,    #''#        ######   ,####,        
            ##       ##  ##   ,#'  ##            #'  '#       #        #'  '#        
            ##       ##  #######   ##           ,######,      #####,   #    #        
            '#,     ,#'  ##    ##  '#,     ,#' ,#      #,         ##   #,  ,#        
             '#######'   ##     ##  '#######'  #'      '#     #####' # '####'        



                  #######################################################
                  #                        -***-                        #
                  #          Department of theory and spectroscopy      #
                  #    Directorship and core code : Frank Neese         #
                  #        Max Planck Institute fuer Kohlenforschung    #
                  #                Kaiser Wilhelm Platz 1               #
                  #                 D-45470 Muelheim/Ruhr               #
                  #                      Germany                        #
                  #                                                     #
                  #                  All rights reserved                #
                  #                        -***-                        #
                  #######################################################


                         Program Version 5.0.0 -  RELEASE  -
                                (SVN: $Rev: 19529$)
                ($Date: 2021-06-28 11:36:33 +0200 (Mo, 28 Jun 2021) $)


 With contributions from (in alphabetic order):
   Daniel Aravena         : Magnetic Suceptibility
   Michael Atanasov       : Ab Initio Ligand Field Theory (pilot matlab implementation)
   Alexander A. Auer      : GIAO ZORA, VPT2 properties, NMR spectrum
   Ute Becker             : Parallelization
   Giovanni Bistoni       : ED, misc. LED, open-shell LED, HFLD
   Martin Brehm           : Molecular dynamics
   Dmytro Bykov           : SCF Hessian
   Vijay G. Chilkuri      : MRCI spin determinant printing, contributions to CSF-ICE
   Dipayan Datta          : RHF DLPNO-CCSD density
   Achintya Kumar Dutta   : EOM-CC, STEOM-CC
   Dmitry Ganyushin       : Spin-Orbit,Spin-Spin,Magnetic field MRCI
   Miquel Garcia          : C-PCM Hessian, Gaussian charge scheme
   Yang Guo               : DLPNO-NEVPT2, F12-NEVPT2, CIM, IAO-localization
   Andreas Hansen         : Spin unrestricted coupled pair/coupled cluster methods
   Benjamin Helmich-Paris : MC-RPA, TRAH-SCF, COSX integrals
   Lee Huntington         : MR-EOM, pCC
   Robert Izsak           : Overlap fitted RIJCOSX, COSX-SCS-MP3, EOM
   Marcus Kettner         : VPT2
   Christian Kollmar      : KDIIS, OOCD, Brueckner-CCSD(T), CCSD density, CASPT2, CASPT2-K
   Simone Kossmann        : Meta GGA functionals, TD-DFT gradient, OOMP2, MP2 Hessian
   Martin Krupicka        : Initial AUTO-CI
   Lucas Lang             : DCDCAS
   Marvin Lechner         : AUTO-CI (C++ implementation), FIC-MRCC
   Dagmar Lenk            : GEPOL surface, SMD
   Dimitrios Liakos       : Extrapolation schemes; Compound Job, initial MDCI parallelization
   Dimitrios Manganas     : Further ROCIS development; embedding schemes
   Dimitrios Pantazis     : SARC Basis sets
   Anastasios Papadopoulos: AUTO-CI, single reference methods and gradients
   Taras Petrenko         : DFT Hessian,TD-DFT gradient, ASA, ECA, R-Raman, ABS, FL, XAS/XES, NRVS
   Peter Pinski           : DLPNO-MP2, DLPNO-MP2 Gradient
   Christoph Reimann      : Effective Core Potentials
   Marius Retegan         : Local ZFS, SOC
   Christoph Riplinger    : Optimizer, TS searches, QM/MM, DLPNO-CCSD(T), (RO)-DLPNO pert. Triples
   Tobias Risthaus        : Range-separated hybrids, TD-DFT gradient, RPA, STAB
   Michael Roemelt        : Original ROCIS implementation
   Masaaki Saitow         : Open-shell DLPNO-CCSD energy and density
   Barbara Sandhoefer     : DKH picture change effects
   Avijit Sen             : IP-ROCIS
   Kantharuban Sivalingam : CASSCF convergence, NEVPT2, FIC-MRCI
   Bernardo de Souza      : ESD, SOC TD-DFT
   Georgi Stoychev        : AutoAux, RI-MP2 NMR
   Willem Van den Heuvel  : Paramagnetic NMR
   Boris Wezisla          : Elementary symmetry handling
   Frank Wennmohs         : Technical directorship


 We gratefully acknowledge several colleagues who have allowed us to
 interface, adapt or use parts of their codes:
   Stefan Grimme, W. Hujo, H. Kruse, P. Pracht,  : VdW corrections, initial TS optimization,
                  C. Bannwarth, S. Ehlert          DFT functionals, gCP, sTDA/sTD-DF
   Ed Valeev, F. Pavosevic, A. Kumar             : LibInt (2-el integral package), F12 methods
   Garnet Chan, S. Sharma, J. Yang, R. Olivares  : DMRG
   Ulf Ekstrom                                   : XCFun DFT Library
   Mihaly Kallay                                 : mrcc  (arbitrary order and MRCC methods)
   Jiri Pittner, Ondrej Demel                    : Mk-CCSD
   Frank Weinhold                                : gennbo (NPA and NBO analysis)
   Christopher J. Cramer and Donald G. Truhlar   : smd solvation model
   Lars Goerigk                                  : TD-DFT with DH, B97 family of functionals
   V. Asgeirsson, H. Jonsson                     : NEB implementation
   FAccTs GmbH                                   : IRC, NEB, NEB-TS, DLPNO-Multilevel, CI-OPT
                                                   MM, QMMM, 2- and 3-layer-ONIOM, Crystal-QMMM,
                                                   LR-CPCM, SF, NACMEs, symmetry and pop. for TD-DFT,
                                                   nearIR, NL-DFT gradient (VV10), updates on ESD,
                                                   ML-optimized integration grids
   S Lehtola, MJT Oliveira, MAL Marques          : LibXC Library
   Liviu Ungur et al                             : ANISO software


 Your calculation uses the libint2 library for the computation of 2-el integrals
 For citations please refer to: http://libint.valeyev.net

 Your ORCA version has been built with support for libXC version: 5.1.0
 For citations please refer to: https://tddft.org/programs/libxc/

 This ORCA versions uses:
   CBLAS   interface :  Fast vector & matrix operations
   LAPACKE interface :  Fast linear algebra routines
   SCALAPACK package :  Parallel linear algebra routines
   Shared memory     :  Shared parallel matrices
   BLAS/LAPACK       :  OpenBLAS 0.3.15  USE64BITINT DYNAMIC_ARCH NO_AFFINITY Haswell SINGLE_THREADED
        Core in use  :  Haswell
   Copyright (c) 2011-2014, The OpenBLAS Project


Your calculation utilizes the atom-pairwise dispersion correction
with the Becke-Johnson damping scheme (D3BJ)
Cite in your paper:
S.Grimme, S.Ehrlich, L.Goerigk, J Comput Chem, (2011), 32, 1456–1465 
S.Grimme, J.Antony, S.Ehrlich and H.Krieg, J.Chem.Phys., 132, (2010), 154104 
   

================================================================================

----- Orbital basis set information -----
Your calculation utilizes the basis: def2-SVP
   F. Weigend and R. Ahlrichs, Phys. Chem. Chem. Phys. 7, 3297 (2005).

----- AuxJ basis set information -----
Your calculation utilizes the auxiliary basis: def2/J
   F. Weigend, Phys. Chem. Chem. Phys. 8, 1057 (2006).

================================================================================
                                        WARNINGS
                       Please study these warnings very carefully!
================================================================================



WARNING: Found flag for RIJCOSX approximation but no HF exchange needed!
  ===> : RIJCOSX  will be disabled and Split-RI-J is turned on

INFO   : the flag for use of the SHARK integral package has been found!

================================================================================
                                       INPUT FILE
================================================================================
NAME = SVP_PBE_C1_wt_dlpno_neg.com
|  1> !PBE D3BJ RIJCOSX def2-SVP def2/J TightSCF
|  2> *xyz 0 1
|  3> C         -7.33044       -2.67899       -3.20681
|  4> S         -6.01966       -2.92697       -4.41913
|  5> F         -5.64583       -1.58838       -4.91931
|  6> O         -4.88196       -3.50370       -3.66724
|  7> O         -6.54927       -3.80515       -5.42507
|  8> C         -7.46900       -1.24615       -2.71383
|  9> H         -7.11825       -3.37982       -2.39805
| 10> H         -8.24184       -3.00474       -3.70651
| 11> H         -7.67580       -0.60214       -3.54292
| 12> H         -6.55749       -0.94096       -2.24382
| 13> H         -8.27114       -1.18777       -2.00810
| 14> *
| 15> %MaxCore 64000
| 16> 
| 17> %pal nprocs 4
| 18> end  
| 19> 
| 20> %scf
| 21>   MaxIter 150
| 22> end
| 23> 
| 24> 
| 25>                          ****END OF INPUT****
================================================================================

                       ****************************
                       * Single Point Calculation *
                       ****************************

---------------------------------
CARTESIAN COORDINATES (ANGSTROEM)
---------------------------------
  C     -7.330440   -2.678990   -3.206810
  S     -6.019660   -2.926970   -4.419130
  F     -5.645830   -1.588380   -4.919310
  O     -4.881960   -3.503700   -3.667240
  O     -6.549270   -3.805150   -5.425070
  C     -7.469000   -1.246150   -2.713830
  H     -7.118250   -3.379820   -2.398050
  H     -8.241840   -3.004740   -3.706510
  H     -7.675800   -0.602140   -3.542920
  H     -6.557490   -0.940960   -2.243820
  H     -8.271140   -1.187770   -2.008100

----------------------------
CARTESIAN COORDINATES (A.U.)
----------------------------
  NO LB      ZA    FRAG     MASS         X           Y           Z
   0 C     6.0000    0    12.011  -13.852524   -5.062557   -6.059993
   1 S    16.0000    0    32.060  -11.375509   -5.531172   -8.350945
   2 F     9.0000    0    18.998  -10.669072   -3.001603   -9.296149
   3 O     8.0000    0    15.999   -9.225567   -6.621033   -6.930079
   4 O     8.0000    0    15.999  -12.376327   -7.190691  -10.251897
   5 C     6.0000    0    12.011  -14.114364   -2.354882   -5.128395
   6 H     1.0000    0     1.008  -13.451543   -6.386934   -4.531658
   7 H     1.0000    0     1.008  -15.574820   -5.678136   -7.004289
   8 H     1.0000    0     1.008  -14.505160   -1.137880   -6.695149
   9 H     1.0000    0     1.008  -12.391860   -1.778157   -4.240205
  10 H     1.0000    0     1.008  -15.630189   -2.244560   -3.794759

--------------------------------
INTERNAL COORDINATES (ANGSTROEM)
--------------------------------
 C      0   0   0     0.000000000000     0.00000000     0.00000000
 S      1   0   0     1.802597589924     0.00000000     0.00000000
 F      2   1   0     1.477075519193   106.68484156     0.00000000
 O      2   1   3     1.480647613377   105.71170368   116.27732212
 O      2   1   3     1.436524329101   106.67637160   237.53370600
 C      1   2   3     1.521597390771   114.43469957   344.25628115
 H      1   2   3     1.090999552062   105.59041318   220.00070323
 H      1   2   3     1.089248875372   104.99648834   105.87797466
 H      6   1   2     1.070002499156   109.47078658    59.49944213
 H      6   1   2     1.070000381449   109.47091758   299.49982289
 H      6   1   2     1.069996092002   109.47134776   179.49931912

---------------------------
INTERNAL COORDINATES (A.U.)
---------------------------
 C      0   0   0     0.000000000000     0.00000000     0.00000000
 S      1   0   0     3.406415774623     0.00000000     0.00000000
 F      2   1   0     2.791268210395   106.68484156     0.00000000
 O      2   1   3     2.798018490127   105.71170368   116.27732212
 O      2   1   3     2.714637566716   106.67637160   237.53370600
 C      1   2   3     2.875402354646   114.43469957   344.25628115
 H      1   2   3     2.061690365628   105.59041318   220.00070323
 H      1   2   3     2.058382066136   104.99648834   105.87797466
 H      6   1   2     2.022011686016   109.47078658    59.49944213
 H      6   1   2     2.022007684129   109.47091758   299.49982289
 H      6   1   2     2.021999578250   109.47134776   179.49931912

---------------------
BASIS SET INFORMATION
---------------------
There are 5 groups of distinct atoms

 Group   1 Type C   : 7s4p1d contracted to 3s2p1d pattern {511/31/1}
 Group   2 Type S   : 10s7p1d contracted to 4s3p1d pattern {5311/511/1}
 Group   3 Type F   : 7s4p1d contracted to 3s2p1d pattern {511/31/1}
 Group   4 Type O   : 7s4p1d contracted to 3s2p1d pattern {511/31/1}
 Group   5 Type H   : 4s1p contracted to 2s1p pattern {31/1}

Atom   0C    basis set group =>   1
Atom   1S    basis set group =>   2
Atom   2F    basis set group =>   3
Atom   3O    basis set group =>   4
Atom   4O    basis set group =>   4
Atom   5C    basis set group =>   1
Atom   6H    basis set group =>   5
Atom   7H    basis set group =>   5
Atom   8H    basis set group =>   5
Atom   9H    basis set group =>   5
Atom  10H    basis set group =>   5
---------------------------------
AUXILIARY/J BASIS SET INFORMATION
---------------------------------
There are 5 groups of distinct atoms

 Group   1 Type C   : 12s5p4d2f1g contracted to 6s4p3d1f1g pattern {711111/2111/211/2/1}
 Group   2 Type S   : 14s5p5d2f1g contracted to 8s4p3d1f1g pattern {71111111/2111/311/2/1}
 Group   3 Type F   : 12s5p4d2f1g contracted to 6s4p3d1f1g pattern {711111/2111/211/2/1}
 Group   4 Type O   : 12s5p4d2f1g contracted to 6s4p3d1f1g pattern {711111/2111/211/2/1}
 Group   5 Type H   : 5s2p1d contracted to 3s1p1d pattern {311/2/1}

Atom   0C    basis set group =>   1
Atom   1S    basis set group =>   2
Atom   2F    basis set group =>   3
Atom   3O    basis set group =>   4
Atom   4O    basis set group =>   4
Atom   5C    basis set group =>   1
Atom   6H    basis set group =>   5
Atom   7H    basis set group =>   5
Atom   8H    basis set group =>   5
Atom   9H    basis set group =>   5
Atom  10H    basis set group =>   5


           ************************************************************
           *        Program running with 4 parallel MPI-processes     *
           *              working on a common directory               *
           ************************************************************
------------------------------------------------------------------------------
                           ORCA GTO INTEGRAL CALCULATION
                           -- RI-GTO INTEGRALS CHOSEN --
------------------------------------------------------------------------------
------------------------------------------------------------------------------
                   ___                                                        
                  /   \      - P O W E R E D   B Y -                         
                 /     \                                                     
                 |  |  |   _    _      __       _____    __    __             
                 |  |  |  | |  | |    /  \     |  _  \  |  |  /  |          
                  \  \/   | |  | |   /    \    | | | |  |  | /  /          
                 / \  \   | |__| |  /  /\  \   | |_| |  |  |/  /          
                |  |  |   |  __  | /  /__\  \  |    /   |      \           
                |  |  |   | |  | | |   __   |  |    \   |  |\   \          
                \     /   | |  | | |  |  |  |  | |\  \  |  | \   \       
                 \___/    |_|  |_| |__|  |__|  |_| \__\ |__|  \__/        
                                                                              
                      - O R C A' S   B I G   F R I E N D -                    
                                      &                                       
                       - I N T E G R A L  F E E D E R -                       
                                                                              
 v1 FN, 2020, v2 2021                                                         
------------------------------------------------------------------------------


Reading SHARK input file SVP_PBE_C1_wt_dlpno_neg.SHARKINP.tmp ... ok
----------------------
SHARK INTEGRAL PACKAGE
----------------------

Number of atoms                             ...     11
Number of basis functions                   ...    113
Number of shells                            ...     53
Maximum angular momentum                    ...      2
Integral batch strategy                     ... SHARK/LIBINT Hybrid
RI-J (if used) integral strategy            ... SPLIT-RIJ (Revised 2003 algorithm where possible)
Printlevel                                  ...      1
Contraction scheme used                     ... SEGMENTED contraction
Coulomb Range Separation                    ... NOT USED
Exchange Range Separation                   ... NOT USED
Finite Nucleus Model                        ... NOT USED
Auxiliary Coulomb fitting basis             ... AVAILABLE
   # of basis functions in Aux-J            ...    351
   # of shells in Aux-J                     ...    117
   Maximum angular momentum in Aux-J        ...      4
Auxiliary J/K fitting basis                 ... NOT available
Auxiliary Correlation fitting basis         ... NOT available
Auxiliary 'external' fitting basis          ... NOT available
Integral threshold                          ...     2.500000e-11
Primitive cut-off                           ...     2.500000e-12
Primitive pair pre-selection threshold      ...     2.500000e-12

Calculating pre-screening integrals         ... done (  0.0 sec) Dimension = 53
Organizing shell pair data                  ... done (  0.0 sec)
Shell pair information
Total number of shell pairs                 ...      1431
Shell pairs after pre-screening             ...      1385
Total number of primitive shell pairs       ...      5459
Primitive shell pairs kept                  ...      3981
          la=0 lb=0:    415 shell pairs
          la=1 lb=0:    506 shell pairs
          la=1 lb=1:    168 shell pairs
          la=2 lb=0:    169 shell pairs
          la=2 lb=1:    106 shell pairs
          la=2 lb=2:     21 shell pairs

Calculating one electron integrals          ... done (  0.0 sec)
Calculating RI/J V-Matrix + Cholesky decomp.... done (  0.0 sec)
Calculating Nuclear repulsion               ... done (  0.0 sec) ENN=    361.884692468490 Eh

SHARK setup successfully completed in   0.1 seconds

Maximum memory used throughout the entire GTOINT-calculation: 8.8 MB


           ************************************************************
           *        Program running with 4 parallel MPI-processes     *
           *              working on a common directory               *
           ************************************************************
-------------------------------------------------------------------------------
                                 ORCA SCF
-------------------------------------------------------------------------------

------------
SCF SETTINGS
------------
Hamiltonian:
 Density Functional     Method          .... DFT(GTOs)
 Exchange Functional    Exchange        .... PBE
   PBE kappa parameter   XKappa         ....  0.804000
   PBE mue parameter    XMuePBE         ....  0.219520
 Correlation Functional Correlation     .... PBE
   PBE beta parameter  CBetaPBE         ....  0.066725
 LDA part of GGA corr.  LDAOpt          .... PW91-LDA
 Gradients option       PostSCFGGA      .... off
   Density functional embedding theory  .... OFF
   NL short-range parameter             ....  6.400000
 RI-approximation to the Coulomb term is turned on
   Number of AuxJ basis functions       .... 351


General Settings:
 Integral files         IntName         .... SVP_PBE_C1_wt_dlpno_neg
 Hartree-Fock type      HFTyp           .... RHF
 Total Charge           Charge          ....    0
 Multiplicity           Mult            ....    1
 Number of Electrons    NEL             ....   58
 Basis Dimension        Dim             ....  113
 Nuclear Repulsion      ENuc            ....    361.8846924685 Eh

Convergence Acceleration:
 DIIS                   CNVDIIS         .... on
   Start iteration      DIISMaxIt       ....    12
   Startup error        DIISStart       ....  0.200000
   # of expansion vecs  DIISMaxEq       ....     5
   Bias factor          DIISBfac        ....   1.050
   Max. coefficient     DIISMaxC        ....  10.000
 Trust-Rad. Augm. Hess. CNVTRAH         .... auto
   Auto Start mean grad. ratio tolernc. ....  1.125000
   Auto Start start iteration           ....    20
   Auto Start num. interpolation iter.  ....    10
   Max. Number of Micro iterations      ....    16
   Max. Number of Macro iterations      .... Maxiter - #DIIS iter
   Number of Davidson start vectors     ....     2
   Converg. threshold I  (grad. norm)   ....   1.000e-05
   Converg. threshold II (energy diff.) ....   1.000e-08
   Grad. Scal. Fac. for Micro threshold ....   0.100
   Minimum threshold for Micro iter.    ....   0.010
   NR start threshold (gradient norm)   ....   0.001
   Initial trust radius                 ....   0.400
   Minimum AH scaling param. (alpha)    ....   1.000
   Maximum AH scaling param. (alpha)    .... 1000.000
   Orbital update algorithm             .... Taylor
   White noise on init. David. guess    .... on
   Maximum white noise                  ....   0.010
   Quad. conv. algorithm                .... NR
 SOSCF                  CNVSOSCF        .... on
   Start iteration      SOSCFMaxIt      ....   150
   Startup grad/error   SOSCFStart      ....  0.003300
 Level Shifting         CNVShift        .... on
   Level shift para.    LevelShift      ....    0.2500
   Turn off err/grad.   ShiftErr        ....    0.0010
 Zerner damping         CNVZerner       .... off
 Static damping         CNVDamp         .... on
   Fraction old density DampFac         ....    0.7000
   Max. Damping (<1)    DampMax         ....    0.9800
   Min. Damping (>=0)   DampMin         ....    0.0000
   Turn off err/grad.   DampErr         ....    0.1000
 Fernandez-Rico         CNVRico         .... off

SCF Procedure:
 Maximum # iterations   MaxIter         ....   150
 SCF integral mode      SCFMode         .... Direct
   Integral package                     .... SHARK and LIBINT hybrid scheme
 Reset frequency        DirectResetFreq ....    20
 Integral Threshold     Thresh          ....  2.500e-11 Eh
 Primitive CutOff       TCut            ....  2.500e-12 Eh

Convergence Tolerance:
 Convergence Check Mode ConvCheckMode   .... Total+1el-Energy
 Convergence forced     ConvForced      .... 0
 Energy Change          TolE            ....  1.000e-08 Eh
 1-El. energy change                    ....  1.000e-05 Eh
 Orbital Gradient       TolG            ....  1.000e-05
 Orbital Rotation angle TolX            ....  1.000e-05
 DIIS Error             TolErr          ....  5.000e-07


Diagonalization of the overlap matrix:
Smallest eigenvalue                        ... 3.188e-03
Time for diagonalization                   ...    0.003 sec
Threshold for overlap eigenvalues          ... 1.000e-08
Number of eigenvalues below threshold      ... 0
Time for construction of square roots      ...    0.003 sec
Total time needed                          ...    0.007 sec

Time for model grid setup =    0.064 sec

------------------------------
INITIAL GUESS: MODEL POTENTIAL
------------------------------
Loading Hartree-Fock densities                     ... done
Calculating cut-offs                               ... done
Initializing the effective Hamiltonian             ... done
Setting up the integral package (SHARK)            ... done
Starting the Coulomb interaction                   ... done (   0.0 sec)
Reading the grid                                   ... done
Mapping shells                                     ... done
Starting the XC term evaluation                    ... done (   0.0 sec)
  promolecular density results
     # of electrons  =     57.997221078
     EX              =    -63.043654469
     EC              =     -2.062194544
     EX+EC           =    -65.105849013
Transforming the Hamiltonian                       ... done (   0.0 sec)
Diagonalizing the Hamiltonian                      ... done (   0.0 sec)
Back transforming the eigenvectors                 ... done (   0.0 sec)
Now organizing SCF variables                       ... done
                      ------------------
                      INITIAL GUESS DONE (   0.1 sec)
                      ------------------
-------------------
DFT GRID GENERATION
-------------------

General Integration Accuracy     IntAcc      ... 4.388
Radial Grid Type                 RadialGrid  ... OptM3 with GC (2021)
Angular Grid (max. ang.)         AngularGrid ... 4 (Lebedev-302)
Angular grid pruning method      GridPruning ... 4 (adaptive)
Weight generation scheme         WeightScheme... Becke
Basis function cutoff            BFCut       ... 1.0000e-11
Integration weight cutoff        WCut        ... 1.0000e-14
Angular grids for H and He will be reduced by one unit
Partially contracted basis set               ... off
Rotationally invariant grid construction     ... off

Total number of grid points                  ...    53897
Total number of batches                      ...      848
Average number of points per batch           ...       63
Average number of grid points per atom       ...     4900
Time for grid setup =    0.422 sec

--------------
SCF ITERATIONS
--------------
ITER       Energy         Delta-E        Max-DP      RMS-DP      [F,P]     Damp
               ***  Starting incremental Fock matrix formation  ***
  0   -726.3707142005   0.000000000000 0.26751538  0.00576988  0.2918126 0.7000
  1   -726.5529782319  -0.182264031441 0.10324297  0.00287150  0.0768009 0.7000
                               ***Turning on DIIS***
  2   -726.5941311583  -0.041152926364 0.04911302  0.00286806  0.0293391 0.0000
  3   -726.7058011821  -0.111670023868 0.06682111  0.00195885  0.0489676 0.0000
  4   -726.7127857523  -0.006984570209 0.02681921  0.00066379  0.0344390 0.0000
  5   -726.7167772138  -0.003991461461 0.01174866  0.00024441  0.0070648 0.0000
  6   -726.7171147721  -0.000337558268 0.00204745  0.00010044  0.0036480 0.0000
                      *** Initiating the SOSCF procedure ***
                           *** Shutting down DIIS ***
                      *** Re-Reading the Fockian *** 
                      *** Removing any level shift *** 
ITER      Energy       Delta-E        Grad      Rot      Max-DP    RMS-DP
  7   -726.71715769  -0.0000429201  0.000174  0.000174  0.000901  0.000034
               *** Restarting incremental Fock matrix formation ***
  8   -726.71716019  -0.0000025024  0.000149  0.000228  0.000805  0.000025
  9   -726.71715914   0.0000010526  0.000261  0.000158  0.000523  0.000016
 10   -726.71716062  -0.0000014735  0.000030  0.000084  0.000200  0.000007
 11   -726.71716050   0.0000001124  0.000072  0.000059  0.000139  0.000005
 12   -726.71716064  -0.0000001345  0.000005  0.000015  0.000050  0.000002
 13   -726.71716063   0.0000000038  0.000011  0.000012  0.000039  0.000001
                  ***Gradient check signals convergence***
              ***Rediagonalizing the Fockian in SOSCF/NRSCF***

               *****************************************************
               *                     SUCCESS                       *
               *           SCF CONVERGED AFTER  14 CYCLES          *
               *****************************************************


----------------
TOTAL SCF ENERGY
----------------

Total Energy       :         -726.71716064 Eh          -19774.97928 eV

Components:
Nuclear Repulsion  :          361.88469247 Eh            9847.38311 eV
Electronic Energy  :        -1088.60185311 Eh          -29622.36239 eV
One Electron Energy:        -1719.07900271 Eh          -46778.51784 eV
Two Electron Energy:          630.47714961 Eh           17156.15544 eV

Virial components:
Potential Energy   :        -1450.60289079 Eh          -39472.91142 eV
Kinetic Energy     :          723.88573015 Eh           19697.93214 eV
Virial Ratio       :            2.00391143


DFT components:
N(Alpha)           :       28.999998068070 electrons
N(Beta)            :       28.999998068070 electrons
N(Total)           :       57.999996136140 electrons
E(X)               :      -63.606167444074 Eh       
E(C)               :       -2.072408980414 Eh       
E(XC)              :      -65.678576424488 Eh       
DFET-embed. en.    :        0.000000000000 Eh       

---------------
SCF CONVERGENCE
---------------

  Last Energy change         ...   -5.4491e-09  Tolerance :   1.0000e-08
  Last MAX-Density change    ...    1.4576e-05  Tolerance :   1.0000e-07
  Last RMS-Density change    ...    4.7301e-07  Tolerance :   5.0000e-09
  Last Orbital Gradient      ...    2.0748e-06  Tolerance :   1.0000e-05
  Last Orbital Rotation      ...    4.3075e-06  Tolerance :   1.0000e-05

             **** THE GBW FILE WAS UPDATED (SVP_PBE_C1_wt_dlpno_neg.gbw) ****
             **** DENSITY SVP_PBE_C1_wt_dlpno_neg.scfp WAS UPDATED ****
             **** ENERGY FILE WAS UPDATED (SVP_PBE_C1_wt_dlpno_neg.en.tmp) ****
             **** THE GBW FILE WAS UPDATED (SVP_PBE_C1_wt_dlpno_neg.gbw) ****
             **** DENSITY SVP_PBE_C1_wt_dlpno_neg.scfp WAS UPDATED ****
----------------
ORBITAL ENERGIES
----------------

  NO   OCC          E(Eh)            E(eV) 
   0   2.0000     -88.277138     -2402.1431 
   1   2.0000     -24.352290      -662.6595 
   2   2.0000     -18.757335      -510.4130 
   3   2.0000     -18.742042      -509.9969 
   4   2.0000      -9.948969      -270.7252 
   5   2.0000      -9.920680      -269.9554 
   6   2.0000      -7.891365      -214.7349 
   7   2.0000      -5.921949      -161.1444 
   8   2.0000      -5.915555      -160.9704 
   9   2.0000      -5.914257      -160.9351 
  10   2.0000      -1.230015       -33.4704 
  11   2.0000      -1.005220       -27.3534 
  12   2.0000      -0.904518       -24.6132 
  13   2.0000      -0.747170       -20.3315 
  14   2.0000      -0.645269       -17.5587 
  15   2.0000      -0.603663       -16.4265 
  16   2.0000      -0.517661       -14.0863 
  17   2.0000      -0.490217       -13.3395 
  18   2.0000      -0.470042       -12.7905 
  19   2.0000      -0.443700       -12.0737 
  20   2.0000      -0.412525       -11.2254 
  21   2.0000      -0.395698       -10.7675 
  22   2.0000      -0.378434       -10.2977 
  23   2.0000      -0.365992        -9.9592 
  24   2.0000      -0.348211        -9.4753 
  25   2.0000      -0.323896        -8.8137 
  26   2.0000      -0.277142        -7.5414 
  27   2.0000      -0.260851        -7.0981 
  28   2.0000      -0.246197        -6.6994 
  29   0.0000      -0.010959        -0.2982 
  30   0.0000       0.034474         0.9381 
  31   0.0000       0.048705         1.3253 
  32   0.0000       0.054335         1.4785 
  33   0.0000       0.074603         2.0300 
  34   0.0000       0.075967         2.0672 
  35   0.0000       0.080927         2.2021 
  36   0.0000       0.102953         2.8015 
  37   0.0000       0.138507         3.7690 
  38   0.0000       0.180755         4.9186 
  39   0.0000       0.315346         8.5810 
  40   0.0000       0.356839         9.7101 
  41   0.0000       0.378272        10.2933 
  42   0.0000       0.395314        10.7570 
  43   0.0000       0.420305        11.4371 
  44   0.0000       0.457240        12.4421 
  45   0.0000       0.544225        14.8091 
  46   0.0000       0.564756        15.3678 
  47   0.0000       0.574974        15.6458 
  48   0.0000       0.587976        15.9997 
  49   0.0000       0.590347        16.0642 
  50   0.0000       0.611421        16.6376 
  51   0.0000       0.635513        17.2932 
  52   0.0000       0.643160        17.5013 
  53   0.0000       0.657921        17.9029 
  54   0.0000       0.680016        18.5042 
  55   0.0000       0.697731        18.9862 
  56   0.0000       0.718074        19.5398 
  57   0.0000       0.793196        21.5839 
  58   0.0000       0.805296        21.9132 
  59   0.0000       0.844513        22.9804 
  60   0.0000       0.928627        25.2692 
  61   0.0000       0.940060        25.5803 
  62   0.0000       0.964476        26.2447 
  63   0.0000       0.984182        26.7810 
  64   0.0000       1.009055        27.4578 
  65   0.0000       1.066161        29.0117 
  66   0.0000       1.083916        29.4949 
  67   0.0000       1.120110        30.4797 
  68   0.0000       1.130394        30.7596 
  69   0.0000       1.206151        32.8210 
  70   0.0000       1.230224        33.4761 
  71   0.0000       1.265910        34.4472 
  72   0.0000       1.279817        34.8256 
  73   0.0000       1.378933        37.5227 
  74   0.0000       1.425232        38.7825 
  75   0.0000       1.470884        40.0248 
  76   0.0000       1.515149        41.2293 
  77   0.0000       1.650764        44.9196 
  78   0.0000       1.662416        45.2366 
  79   0.0000       1.686882        45.9024 
  80   0.0000       1.707324        46.4586 
  81   0.0000       1.751371        47.6572 
  82   0.0000       1.780272        48.4437 
  83   0.0000       1.791680        48.7541 
  84   0.0000       1.819926        49.5227 
  85   0.0000       1.873112        50.9700 
  86   0.0000       2.003186        54.5095 
  87   0.0000       2.092707        56.9454 
  88   0.0000       2.154890        58.6375 
  89   0.0000       2.282134        62.1000 
  90   0.0000       2.330997        63.4297 
  91   0.0000       2.426824        66.0373 
  92   0.0000       2.485294        67.6283 
  93   0.0000       2.526432        68.7477 
  94   0.0000       2.529707        68.8368 
  95   0.0000       2.547636        69.3247 
  96   0.0000       2.550999        69.4162 
  97   0.0000       2.566455        69.8368 
  98   0.0000       2.659036        72.3561 
  99   0.0000       2.681690        72.9725 
 100   0.0000       2.704037        73.5806 
 101   0.0000       2.775685        75.5302 
 102   0.0000       2.824404        76.8559 
 103   0.0000       2.837342        77.2080 
 104   0.0000       2.871770        78.1448 
 105   0.0000       2.894320        78.7585 
 106   0.0000       2.924258        79.5731 
 107   0.0000       2.938929        79.9723 
 108   0.0000       3.033737        82.5522 
 109   0.0000       3.099068        84.3299 
 110   0.0000       3.150982        85.7426 
 111   0.0000       3.323172        90.4281 
 112   0.0000       3.525845        95.9431 

                    ********************************
                    * MULLIKEN POPULATION ANALYSIS *
                    ********************************

-----------------------
MULLIKEN ATOMIC CHARGES
-----------------------
   0 C :   -0.142259
   1 S :    0.837922
   2 F :   -0.165031
   3 O :   -0.432890
   4 O :   -0.382975
   5 C :   -0.021878
   6 H :    0.094138
   7 H :    0.076390
   8 H :    0.040460
   9 H :    0.049081
  10 H :    0.047042
Sum of atomic charges:   -0.0000000

--------------------------------
MULLIKEN REDUCED ORBITAL CHARGES
--------------------------------
  0 C s       :     3.093898  s :     3.093898
      pz      :     0.993835  p :     3.016158
      px      :     0.967784
      py      :     1.054539
      dz2     :     0.003093  d :     0.032202
      dxz     :     0.009320
      dyz     :     0.007517
      dx2y2   :     0.006891
      dxy     :     0.005381
  1 S s       :     5.333617  s :     5.333617
      pz      :     3.046056  p :     9.016898
      px      :     3.060458
      py      :     2.910383
      dz2     :     0.147801  d :     0.811564
      dxz     :     0.184128
      dyz     :     0.158837
      dx2y2   :     0.173454
      dxy     :     0.147344
  2 F s       :     3.908411  s :     3.908411
      pz      :     1.826626  p :     5.245913
      px      :     1.842052
      py      :     1.577235
      dz2     :     0.001432  d :     0.010707
      dxz     :     0.000627
      dyz     :     0.002909
      dx2y2   :     0.003093
      dxy     :     0.002645
  3 O s       :     3.862261  s :     3.862261
      pz      :     1.553343  p :     4.554222
      px      :     1.443843
      py      :     1.557035
      dz2     :     0.002689  d :     0.016406
      dxz     :     0.004309
      dyz     :     0.002070
      dx2y2   :     0.003568
      dxy     :     0.003770
  4 O s       :     3.838594  s :     3.838594
      pz      :     1.489621  p :     4.526050
      px      :     1.609479
      py      :     1.426951
      dz2     :     0.004432  d :     0.018331
      dxz     :     0.003231
      dyz     :     0.004894
      dx2y2   :     0.002810
      dxy     :     0.002964
  5 C s       :     2.988112  s :     2.988112
      pz      :     1.020731  p :     3.007880
      px      :     1.040525
      py      :     0.946624
      dz2     :     0.002435  d :     0.025886
      dxz     :     0.006399
      dyz     :     0.006935
      dx2y2   :     0.006461
      dxy     :     0.003657
  6 H s       :     0.882845  s :     0.882845
      pz      :     0.009999  p :     0.023018
      px      :     0.004645
      py      :     0.008374
  7 H s       :     0.900578  s :     0.900578
      pz      :     0.006425  p :     0.023032
      px      :     0.011188
      py      :     0.005419
  8 H s       :     0.934639  s :     0.934639
      pz      :     0.010546  p :     0.024901
      px      :     0.006108
      py      :     0.008247
  9 H s       :     0.926055  s :     0.926055
      pz      :     0.007354  p :     0.024864
      px      :     0.011869
      py      :     0.005640
 10 H s       :     0.927929  s :     0.927929
      pz      :     0.009509  p :     0.025029
      px      :     0.010574
      py      :     0.004946


                     *******************************
                     * LOEWDIN POPULATION ANALYSIS *
                     *******************************

----------------------
LOEWDIN ATOMIC CHARGES
----------------------
   0 C :   -0.155394
   1 S :    1.098148
   2 F :   -0.130102
   3 O :   -0.491830
   4 O :   -0.442968
   5 C :   -0.069782
   6 H :    0.051324
   7 H :    0.039992
   8 H :    0.028507
   9 H :    0.032345
  10 H :    0.039758

-------------------------------
LOEWDIN REDUCED ORBITAL CHARGES
-------------------------------
  0 C s       :     2.904789  s :     2.904789
      pz      :     1.053663  p :     3.171192
      px      :     1.039569
      py      :     1.077961
      dz2     :     0.007221  d :     0.079412
      dxz     :     0.023131
      dyz     :     0.018895
      dx2y2   :     0.019162
      dxy     :     0.011004
  1 S s       :     5.054856  s :     5.054856
      pz      :     2.953410  p :     8.783949
      px      :     2.967331
      py      :     2.863208
      dz2     :     0.175528  d :     1.063047
      dxz     :     0.249729
      dyz     :     0.217808
      dx2y2   :     0.228644
      dxy     :     0.191338
  2 F s       :     3.782700  s :     3.782700
      pz      :     1.840350  p :     5.330654
      px      :     1.850388
      py      :     1.639915
      dz2     :     0.002156  d :     0.016748
      dxz     :     0.000782
      dyz     :     0.004661
      dx2y2   :     0.005298
      dxy     :     0.003851
  3 O s       :     3.710008  s :     3.710008
      pz      :     1.607541  p :     4.754637
      px      :     1.535505
      py      :     1.611591
      dz2     :     0.003428  d :     0.027186
      dxz     :     0.008453
      dyz     :     0.003415
      dx2y2   :     0.005241
      dxy     :     0.006649
  4 O s       :     3.680576  s :     3.680576
      pz      :     1.570158  p :     4.732019
      px      :     1.646517
      py      :     1.515343
      dz2     :     0.005758  d :     0.030373
      dxz     :     0.005547
      dyz     :     0.010361
      dx2y2   :     0.003887
      dxy     :     0.004820
  5 C s       :     2.823160  s :     2.823160
      pz      :     1.075778  p :     3.175149
      px      :     1.085061
      py      :     1.014309
      dz2     :     0.006305  d :     0.071473
      dxz     :     0.018225
      dyz     :     0.019274
      dx2y2   :     0.019207
      dxy     :     0.008462
  6 H s       :     0.876449  s :     0.876449
      pz      :     0.032374  p :     0.072227
      px      :     0.013327
      py      :     0.026526
  7 H s       :     0.887009  s :     0.887009
      pz      :     0.018562  p :     0.072999
      px      :     0.037435
      py      :     0.017001
  8 H s       :     0.900351  s :     0.900351
      pz      :     0.030732  p :     0.071142
      px      :     0.015540
      py      :     0.024871
  9 H s       :     0.896391  s :     0.896391
      pz      :     0.019932  p :     0.071264
      px      :     0.034639
      py      :     0.016693
 10 H s       :     0.889119  s :     0.889119
      pz      :     0.026601  p :     0.071123
      px      :     0.029896
      py      :     0.014625


                      *****************************
                      * MAYER POPULATION ANALYSIS *
                      *****************************

  NA   - Mulliken gross atomic population
  ZA   - Total nuclear charge
  QA   - Mulliken gross atomic charge
  VA   - Mayer's total valence
  BVA  - Mayer's bonded valence
  FA   - Mayer's free valence

  ATOM       NA         ZA         QA         VA         BVA        FA
  0 C      6.1423     6.0000    -0.1423     4.0016     4.0016    -0.0000
  1 S     15.1621    16.0000     0.8379     5.5205     5.5205    -0.0000
  2 F      9.1650     9.0000    -0.1650     1.1779     1.1779     0.0000
  3 O      8.4329     8.0000    -0.4329     1.9916     1.9916     0.0000
  4 O      8.3830     8.0000    -0.3830     2.0415     2.0415    -0.0000
  5 C      6.0219     6.0000    -0.0219     4.0021     4.0021    -0.0000
  6 H      0.9059     1.0000     0.0941     0.9938     0.9938    -0.0000
  7 H      0.9236     1.0000     0.0764     0.9927     0.9927    -0.0000
  8 H      0.9595     1.0000     0.0405     0.9953     0.9953    -0.0000
  9 H      0.9509     1.0000     0.0491     0.9938     0.9938    -0.0000
 10 H      0.9530     1.0000     0.0470     0.9917     0.9917    -0.0000

  Mayer bond orders larger than 0.100000
B(  0-C ,  1-S ) :   0.9055 B(  0-C ,  5-C ) :   1.0813 B(  0-C ,  6-H ) :   0.9286 
B(  0-C ,  7-H ) :   0.9294 B(  1-S ,  2-F ) :   1.0082 B(  1-S ,  3-O ) :   1.7597 
B(  1-S ,  4-O ) :   1.8042 B(  5-C ,  8-H ) :   0.9681 B(  5-C ,  9-H ) :   0.9672 
B(  5-C , 10-H ) :   0.9549 

-------
TIMINGS
-------

Total SCF time: 0 days 0 hours 0 min 3 sec 

Total time                  ....       3.028 sec
Sum of individual times     ....       2.903 sec  ( 95.9%)

Fock matrix formation       ....       2.277 sec  ( 75.2%)
  Split-RI-J                ....       0.601 sec  ( 26.4% of F)
  XC integration            ....       1.652 sec  ( 72.6% of F)
    Basis function eval.    ....       0.676 sec  ( 40.9% of XC)
    Density eval.           ....       0.323 sec  ( 19.6% of XC)
    XC-Functional eval.     ....       0.194 sec  ( 11.7% of XC)
    XC-Potential eval.      ....       0.295 sec  ( 17.8% of XC)
Diagonalization             ....       0.027 sec  (  0.9%)
Density matrix formation    ....       0.003 sec  (  0.1%)
Population analysis         ....       0.005 sec  (  0.2%)
Initial guess               ....       0.067 sec  (  2.2%)
Orbital Transformation      ....       0.000 sec  (  0.0%)
Orbital Orthonormalization  ....       0.000 sec  (  0.0%)
DIIS solution               ....       0.021 sec  (  0.7%)
SOSCF solution              ....       0.018 sec  (  0.6%)
Grid generation             ....       0.485 sec  ( 16.0%)

Maximum memory used throughout the entire SCF-calculation: 16.0 MB


-------------------------------------------------------------------------------
                          DFT DISPERSION CORRECTION                            
                                                                               
                              DFTD3 V3.1  Rev 1                                
                          USING Becke-Johnson damping                          
-------------------------------------------------------------------------------
The PBE functional is recognized
Active option DFTDOPT                   ...         4   

molecular C6(AA) [au] = 1445.610809 


            DFT-D V3
 parameters
 s6 scaling factor         :     1.0000 
 a1 scaling factor         :     0.4289 
 s8 scaling factor         :     0.7875 
 a2 scaling factor         :     4.4407 
 ad hoc parameters k1-k3   :    16.0000     1.3333    -4.0000 

 Edisp/kcal,au: -5.749055425527  -0.009161702014 
 E6   /kcal   :  -3.997389022 
 E8   /kcal   :  -1.751666404 
 % E8         :  30.468768767 

-------------------------   ----------------
Dispersion correction           -0.009161702
-------------------------   ----------------


-------------------------   --------------------
FINAL SINGLE POINT ENERGY      -726.726322341254
-------------------------   --------------------


                            ***************************************
                            *     ORCA property calculations      *
                            ***************************************

                                    ---------------------
                                    Active property flags
                                    ---------------------
   (+) Dipole Moment


------------------------------------------------------------------------------
                       ORCA ELECTRIC PROPERTIES CALCULATION
------------------------------------------------------------------------------

Dipole Moment Calculation                       ... on
Quadrupole Moment Calculation                   ... off
Polarizability Calculation                      ... off
GBWName                                         ... SVP_PBE_C1_wt_dlpno_neg.gbw
Electron density file                           ... SVP_PBE_C1_wt_dlpno_neg.scfp
The origin for moment calculation is the CENTER OF MASS  = (-11.782540, -5.010631 -7.849711)

-------------
DIPOLE MOMENT
-------------
                                X             Y             Z
Electronic contribution:      5.76291      -1.79140      -6.47541
Nuclear contribution   :     -6.81251       2.87933       7.15058
                        -----------------------------------------
Total Dipole Moment    :     -1.04961       1.08793       0.67517
                        -----------------------------------------
Magnitude (a.u.)       :      1.65563
Magnitude (Debye)      :      4.20827



--------------------
Rotational spectrum 
--------------------
 
Rotational constants in cm-1:     0.152543     0.082494     0.078987 
Rotational constants in MHz :  4573.135887  2473.116216  2367.980829 

 Dipole components along the rotational axes: 
x,y,z [a.u.] :     1.606721    -0.147563    -0.371186 
x,y,z [Debye]:     4.083960    -0.375076    -0.943479 

 

Timings for individual modules:

Sum of individual times         ...        6.424 sec (=   0.107 min)
GTO integral calculation        ...        1.755 sec (=   0.029 min)  27.3 %
SCF iterations                  ...        4.669 sec (=   0.078 min)  72.7 %
                             ****ORCA TERMINATED NORMALLY****
TOTAL RUN TIME: 0 days 0 hours 0 minutes 6 seconds 965 msec
