
                                        *****************
                                        * O   R   C   A *
                                        *****************

                                            #,                                       
                                            ###                                      
                                            ####                                     
                                            #####                                    
                                            ######                                   
                                           ########,                                 
                                     ,,################,,,,,                         
                               ,,#################################,,                 
                          ,,##########################################,,             
                       ,#########################################, ''#####,          
                    ,#############################################,,   '####,        
                  ,##################################################,,,,####,       
                ,###########''''           ''''###############################       
              ,#####''   ,,,,##########,,,,          '''####'''          '####       
            ,##' ,,,,###########################,,,                        '##       
           ' ,,###''''                  '''############,,,                           
         ,,##''                                '''############,,,,        ,,,,,,###''
      ,#''                                            '''#######################'''  
     '                                                          ''''####''''         
             ,#######,   #######,   ,#######,      ##                                
            ,#'     '#,  ##    ##  ,#'     '#,    #''#        ######   ,####,        
            ##       ##  ##   ,#'  ##            #'  '#       #        #'  '#        
            ##       ##  #######   ##           ,######,      #####,   #    #        
            '#,     ,#'  ##    ##  '#,     ,#' ,#      #,         ##   #,  ,#        
             '#######'   ##     ##  '#######'  #'      '#     #####' # '####'        



                  #######################################################
                  #                        -***-                        #
                  #          Department of theory and spectroscopy      #
                  #    Directorship and core code : Frank Neese         #
                  #        Max Planck Institute fuer Kohlenforschung    #
                  #                Kaiser Wilhelm Platz 1               #
                  #                 D-45470 Muelheim/Ruhr               #
                  #                      Germany                        #
                  #                                                     #
                  #                  All rights reserved                #
                  #                        -***-                        #
                  #######################################################


                         Program Version 5.0.0 -  RELEASE  -
                                (SVN: $Rev: 19529$)
                ($Date: 2021-06-28 11:36:33 +0200 (Mo, 28 Jun 2021) $)


 With contributions from (in alphabetic order):
   Daniel Aravena         : Magnetic Suceptibility
   Michael Atanasov       : Ab Initio Ligand Field Theory (pilot matlab implementation)
   Alexander A. Auer      : GIAO ZORA, VPT2 properties, NMR spectrum
   Ute Becker             : Parallelization
   Giovanni Bistoni       : ED, misc. LED, open-shell LED, HFLD
   Martin Brehm           : Molecular dynamics
   Dmytro Bykov           : SCF Hessian
   Vijay G. Chilkuri      : MRCI spin determinant printing, contributions to CSF-ICE
   Dipayan Datta          : RHF DLPNO-CCSD density
   Achintya Kumar Dutta   : EOM-CC, STEOM-CC
   Dmitry Ganyushin       : Spin-Orbit,Spin-Spin,Magnetic field MRCI
   Miquel Garcia          : C-PCM Hessian, Gaussian charge scheme
   Yang Guo               : DLPNO-NEVPT2, F12-NEVPT2, CIM, IAO-localization
   Andreas Hansen         : Spin unrestricted coupled pair/coupled cluster methods
   Benjamin Helmich-Paris : MC-RPA, TRAH-SCF, COSX integrals
   Lee Huntington         : MR-EOM, pCC
   Robert Izsak           : Overlap fitted RIJCOSX, COSX-SCS-MP3, EOM
   Marcus Kettner         : VPT2
   Christian Kollmar      : KDIIS, OOCD, Brueckner-CCSD(T), CCSD density, CASPT2, CASPT2-K
   Simone Kossmann        : Meta GGA functionals, TD-DFT gradient, OOMP2, MP2 Hessian
   Martin Krupicka        : Initial AUTO-CI
   Lucas Lang             : DCDCAS
   Marvin Lechner         : AUTO-CI (C++ implementation), FIC-MRCC
   Dagmar Lenk            : GEPOL surface, SMD
   Dimitrios Liakos       : Extrapolation schemes; Compound Job, initial MDCI parallelization
   Dimitrios Manganas     : Further ROCIS development; embedding schemes
   Dimitrios Pantazis     : SARC Basis sets
   Anastasios Papadopoulos: AUTO-CI, single reference methods and gradients
   Taras Petrenko         : DFT Hessian,TD-DFT gradient, ASA, ECA, R-Raman, ABS, FL, XAS/XES, NRVS
   Peter Pinski           : DLPNO-MP2, DLPNO-MP2 Gradient
   Christoph Reimann      : Effective Core Potentials
   Marius Retegan         : Local ZFS, SOC
   Christoph Riplinger    : Optimizer, TS searches, QM/MM, DLPNO-CCSD(T), (RO)-DLPNO pert. Triples
   Tobias Risthaus        : Range-separated hybrids, TD-DFT gradient, RPA, STAB
   Michael Roemelt        : Original ROCIS implementation
   Masaaki Saitow         : Open-shell DLPNO-CCSD energy and density
   Barbara Sandhoefer     : DKH picture change effects
   Avijit Sen             : IP-ROCIS
   Kantharuban Sivalingam : CASSCF convergence, NEVPT2, FIC-MRCI
   Bernardo de Souza      : ESD, SOC TD-DFT
   Georgi Stoychev        : AutoAux, RI-MP2 NMR
   Willem Van den Heuvel  : Paramagnetic NMR
   Boris Wezisla          : Elementary symmetry handling
   Frank Wennmohs         : Technical directorship


 We gratefully acknowledge several colleagues who have allowed us to
 interface, adapt or use parts of their codes:
   Stefan Grimme, W. Hujo, H. Kruse, P. Pracht,  : VdW corrections, initial TS optimization,
                  C. Bannwarth, S. Ehlert          DFT functionals, gCP, sTDA/sTD-DF
   Ed Valeev, F. Pavosevic, A. Kumar             : LibInt (2-el integral package), F12 methods
   Garnet Chan, S. Sharma, J. Yang, R. Olivares  : DMRG
   Ulf Ekstrom                                   : XCFun DFT Library
   Mihaly Kallay                                 : mrcc  (arbitrary order and MRCC methods)
   Jiri Pittner, Ondrej Demel                    : Mk-CCSD
   Frank Weinhold                                : gennbo (NPA and NBO analysis)
   Christopher J. Cramer and Donald G. Truhlar   : smd solvation model
   Lars Goerigk                                  : TD-DFT with DH, B97 family of functionals
   V. Asgeirsson, H. Jonsson                     : NEB implementation
   FAccTs GmbH                                   : IRC, NEB, NEB-TS, DLPNO-Multilevel, CI-OPT
                                                   MM, QMMM, 2- and 3-layer-ONIOM, Crystal-QMMM,
                                                   LR-CPCM, SF, NACMEs, symmetry and pop. for TD-DFT,
                                                   nearIR, NL-DFT gradient (VV10), updates on ESD,
                                                   ML-optimized integration grids
   S Lehtola, MJT Oliveira, MAL Marques          : LibXC Library
   Liviu Ungur et al                             : ANISO software


 Your calculation uses the libint2 library for the computation of 2-el integrals
 For citations please refer to: http://libint.valeyev.net

 Your ORCA version has been built with support for libXC version: 5.1.0
 For citations please refer to: https://tddft.org/programs/libxc/

 This ORCA versions uses:
   CBLAS   interface :  Fast vector & matrix operations
   LAPACKE interface :  Fast linear algebra routines
   SCALAPACK package :  Parallel linear algebra routines
   Shared memory     :  Shared parallel matrices
   BLAS/LAPACK       :  OpenBLAS 0.3.15  USE64BITINT DYNAMIC_ARCH NO_AFFINITY Haswell SINGLE_THREADED
        Core in use  :  Haswell
   Copyright (c) 2011-2014, The OpenBLAS Project


Your calculation utilizes the atom-pairwise dispersion correction
with the zero-damping scheme (D30)
Cite in your paper:
S.Grimme, J.Antony, S.Ehrlich and H.Krieg, J.Chem.Phys., 132, (2010), 154104 
   

XCFun DFT library Copyright 2009-2010 Ulf Ekstrom and contributors.
See http://admol.org/xcfun for more information.
This is free software; see the source code for copying conditions.
There is ABSOLUTELY NO WARRANTY; not even for MERCHANTABILITY or FITNESS FOR A PARTICULAR PURPOSE.
For details see the documentation.
Scientific users of this library should cite U. Ekstrom, L. Visscher, R. Bast, A. J. Thorvaldsen and K. Ruud;
J.Chem.Theor.Comp. 2010, DOI: 10.1021/ct100117s
XCFun Version 0.99 

================================================================================

----- Orbital basis set information -----
Your calculation utilizes the basis: def2-TZVP
   F. Weigend and R. Ahlrichs, Phys. Chem. Chem. Phys. 7, 3297 (2005).

----- AuxJ basis set information -----
Your calculation utilizes the auxiliary basis: def2/J
   F. Weigend, Phys. Chem. Chem. Phys. 8, 1057 (2006).

================================================================================
                                        WARNINGS
                       Please study these warnings very carefully!
================================================================================


INFO   : the flag for use of the SHARK integral package has been found!

================================================================================
                                       INPUT FILE
================================================================================
NAME = C3_pos.com
|  1> !wB97X-D3 RIJCOSX def2-TZVP def2/J TightSCF 
|  2> *xyz 0 1 
|  3> C          3.90595        2.81985       -3.75292
|  4> N          5.29562        3.13151       -4.10533
|  5> C          5.70862        3.46889       -5.32419
|  6> N          6.90470        3.03895       -5.71708
|  7> C          4.98188        4.29357       -6.09746
|  8> H          5.00055        4.10131       -7.08776
|  9> H          4.08469        4.59690       -5.73965
| 10> H          5.96336        2.52611       -3.64239
| 11> H          7.04716        2.06686       -5.47360
| 12> H          7.19815        3.30799       -6.64523
| 13> H          3.24866        3.48801       -4.26909
| 14> H          3.77188        2.93227       -2.69732
| 15> H          3.68381        1.81198       -4.03533
| 16> *
| 17> 
| 18> %MaxCore 64000
| 19> 
| 20> %pal nprocs 18
| 21> end  
| 22> 
| 23> %scf
| 24>   MaxIter 150
| 25> end
| 26> 
| 27> 
| 28>                          ****END OF INPUT****
================================================================================

                       ****************************
                       * Single Point Calculation *
                       ****************************

---------------------------------
CARTESIAN COORDINATES (ANGSTROEM)
---------------------------------
  C      3.905950    2.819850   -3.752920
  N      5.295620    3.131510   -4.105330
  C      5.708620    3.468890   -5.324190
  N      6.904700    3.038950   -5.717080
  C      4.981880    4.293570   -6.097460
  H      5.000550    4.101310   -7.087760
  H      4.084690    4.596900   -5.739650
  H      5.963360    2.526110   -3.642390
  H      7.047160    2.066860   -5.473600
  H      7.198150    3.307990   -6.645230
  H      3.248660    3.488010   -4.269090
  H      3.771880    2.932270   -2.697320
  H      3.683810    1.811980   -4.035330

----------------------------
CARTESIAN COORDINATES (A.U.)
----------------------------
  NO LB      ZA    FRAG     MASS         X           Y           Z
   0 C     6.0000    0    12.011    7.381176    5.328744   -7.091991
   1 N     7.0000    0    14.007   10.007272    5.917696   -7.757949
   2 C     6.0000    0    12.011   10.787728    6.555252  -10.061261
   3 N     7.0000    0    14.007   13.047992    5.742783  -10.803715
   4 C     6.0000    0    12.011    9.414389    8.113671  -11.522530
   5 H     1.0000    0     1.008    9.449670    7.750353  -13.393925
   6 H     1.0000    0     1.008    7.718945    8.686882  -10.846367
   7 H     1.0000    0     1.008   11.269117    4.773656   -6.883120
   8 H     1.0000    0     1.008   13.317202    3.905799  -10.343605
   9 H     1.0000    0     1.008   13.602532    6.251195  -12.557665
  10 H     1.0000    0     1.008    6.139078    6.591384   -8.067411
  11 H     1.0000    0     1.008    7.127820    5.541187   -5.097196
  12 H     1.0000    0     1.008    6.961392    3.424146   -7.625669

--------------------------------
INTERNAL COORDINATES (ANGSTROEM)
--------------------------------
 C      0   0   0     0.000000000000     0.00000000     0.00000000
 N      1   0   0     1.467142621765     0.00000000     0.00000000
 C      2   1   0     1.330418717547   124.60848250     0.00000000
 N      3   2   1     1.330345189077   117.88568818   216.04039772
 C      3   2   1     1.343947403324   120.98879030    40.55692244
 H      5   3   2     1.008963114539   115.96332282   215.01866637
 H      5   3   2     1.012416406969   117.36806711   356.14703280
 H      2   1   3     1.013261719005   112.80142721   219.48070045
 H      4   3   2     1.012193820422   111.46134138    44.03787504
 H      4   3   2     1.009929624578   116.52326395   180.07681422
 H      1   2   3     1.069999718972   109.47095925   320.51906472
 H      1   2   3     1.070002047334   109.47115738   200.51941491
 H      1   2   3     1.070001647008   109.47154101    80.51927171

---------------------------
INTERNAL COORDINATES (A.U.)
---------------------------
 C      0   0   0     0.000000000000     0.00000000     0.00000000
 N      1   0   0     2.772497754539     0.00000000     0.00000000
 C      2   1   0     2.514127019607   124.60848250     0.00000000
 N      3   2   1     2.513988070935   117.88568818   216.04039772
 C      3   2   1     2.539692530676   120.98879030    40.55692244
 H      5   3   2     1.906663965707   115.96332282   215.01866637
 H      5   3   2     1.913189742660   117.36806711   356.14703280
 H      2   1   3     1.914787150905   112.80142721   219.48070045
 H      4   3   2     1.912769115045   111.46134138    44.03787504
 H      4   3   2     1.908490404986   116.52326395   180.07681422
 H      1   2   3     2.022006432230   109.47095925   320.51906472
 H      1   2   3     2.022010832197   109.47115738   200.51941491
 H      1   2   3     2.022010075690   109.47154101    80.51927171

---------------------
BASIS SET INFORMATION
---------------------
There are 3 groups of distinct atoms

 Group   1 Type C   : 11s6p2d1f contracted to 5s3p2d1f pattern {62111/411/11/1}
 Group   2 Type N   : 11s6p2d1f contracted to 5s3p2d1f pattern {62111/411/11/1}
 Group   3 Type H   : 5s1p contracted to 3s1p pattern {311/1}

Atom   0C    basis set group =>   1
Atom   1N    basis set group =>   2
Atom   2C    basis set group =>   1
Atom   3N    basis set group =>   2
Atom   4C    basis set group =>   1
Atom   5H    basis set group =>   3
Atom   6H    basis set group =>   3
Atom   7H    basis set group =>   3
Atom   8H    basis set group =>   3
Atom   9H    basis set group =>   3
Atom  10H    basis set group =>   3
Atom  11H    basis set group =>   3
Atom  12H    basis set group =>   3
---------------------------------
AUXILIARY/J BASIS SET INFORMATION
---------------------------------
There are 3 groups of distinct atoms

 Group   1 Type C   : 12s5p4d2f1g contracted to 6s4p3d1f1g pattern {711111/2111/211/2/1}
 Group   2 Type N   : 12s5p4d2f1g contracted to 6s4p3d1f1g pattern {711111/2111/211/2/1}
 Group   3 Type H   : 5s2p1d contracted to 3s1p1d pattern {311/2/1}

Atom   0C    basis set group =>   1
Atom   1N    basis set group =>   2
Atom   2C    basis set group =>   1
Atom   3N    basis set group =>   2
Atom   4C    basis set group =>   1
Atom   5H    basis set group =>   3
Atom   6H    basis set group =>   3
Atom   7H    basis set group =>   3
Atom   8H    basis set group =>   3
Atom   9H    basis set group =>   3
Atom  10H    basis set group =>   3
Atom  11H    basis set group =>   3
Atom  12H    basis set group =>   3


           ************************************************************
           *        Program running with 18 parallel MPI-processes    *
           *              working on a common directory               *
           ************************************************************
------------------------------------------------------------------------------
                           ORCA GTO INTEGRAL CALCULATION
                           -- RI-GTO INTEGRALS CHOSEN --
------------------------------------------------------------------------------
------------------------------------------------------------------------------
                   ___                                                        
                  /   \      - P O W E R E D   B Y -                         
                 /     \                                                     
                 |  |  |   _    _      __       _____    __    __             
                 |  |  |  | |  | |    /  \     |  _  \  |  |  /  |          
                  \  \/   | |  | |   /    \    | | | |  |  | /  /          
                 / \  \   | |__| |  /  /\  \   | |_| |  |  |/  /          
                |  |  |   |  __  | /  /__\  \  |    /   |      \           
                |  |  |   | |  | | |   __   |  |    \   |  |\   \          
                \     /   | |  | | |  |  |  |  | |\  \  |  | \   \       
                 \___/    |_|  |_| |__|  |__|  |_| \__\ |__|  \__/        
                                                                              
                      - O R C A' S   B I G   F R I E N D -                    
                                      &                                       
                       - I N T E G R A L  F E E D E R -                       
                                                                              
 v1 FN, 2020, v2 2021                                                         
------------------------------------------------------------------------------


Reading SHARK input file C3_pos.SHARKINP.tmp ... ok
----------------------
SHARK INTEGRAL PACKAGE
----------------------

Number of atoms                             ...     13
Number of basis functions                   ...    203
Number of shells                            ...     87
Maximum angular momentum                    ...      3
Integral batch strategy                     ... SHARK/LIBINT Hybrid
RI-J (if used) integral strategy            ... SPLIT-RIJ (Revised 2003 algorithm where possible)
Printlevel                                  ...      1
Contraction scheme used                     ... SEGMENTED contraction
Coulomb Range Separation                    ... NOT USED
Exchange Range Separation                   ... Long Range
   Mu parameter                             ...  0.250000
   Scaling (regular/separated)              ...  0.195728  0.804272
Finite Nucleus Model                        ... NOT USED
Auxiliary Coulomb fitting basis             ... AVAILABLE
   # of basis functions in Aux-J            ...    333
   # of shells in Aux-J                     ...    115
   Maximum angular momentum in Aux-J        ...      4
Auxiliary J/K fitting basis                 ... NOT available
Auxiliary Correlation fitting basis         ... NOT available
Auxiliary 'external' fitting basis          ... NOT available
Integral threshold                          ...     2.500000e-11
Primitive cut-off                           ...     2.500000e-12
Primitive pair pre-selection threshold      ...     2.500000e-12

Calculating pre-screening integrals         ... done (  0.1 sec) Dimension = 87
Organizing shell pair data                  ... done (  0.0 sec)
Shell pair information
Total number of shell pairs                 ...      3828
Shell pairs after pre-screening             ...      3690
Total number of primitive shell pairs       ...     11160
Primitive shell pairs kept                  ...      8607
          la=0 lb=0:   1148 shell pairs
          la=1 lb=0:   1089 shell pairs
          la=1 lb=1:    272 shell pairs
          la=2 lb=0:    479 shell pairs
          la=2 lb=1:    228 shell pairs
          la=2 lb=2:     55 shell pairs
          la=3 lb=0:    239 shell pairs
          la=3 lb=1:    115 shell pairs
          la=3 lb=2:     50 shell pairs
          la=3 lb=3:     15 shell pairs

Calculating one electron integrals          ... done (  0.0 sec)
Calculating RI/J V-Matrix + Cholesky decomp.... done (  0.0 sec)
Calculating Nuclear repulsion               ... done (  0.0 sec) ENN=    185.080962977333 Eh

SHARK setup successfully completed in   0.2 seconds

Maximum memory used throughout the entire GTOINT-calculation: 13.9 MB


           ************************************************************
           *        Program running with 18 parallel MPI-processes    *
           *              working on a common directory               *
           ************************************************************
-------------------------------------------------------------------------------
                                 ORCA SCF
-------------------------------------------------------------------------------

------------
SCF SETTINGS
------------
Hamiltonian:
 Density Functional     Method          .... DFT(GTOs)
 Exchange Functional    Exchange        .... WB97X-D3
 Correlation Functional Correlation     .... WB97X-D3
 Gradients option       PostSCFGGA      .... off
 Hybrid DFT is turned on
   Fraction HF Exchange ScalHFX         ....  0.195728
   Scaling of DF-GGA-X  ScalDFX         ....  0.000000
   Scaling of DF-GGA-C  ScalDFC         ....  1.000000
   Scaling of DF-LDA-C  ScalLDAC        ....  1.000000
   Perturbative correction              ....  0.000000
   Density functional embedding theory  .... OFF
 Long-range corrected/Screened/Range-Separated Hybrid DFT is turned on
   Amount of maximum screened exact exchange              ....  0.804272
   Range separation parameter mu (erf(mu*r12)/r12)        ....  0.250000
 RI-approximation to the Coulomb term is turned on
   Number of AuxJ basis functions       .... 333
   RIJ-COSX (HFX calculated with COS-X)).... on


General Settings:
 Integral files         IntName         .... C3_pos
 Hartree-Fock type      HFTyp           .... RHF
 Total Charge           Charge          ....    0
 Multiplicity           Mult            ....    1
 Number of Electrons    NEL             ....   40
 Basis Dimension        Dim             ....  203
 Nuclear Repulsion      ENuc            ....    185.0809629773 Eh

Convergence Acceleration:
 DIIS                   CNVDIIS         .... on
   Start iteration      DIISMaxIt       ....    12
   Startup error        DIISStart       ....  0.200000
   # of expansion vecs  DIISMaxEq       ....     5
   Bias factor          DIISBfac        ....   1.050
   Max. coefficient     DIISMaxC        ....  10.000
 Trust-Rad. Augm. Hess. CNVTRAH         .... auto
   Auto Start mean grad. ratio tolernc. ....  1.125000
   Auto Start start iteration           ....    20
   Auto Start num. interpolation iter.  ....    10
   Max. Number of Micro iterations      ....    16
   Max. Number of Macro iterations      .... Maxiter - #DIIS iter
   Number of Davidson start vectors     ....     2
   Converg. threshold I  (grad. norm)   ....   1.000e-05
   Converg. threshold II (energy diff.) ....   1.000e-08
   Grad. Scal. Fac. for Micro threshold ....   0.100
   Minimum threshold for Micro iter.    ....   0.010
   NR start threshold (gradient norm)   ....   0.001
   Initial trust radius                 ....   0.400
   Minimum AH scaling param. (alpha)    ....   1.000
   Maximum AH scaling param. (alpha)    .... 1000.000
   Orbital update algorithm             .... Taylor
   White noise on init. David. guess    .... on
   Maximum white noise                  ....   0.010
   Quad. conv. algorithm                .... NR
 SOSCF                  CNVSOSCF        .... on
   Start iteration      SOSCFMaxIt      ....   150
   Startup grad/error   SOSCFStart      ....  0.003300
 Level Shifting         CNVShift        .... on
   Level shift para.    LevelShift      ....    0.2500
   Turn off err/grad.   ShiftErr        ....    0.0010
 Zerner damping         CNVZerner       .... off
 Static damping         CNVDamp         .... on
   Fraction old density DampFac         ....    0.7000
   Max. Damping (<1)    DampMax         ....    0.9800
   Min. Damping (>=0)   DampMin         ....    0.0000
   Turn off err/grad.   DampErr         ....    0.1000
 Fernandez-Rico         CNVRico         .... off

SCF Procedure:
 Maximum # iterations   MaxIter         ....   150
 SCF integral mode      SCFMode         .... Direct
   Integral package                     .... SHARK and LIBINT hybrid scheme
 Reset frequency        DirectResetFreq ....    20
 Integral Threshold     Thresh          ....  2.500e-11 Eh
 Primitive CutOff       TCut            ....  2.500e-12 Eh

Convergence Tolerance:
 Convergence Check Mode ConvCheckMode   .... Total+1el-Energy
 Convergence forced     ConvForced      .... 0
 Energy Change          TolE            ....  1.000e-08 Eh
 1-El. energy change                    ....  1.000e-05 Eh
 Orbital Gradient       TolG            ....  1.000e-05
 Orbital Rotation angle TolX            ....  1.000e-05
 DIIS Error             TolErr          ....  5.000e-07


Diagonalization of the overlap matrix:
Smallest eigenvalue                        ... 1.652e-04
Time for diagonalization                   ...    0.011 sec
Threshold for overlap eigenvalues          ... 1.000e-08
Number of eigenvalues below threshold      ... 0
Time for construction of square roots      ...    0.018 sec
Total time needed                          ...    0.029 sec

Time for model grid setup =    0.043 sec

------------------------------
INITIAL GUESS: MODEL POTENTIAL
------------------------------
Loading Hartree-Fock densities                     ... done
Calculating cut-offs                               ... done
Initializing the effective Hamiltonian             ... done
Setting up the integral package (SHARK)            ... done
Starting the Coulomb interaction                   ... done (   0.0 sec)
Reading the grid                                   ... done
Mapping shells                                     ... done
Starting the XC term evaluation                    ... done (   0.0 sec)
  promolecular density results
     # of electrons  =     39.998455560
     EX              =    -30.866919729
     EC              =     -1.313934991
     EX+EC           =    -32.180854720
Transforming the Hamiltonian                       ... done (   0.0 sec)
Diagonalizing the Hamiltonian                      ... done (   0.0 sec)
Back transforming the eigenvectors                 ... done (   0.0 sec)
Now organizing SCF variables                       ... done
                      ------------------
                      INITIAL GUESS DONE (   0.1 sec)
                      ------------------
-------------------
DFT GRID GENERATION
-------------------

General Integration Accuracy     IntAcc      ... 4.388
Radial Grid Type                 RadialGrid  ... OptM3 with GC (2021)
Angular Grid (max. ang.)         AngularGrid ... 4 (Lebedev-302)
Angular grid pruning method      GridPruning ... 4 (adaptive)
Weight generation scheme         WeightScheme... Becke
Basis function cutoff            BFCut       ... 1.0000e-11
Integration weight cutoff        WCut        ... 1.0000e-14
Angular grids for H and He will be reduced by one unit
Partially contracted basis set               ... off
Rotationally invariant grid construction     ... off

Total number of grid points                  ...    56074
Total number of batches                      ...      882
Average number of points per batch           ...       63
Average number of grid points per atom       ...     4313
Time for grid setup =    0.268 sec

--------------------
COSX GRID GENERATION
--------------------

GRIDX 1
-------
General Integration Accuracy     IntAcc      ... 3.816
Radial Grid Type                 RadialGrid  ... OptM3 with GC (2021)
Angular Grid (max. ang.)         AngularGrid ... 1 (Lebedev-50)
Angular grid pruning method      GridPruning ... 4 (adaptive)
Weight generation scheme         WeightScheme... Becke
Basis function cutoff            BFCut       ... 1.0000e-11
Integration weight cutoff        WCut        ... 1.0000e-14
Angular grids for H and He will be reduced by one unit
Partially contracted basis set               ... on
Rotationally invariant grid construction     ... off

Total number of grid points                  ...     7186
Total number of batches                      ...      121
Average number of points per batch           ...       59
Average number of grid points per atom       ...      553
UseSFitting                                  ... on

GRIDX 2
-------
General Integration Accuracy     IntAcc      ... 4.020
Radial Grid Type                 RadialGrid  ... OptM3 with GC (2021)
Angular Grid (max. ang.)         AngularGrid ... 2 (Lebedev-110)
Angular grid pruning method      GridPruning ... 4 (adaptive)
Weight generation scheme         WeightScheme... Becke
Basis function cutoff            BFCut       ... 1.0000e-11
Integration weight cutoff        WCut        ... 1.0000e-14
Angular grids for H and He will be reduced by one unit
Partially contracted basis set               ... on
Rotationally invariant grid construction     ... off

Total number of grid points                  ...    15234
Total number of batches                      ...      243
Average number of points per batch           ...       62
Average number of grid points per atom       ...     1172
UseSFitting                                  ... on

GRIDX 3
-------
General Integration Accuracy     IntAcc      ... 4.338
Radial Grid Type                 RadialGrid  ... OptM3 with GC (2021)
Angular Grid (max. ang.)         AngularGrid ... 3 (Lebedev-194)
Angular grid pruning method      GridPruning ... 4 (adaptive)
Weight generation scheme         WeightScheme... Becke
Basis function cutoff            BFCut       ... 1.0000e-11
Integration weight cutoff        WCut        ... 1.0000e-14
Angular grids for H and He will be reduced by one unit
Partially contracted basis set               ... on
Rotationally invariant grid construction     ... off

Total number of grid points                  ...    33447
Total number of batches                      ...      528
Average number of points per batch           ...       63
Average number of grid points per atom       ...     2573
UseSFitting                                  ... on

Time for X-Grid setup             =    0.200 sec

--------------
SCF ITERATIONS
--------------
ITER       Energy         Delta-E        Max-DP      RMS-DP      [F,P]     Damp
               ***  Starting incremental Fock matrix formation  ***
  0   -228.3571186585   0.000000000000 0.04519466  0.00111479  0.2251690 0.7000
  1   -228.4596663426  -0.102547684128 0.03038092  0.00088838  0.1340330 0.7000
                               ***Turning on DIIS***
  2   -228.5118040498  -0.052137707244 0.05691576  0.00178949  0.0675547 0.0000
  3   -228.5926567259  -0.080852676006 0.02441936  0.00058630  0.0593784 0.0000
  4   -228.6063074209  -0.013650695090 0.00452612  0.00017036  0.0113301 0.0000
                      *** Initiating the SOSCF procedure ***
                           *** Shutting down DIIS ***
                      *** Re-Reading the Fockian *** 
                      *** Removing any level shift *** 
ITER      Energy       Delta-E        Grad      Rot      Max-DP    RMS-DP
  5   -228.60672274  -0.0004153225  0.000957  0.000957  0.001904  0.000071
               *** Restarting incremental Fock matrix formation ***
  6   -228.60676759  -0.0000448486  0.000425  0.001083  0.001733  0.000058
  7   -228.60677665  -0.0000090600  0.000413  0.001539  0.001391  0.000041
  8   -228.60677916  -0.0000025128  0.000087  0.000195  0.000333  0.000010
  9   -228.60677941  -0.0000002404  0.000032  0.000057  0.000101  0.000003
 10   -228.60677944  -0.0000000348  0.000011  0.000041  0.000038  0.000001
                  ***Gradient check signals convergence***
              ***Rediagonalizing the Fockian in SOSCF/NRSCF***

               *****************************************************
               *                     SUCCESS                       *
               *           SCF CONVERGED AFTER  11 CYCLES          *
               *****************************************************

Old exchange energy                            =    -10.504035728 Eh
New exchange energy                            =    -10.504032203 Eh
Exchange energy change after final integration =      0.000003524 Eh
Total energy after final integration           =   -228.606775921 Eh
Final COS-X integration done in                =     1.213 sec

----------------
TOTAL SCF ENERGY
----------------

Total Energy       :         -228.60677592 Eh           -6220.70663 eV

Components:
Nuclear Repulsion  :          185.08096298 Eh            5036.30904 eV
Electronic Energy  :         -413.68773890 Eh          -11257.01567 eV
One Electron Energy:         -674.21108908 Eh          -18346.21644 eV
Two Electron Energy:          260.52335018 Eh            7089.20077 eV
Max COSX asymmetry :            0.00000130 Eh               0.00004 eV

Virial components:
Potential Energy   :         -456.75807981 Eh          -12429.01923 eV
Kinetic Energy     :          228.15130389 Eh            6208.31260 eV
Virial Ratio       :            2.00199636


DFT components:
N(Alpha)           :       19.999973175328 electrons
N(Beta)            :       19.999973175328 electrons
N(Total)           :       39.999946350655 electrons
E(XC)              :      -22.730759527535 Eh       
DFET-embed. en.    :        0.000000000000 Eh       

---------------
SCF CONVERGENCE
---------------

  Last Energy change         ...   -4.8527e-09  Tolerance :   1.0000e-08
  Last MAX-Density change    ...    1.9984e-15  Tolerance :   1.0000e-07
  Last RMS-Density change    ...    2.2802e-17  Tolerance :   5.0000e-09
  Last Orbital Gradient      ...    2.1611e-06  Tolerance :   1.0000e-05
  Last Orbital Rotation      ...    9.5581e-06  Tolerance :   1.0000e-05

             **** THE GBW FILE WAS UPDATED (C3_pos.gbw) ****
             **** DENSITY C3_pos.scfp WAS UPDATED ****
             **** ENERGY FILE WAS UPDATED (C3_pos.en.tmp) ****
             **** THE GBW FILE WAS UPDATED (C3_pos.gbw) ****
             **** DENSITY C3_pos.scfp WAS UPDATED ****
----------------
ORBITAL ENERGIES
----------------

  NO   OCC          E(Eh)            E(eV) 
   0   2.0000     -14.426902      -392.5760 
   1   2.0000     -14.424051      -392.4984 
   2   2.0000     -10.323581      -280.9189 
   3   2.0000     -10.299986      -280.2769 
   4   2.0000     -10.187808      -277.2243 
   5   2.0000      -1.093484       -29.7552 
   6   2.0000      -1.004261       -27.3273 
   7   2.0000      -0.837839       -22.7988 
   8   2.0000      -0.809939       -22.0396 
   9   2.0000      -0.673378       -18.3235 
  10   2.0000      -0.642779       -17.4909 
  11   2.0000      -0.624801       -17.0017 
  12   2.0000      -0.554523       -15.0893 
  13   2.0000      -0.546207       -14.8631 
  14   2.0000      -0.516454       -14.0534 
  15   2.0000      -0.483595       -13.1593 
  16   2.0000      -0.473886       -12.8951 
  17   2.0000      -0.444208       -12.0875 
  18   2.0000      -0.354616        -9.6496 
  19   2.0000      -0.262964        -7.1556 
  20   0.0000       0.101472         2.7612 
  21   0.0000       0.129281         3.5179 
  22   0.0000       0.145574         3.9613 
  23   0.0000       0.156270         4.2523 
  24   0.0000       0.174242         4.7414 
  25   0.0000       0.197664         5.3787 
  26   0.0000       0.203618         5.5407 
  27   0.0000       0.212787         5.7902 
  28   0.0000       0.226665         6.1679 
  29   0.0000       0.257908         7.0180 
  30   0.0000       0.280446         7.6313 
  31   0.0000       0.288045         7.8381 
  32   0.0000       0.304785         8.2936 
  33   0.0000       0.323735         8.8093 
  34   0.0000       0.340732         9.2718 
  35   0.0000       0.377878        10.2826 
  36   0.0000       0.382586        10.4107 
  37   0.0000       0.400717        10.9041 
  38   0.0000       0.420883        11.4528 
  39   0.0000       0.436609        11.8807 
  40   0.0000       0.442985        12.0542 
  41   0.0000       0.465716        12.6728 
  42   0.0000       0.482832        13.1385 
  43   0.0000       0.492357        13.3977 
  44   0.0000       0.500132        13.6093 
  45   0.0000       0.524070        14.2607 
  46   0.0000       0.534712        14.5502 
  47   0.0000       0.540285        14.7019 
  48   0.0000       0.555560        15.1176 
  49   0.0000       0.567086        15.4312 
  50   0.0000       0.588927        16.0255 
  51   0.0000       0.602155        16.3855 
  52   0.0000       0.617478        16.8024 
  53   0.0000       0.643102        17.4997 
  54   0.0000       0.651845        17.7376 
  55   0.0000       0.660646        17.9771 
  56   0.0000       0.687815        18.7164 
  57   0.0000       0.709131        19.2964 
  58   0.0000       0.729946        19.8629 
  59   0.0000       0.743773        20.2391 
  60   0.0000       0.801028        21.7971 
  61   0.0000       0.820260        22.3204 
  62   0.0000       0.869597        23.6629 
  63   0.0000       0.936282        25.4775 
  64   0.0000       0.942837        25.6559 
  65   0.0000       0.994573        27.0637 
  66   0.0000       1.047955        28.5163 
  67   0.0000       1.056829        28.7578 
  68   0.0000       1.079160        29.3654 
  69   0.0000       1.094355        29.7789 
  70   0.0000       1.146678        31.2027 
  71   0.0000       1.170268        31.8446 
  72   0.0000       1.186664        32.2908 
  73   0.0000       1.263377        34.3782 
  74   0.0000       1.270922        34.5835 
  75   0.0000       1.314983        35.7825 
  76   0.0000       1.370088        37.2820 
  77   0.0000       1.411372        38.4054 
  78   0.0000       1.442354        39.2484 
  79   0.0000       1.502542        40.8863 
  80   0.0000       1.514140        41.2019 
  81   0.0000       1.542414        41.9712 
  82   0.0000       1.547936        42.1215 
  83   0.0000       1.586854        43.1805 
  84   0.0000       1.605669        43.6925 
  85   0.0000       1.627379        44.2832 
  86   0.0000       1.631558        44.3970 
  87   0.0000       1.637102        44.5478 
  88   0.0000       1.663918        45.2775 
  89   0.0000       1.707293        46.4578 
  90   0.0000       1.725502        46.9533 
  91   0.0000       1.734842        47.2075 
  92   0.0000       1.742281        47.4099 
  93   0.0000       1.776748        48.3478 
  94   0.0000       1.814790        49.3829 
  95   0.0000       1.837117        49.9905 
  96   0.0000       1.862532        50.6821 
  97   0.0000       1.894426        51.5500 
  98   0.0000       1.951584        53.1053 
  99   0.0000       1.981992        53.9328 
 100   0.0000       2.000863        54.4462 
 101   0.0000       2.036776        55.4235 
 102   0.0000       2.059455        56.0406 
 103   0.0000       2.091377        56.9092 
 104   0.0000       2.107682        57.3529 
 105   0.0000       2.112594        57.4866 
 106   0.0000       2.139056        58.2067 
 107   0.0000       2.156198        58.6731 
 108   0.0000       2.206519        60.0424 
 109   0.0000       2.248553        61.1862 
 110   0.0000       2.278279        61.9951 
 111   0.0000       2.327778        63.3421 
 112   0.0000       2.415822        65.7379 
 113   0.0000       2.422267        65.9132 
 114   0.0000       2.444131        66.5082 
 115   0.0000       2.453057        66.7511 
 116   0.0000       2.496973        67.9461 
 117   0.0000       2.516195        68.4692 
 118   0.0000       2.576039        70.0976 
 119   0.0000       2.598590        70.7112 
 120   0.0000       2.637002        71.7565 
 121   0.0000       2.653246        72.1985 
 122   0.0000       2.664559        72.5063 
 123   0.0000       2.678293        72.8801 
 124   0.0000       2.717912        73.9581 
 125   0.0000       2.765063        75.2412 
 126   0.0000       2.781048        75.6762 
 127   0.0000       2.820182        76.7410 
 128   0.0000       2.826563        76.9147 
 129   0.0000       2.869311        78.0779 
 130   0.0000       2.928290        79.6828 
 131   0.0000       2.947747        80.2123 
 132   0.0000       3.023844        82.2830 
 133   0.0000       3.040184        82.7276 
 134   0.0000       3.074857        83.6711 
 135   0.0000       3.092648        84.1552 
 136   0.0000       3.139634        85.4338 
 137   0.0000       3.158969        85.9599 
 138   0.0000       3.175628        86.4132 
 139   0.0000       3.194818        86.9354 
 140   0.0000       3.233024        87.9750 
 141   0.0000       3.249777        88.4309 
 142   0.0000       3.280014        89.2537 
 143   0.0000       3.301265        89.8320 
 144   0.0000       3.331192        90.6463 
 145   0.0000       3.341578        90.9290 
 146   0.0000       3.398200        92.4697 
 147   0.0000       3.428790        93.3021 
 148   0.0000       3.454326        93.9970 
 149   0.0000       3.484534        94.8190 
 150   0.0000       3.509529        95.4991 
 151   0.0000       3.550255        96.6073 
 152   0.0000       3.596480        97.8652 
 153   0.0000       3.621334        98.5415 
 154   0.0000       3.631901        98.8290 
 155   0.0000       3.660002        99.5937 
 156   0.0000       3.695130       100.5496 
 157   0.0000       3.740372       101.7807 
 158   0.0000       3.808272       103.6283 
 159   0.0000       3.826811       104.1328 
 160   0.0000       3.929120       106.9168 
 161   0.0000       3.969126       108.0054 
 162   0.0000       4.017275       109.3156 
 163   0.0000       4.086438       111.1976 
 164   0.0000       4.134430       112.5036 
 165   0.0000       4.205538       114.4385 
 166   0.0000       4.271254       116.2267 
 167   0.0000       4.339695       118.0891 
 168   0.0000       4.346225       118.2668 
 169   0.0000       4.401327       119.7662 
 170   0.0000       4.511693       122.7694 
 171   0.0000       4.533809       123.3712 
 172   0.0000       4.616190       125.6129 
 173   0.0000       4.646677       126.4425 
 174   0.0000       4.691177       127.6534 
 175   0.0000       4.763267       129.6151 
 176   0.0000       4.802517       130.6831 
 177   0.0000       4.872674       132.5922 
 178   0.0000       4.898084       133.2836 
 179   0.0000       4.983048       135.5956 
 180   0.0000       5.012137       136.3872 
 181   0.0000       5.062136       137.7477 
 182   0.0000       5.129776       139.5883 
 183   0.0000       5.154712       140.2668 
 184   0.0000       5.204990       141.6350 
 185   0.0000       5.266778       143.3163 
 186   0.0000       5.282208       143.7362 
 187   0.0000       5.303909       144.3267 
 188   0.0000       5.335511       145.1866 
 189   0.0000       5.397314       146.8684 
 190   0.0000       5.446764       148.2140 
 191   0.0000       5.508138       149.8841 
 192   0.0000       5.573176       151.6538 
 193   0.0000       5.718090       155.5971 
 194   0.0000       5.812037       158.1536 
 195   0.0000       5.940300       161.6438 
 196   0.0000       6.023293       163.9021 
 197   0.0000       6.280451       170.8998 
 198   0.0000      22.532619       613.1437 
 199   0.0000      22.726294       618.4139 
 200   0.0000      23.472098       638.7083 
 201   0.0000      32.074506       872.7917 
 202   0.0000      32.556692       885.9126 

                    ********************************
                    * MULLIKEN POPULATION ANALYSIS *
                    ********************************

-----------------------
MULLIKEN ATOMIC CHARGES
-----------------------
   0 C :   -0.205540
   1 N :   -0.351294
   2 C :    0.363147
   3 N :   -0.494371
   4 C :   -0.497568
   5 H :    0.096097
   6 H :    0.060883
   7 H :    0.194098
   8 H :    0.218204
   9 H :    0.254148
  10 H :    0.124309
  11 H :    0.125071
  12 H :    0.112817
Sum of atomic charges:    0.0000000

--------------------------------
MULLIKEN REDUCED ORBITAL CHARGES
--------------------------------
  0 C s       :     3.226333  s :     3.226333
      pz      :     1.065161  p :     2.904142
      px      :     0.788347
      py      :     1.050635
      dz2     :     0.013719  d :     0.069749
      dxz     :     0.014292
      dyz     :     0.002162
      dx2y2   :     0.012399
      dxy     :     0.027176
      f0      :     0.001063  f :     0.005317
      f+1     :     0.000652
      f-1     :     0.000134
      f+2     :     0.000701
      f-2     :     0.000170
      f+3     :     0.000952
      f-3     :     0.001646
  1 N s       :     3.460727  s :     3.460727
      pz      :     1.246181  p :     3.824065
      px      :     1.085253
      py      :     1.492631
      dz2     :     0.013893  d :     0.062504
      dxz     :     0.017866
      dyz     :     0.008625
      dx2y2   :     0.008062
      dxy     :     0.014058
      f0      :     0.000756  f :     0.003999
      f+1     :     0.000651
      f-1     :     0.000530
      f+2     :     0.000527
      f-2     :     0.000574
      f+3     :     0.000508
      f-3     :     0.000454
  2 C s       :     3.001963  s :     3.001963
      pz      :     0.740387  p :     2.406870
      px      :     0.759767
      py      :     0.906716
      dz2     :     0.051640  d :     0.209664
      dxz     :     0.037995
      dyz     :     0.041412
      dx2y2   :     0.059226
      dxy     :     0.019391
      f0      :     0.003001  f :     0.018356
      f+1     :     0.003962
      f-1     :     0.002772
      f+2     :     0.002765
      f-2     :     0.001571
      f+3     :     0.002560
      f-3     :     0.001726
  3 N s       :     3.490249  s :     3.490249
      pz      :     1.366182  p :     3.961296
      px      :     1.359651
      py      :     1.235463
      dz2     :     0.010104  d :     0.039693
      dxz     :     0.007732
      dyz     :     0.001075
      dx2y2   :     0.012682
      dxy     :     0.008100
      f0      :     0.000401  f :     0.003133
      f+1     :     0.000609
      f-1     :     0.000354
      f+2     :     0.000536
      f-2     :     0.000310
      f+3     :     0.000383
      f-3     :     0.000539
  4 C s       :     3.270265  s :     3.270265
      pz      :     0.960513  p :     3.187410
      px      :     1.050937
      py      :     1.175960
      dz2     :     0.011006  d :     0.035469
      dxz     :     0.002326
      dyz     :     0.004949
      dx2y2   :     0.011144
      dxy     :     0.006043
      f0      :     0.000782  f :     0.004425
      f+1     :     0.000483
      f-1     :     0.000613
      f+2     :     0.000551
      f-2     :     0.000379
      f+3     :     0.000831
      f-3     :     0.000788
  5 H s       :     0.877410  s :     0.877410
      pz      :     0.012755  p :     0.026493
      px      :     0.005406
      py      :     0.008332
  6 H s       :     0.911902  s :     0.911902
      pz      :     0.005484  p :     0.027216
      px      :     0.012608
      py      :     0.009123
  7 H s       :     0.767895  s :     0.767895
      pz      :     0.011467  p :     0.038008
      px      :     0.012420
      py      :     0.014121
  8 H s       :     0.745059  s :     0.745059
      pz      :     0.008966  p :     0.036737
      px      :     0.009173
      py      :     0.018597
  9 H s       :     0.709668  s :     0.709668
      pz      :     0.018618  p :     0.036184
      px      :     0.009549
      py      :     0.008017
 10 H s       :     0.852956  s :     0.852956
      pz      :     0.006929  p :     0.022735
      px      :     0.007684
      py      :     0.008123
 11 H s       :     0.853685  s :     0.853685
      pz      :     0.012867  p :     0.021245
      px      :     0.003841
      py      :     0.004536
 12 H s       :     0.865781  s :     0.865781
      pz      :     0.004964  p :     0.021402
      px      :     0.004409
      py      :     0.012029


                     *******************************
                     * LOEWDIN POPULATION ANALYSIS *
                     *******************************

----------------------
LOEWDIN ATOMIC CHARGES
----------------------
   0 C :   -0.288331
   1 N :    0.082535
   2 C :   -0.476177
   3 N :   -0.018523
   4 C :   -0.341429
   5 H :    0.097477
   6 H :    0.093925
   7 H :    0.177710
   8 H :    0.162614
   9 H :    0.178680
  10 H :    0.117750
  11 H :    0.110460
  12 H :    0.103308

-------------------------------
LOEWDIN REDUCED ORBITAL CHARGES
-------------------------------
  0 C s       :     2.828185  s :     2.828185
      pz      :     1.084273  p :     3.097048
      px      :     0.923411
      py      :     1.089364
      dz2     :     0.071335  d :     0.323767
      dxz     :     0.065305
      dyz     :     0.014431
      dx2y2   :     0.071308
      dxy     :     0.101388
      f0      :     0.005273  f :     0.039332
      f+1     :     0.004737
      f-1     :     0.001277
      f+2     :     0.006876
      f-2     :     0.005230
      f+3     :     0.006230
      f-3     :     0.009708
  1 N s       :     2.929243  s :     2.929243
      pz      :     1.251103  p :     3.742235
      px      :     1.129042
      py      :     1.362090
      dz2     :     0.053354  d :     0.229404
      dxz     :     0.071453
      dyz     :     0.028279
      dx2y2   :     0.028403
      dxy     :     0.047915
      f0      :     0.003362  f :     0.016583
      f+1     :     0.003328
      f-1     :     0.001972
      f+2     :     0.002159
      f-2     :     0.002300
      f+3     :     0.001763
      f-3     :     0.001699
  2 C s       :     2.701617  s :     2.701617
      pz      :     0.943771  p :     2.795036
      px      :     0.948874
      py      :     0.902391
      dz2     :     0.206076  d :     0.862130
      dxz     :     0.183893
      dyz     :     0.161527
      dx2y2   :     0.195068
      dxy     :     0.115566
      f0      :     0.020375  f :     0.117395
      f+1     :     0.024712
      f-1     :     0.018135
      f+2     :     0.015752
      f-2     :     0.011765
      f+3     :     0.014018
      f-3     :     0.012636
  3 N s       :     2.992308  s :     2.992308
      pz      :     1.276510  p :     3.858404
      px      :     1.361453
      py      :     1.220440
      dz2     :     0.036694  d :     0.155414
      dxz     :     0.031815
      dyz     :     0.008534
      dx2y2   :     0.048282
      dxy     :     0.030089
      f0      :     0.001282  f :     0.012398
      f+1     :     0.001865
      f-1     :     0.001108
      f+2     :     0.002372
      f-2     :     0.001036
      f+3     :     0.002014
      f-3     :     0.002721
  4 C s       :     2.813018  s :     2.813018
      pz      :     1.033190  p :     3.281217
      px      :     1.074313
      py      :     1.173714
      dz2     :     0.076791  d :     0.217963
      dxz     :     0.035177
      dyz     :     0.035431
      dx2y2   :     0.034547
      dxy     :     0.036018
      f0      :     0.004610  f :     0.029231
      f+1     :     0.002750
      f-1     :     0.005099
      f+2     :     0.004782
      f-2     :     0.005016
      f+3     :     0.003173
      f-3     :     0.003801
  5 H s       :     0.822552  s :     0.822552
      pz      :     0.034323  p :     0.079971
      px      :     0.019573
      py      :     0.026075
  6 H s       :     0.828089  s :     0.828089
      pz      :     0.019197  p :     0.077986
      px      :     0.033161
      py      :     0.025628
  7 H s       :     0.717498  s :     0.717498
      pz      :     0.029087  p :     0.104792
      px      :     0.032940
      py      :     0.042765
  8 H s       :     0.729433  s :     0.729433
      pz      :     0.026359  p :     0.107953
      px      :     0.026017
      py      :     0.055576
  9 H s       :     0.714326  s :     0.714326
      pz      :     0.056850  p :     0.106994
      px      :     0.026405
      py      :     0.023739
 10 H s       :     0.816674  s :     0.816674
      pz      :     0.021055  p :     0.065576
      px      :     0.020171
      py      :     0.024350
 11 H s       :     0.825835  s :     0.825835
      pz      :     0.037169  p :     0.063706
      px      :     0.011594
      py      :     0.014942
 12 H s       :     0.831995  s :     0.831995
      pz      :     0.016352  p :     0.064697
      px      :     0.013097
      py      :     0.035248


                      *****************************
                      * MAYER POPULATION ANALYSIS *
                      *****************************

  NA   - Mulliken gross atomic population
  ZA   - Total nuclear charge
  QA   - Mulliken gross atomic charge
  VA   - Mayer's total valence
  BVA  - Mayer's bonded valence
  FA   - Mayer's free valence

  ATOM       NA         ZA         QA         VA         BVA        FA
  0 C      6.2055     6.0000    -0.2055     3.8837     3.8837     0.0000
  1 N      7.3513     7.0000    -0.3513     3.0741     3.0741    -0.0000
  2 C      5.6369     6.0000     0.3631     3.9066     3.9066     0.0000
  3 N      7.4944     7.0000    -0.4944     3.0509     3.0509     0.0000
  4 C      6.4976     6.0000    -0.4976     3.7698     3.7698     0.0000
  5 H      0.9039     1.0000     0.0961     0.9915     0.9915     0.0000
  6 H      0.9391     1.0000     0.0609     1.0140     1.0140     0.0000
  7 H      0.8059     1.0000     0.1941     0.9687     0.9687    -0.0000
  8 H      0.7818     1.0000     0.2182     0.9579     0.9579     0.0000
  9 H      0.7459     1.0000     0.2541     0.9487     0.9487     0.0000
 10 H      0.8757     1.0000     0.1243     0.9819     0.9819    -0.0000
 11 H      0.8749     1.0000     0.1251     0.9717     0.9717    -0.0000
 12 H      0.8872     1.0000     0.1128     0.9654     0.9654     0.0000

  Mayer bond orders larger than 0.100000
B(  0-C ,  1-N ) :   0.9245 B(  0-C , 10-H ) :   0.9773 B(  0-C , 11-H ) :   0.9745 
B(  0-C , 12-H ) :   0.9819 B(  1-N ,  2-C ) :   1.1564 B(  1-N ,  7-H ) :   0.9339 
B(  2-C ,  3-N ) :   1.1292 B(  2-C ,  4-C ) :   1.6078 B(  3-N ,  8-H ) :   0.9175 
B(  3-N ,  9-H ) :   0.9204 B(  4-C ,  5-H ) :   0.9797 B(  4-C ,  6-H ) :   1.0294 


-------
TIMINGS
-------

Total SCF time: 0 days 0 hours 0 min 9 sec 

Total time                  ....       9.265 sec
Sum of individual times     ....       9.028 sec  ( 97.4%)

Fock matrix formation       ....       8.261 sec  ( 89.2%)
  Split-RI-J                ....       0.676 sec  (  8.2% of F)
  Chain of spheres X        ....       6.674 sec  ( 80.8% of F)
  XC integration            ....       0.850 sec  ( 10.3% of F)
    Basis function eval.    ....       0.229 sec  ( 27.0% of XC)
    Density eval.           ....       0.166 sec  ( 19.5% of XC)
    XC-Functional eval.     ....       0.062 sec  (  7.3% of XC)
    XC-Potential eval.      ....       0.207 sec  ( 24.4% of XC)
Diagonalization             ....       0.076 sec  (  0.8%)
Density matrix formation    ....       0.009 sec  (  0.1%)
Population analysis         ....       0.012 sec  (  0.1%)
Initial guess               ....       0.054 sec  (  0.6%)
Orbital Transformation      ....       0.000 sec  (  0.0%)
Orbital Orthonormalization  ....       0.000 sec  (  0.0%)
DIIS solution               ....       0.045 sec  (  0.5%)
SOSCF solution              ....       0.059 sec  (  0.6%)
Grid generation             ....       0.511 sec  (  5.5%)

Maximum memory used throughout the entire SCF-calculation: 67.6 MB


-------------------------------------------------------------------------------
                          DFT DISPERSION CORRECTION                            
                                                                               
                              DFTD3 V3.1  Rev 1                                
                              USING zero damping                               
-------------------------------------------------------------------------------
The omegaB97X-D3 functional is recognized. Fit by Chai et al.
Active option DFTDOPT                   ...         3   

molecular C6(AA) [au] = 1312.065425 


            DFT-D V3
 parameters
 s6 scaling factor         :     1.0000 
 rs6 scaling factor        :     1.2810 
 s8 scaling factor         :     1.0000 
 rs8 scaling factor        :     1.0940 
 Damping factor alpha6     :    14.0000 
 Damping factor alpha8     :    16.0000 
 ad hoc parameters k1-k3   :    16.0000     1.3333    -4.0000 

 Edisp/kcal,au: -1.532736738731  -0.002442571210 
 E6   /kcal   :  -0.638128344 
 E8   /kcal   :  -0.894608395 
 % E8         :  58.366735267 

-------------------------   ----------------
Dispersion correction           -0.002442571
-------------------------   ----------------


-------------------------   --------------------
FINAL SINGLE POINT ENERGY      -228.609218492028
-------------------------   --------------------


                            ***************************************
                            *     ORCA property calculations      *
                            ***************************************

                                    ---------------------
                                    Active property flags
                                    ---------------------
   (+) Dipole Moment


------------------------------------------------------------------------------
                       ORCA ELECTRIC PROPERTIES CALCULATION
------------------------------------------------------------------------------

Dipole Moment Calculation                       ... on
Quadrupole Moment Calculation                   ... off
Polarizability Calculation                      ... off
GBWName                                         ... C3_pos.gbw
Electron density file                           ... C3_pos.scfp
The origin for moment calculation is the CENTER OF MASS  = (10.129224,  6.251755 -9.427570)

-------------
DIPOLE MOMENT
-------------
                                X             Y             Z
Electronic contribution:      2.81344       0.21533       0.01299
Nuclear contribution   :     -2.69659      -1.53624       0.30152
                        -----------------------------------------
Total Dipole Moment    :      0.11685      -1.32091       0.31451
                        -----------------------------------------
Magnitude (a.u.)       :      1.36286
Magnitude (Debye)      :      3.46411



--------------------
Rotational spectrum 
--------------------
 
Rotational constants in cm-1:     0.320409     0.134796     0.100241 
Rotational constants in MHz :  9605.632807  4041.079317  3005.150506 

 Dipole components along the rotational axes: 
x,y,z [a.u.] :     0.342114     1.023736    -0.832046 
x,y,z [Debye]:     0.869584     2.602131    -2.114892 

 

Timings for individual modules:

Sum of individual times         ...       10.192 sec (=   0.170 min)
GTO integral calculation        ...        0.593 sec (=   0.010 min)   5.8 %
SCF iterations                  ...        9.599 sec (=   0.160 min)  94.2 %
                             ****ORCA TERMINATED NORMALLY****
TOTAL RUN TIME: 0 days 0 hours 0 minutes 10 seconds 822 msec
