
                                        *****************
                                        * O   R   C   A *
                                        *****************

                                            #,                                       
                                            ###                                      
                                            ####                                     
                                            #####                                    
                                            ######                                   
                                           ########,                                 
                                     ,,################,,,,,                         
                               ,,#################################,,                 
                          ,,##########################################,,             
                       ,#########################################, ''#####,          
                    ,#############################################,,   '####,        
                  ,##################################################,,,,####,       
                ,###########''''           ''''###############################       
              ,#####''   ,,,,##########,,,,          '''####'''          '####       
            ,##' ,,,,###########################,,,                        '##       
           ' ,,###''''                  '''############,,,                           
         ,,##''                                '''############,,,,        ,,,,,,###''
      ,#''                                            '''#######################'''  
     '                                                          ''''####''''         
             ,#######,   #######,   ,#######,      ##                                
            ,#'     '#,  ##    ##  ,#'     '#,    #''#        ######   ,####,        
            ##       ##  ##   ,#'  ##            #'  '#       #        #'  '#        
            ##       ##  #######   ##           ,######,      #####,   #    #        
            '#,     ,#'  ##    ##  '#,     ,#' ,#      #,         ##   #,  ,#        
             '#######'   ##     ##  '#######'  #'      '#     #####' # '####'        



                  #######################################################
                  #                        -***-                        #
                  #          Department of theory and spectroscopy      #
                  #    Directorship and core code : Frank Neese         #
                  #        Max Planck Institute fuer Kohlenforschung    #
                  #                Kaiser Wilhelm Platz 1               #
                  #                 D-45470 Muelheim/Ruhr               #
                  #                      Germany                        #
                  #                                                     #
                  #                  All rights reserved                #
                  #                        -***-                        #
                  #######################################################


                         Program Version 5.0.0 -  RELEASE  -
                                (SVN: $Rev: 19529$)
                ($Date: 2021-06-28 11:36:33 +0200 (Mo, 28 Jun 2021) $)


 With contributions from (in alphabetic order):
   Daniel Aravena         : Magnetic Suceptibility
   Michael Atanasov       : Ab Initio Ligand Field Theory (pilot matlab implementation)
   Alexander A. Auer      : GIAO ZORA, VPT2 properties, NMR spectrum
   Ute Becker             : Parallelization
   Giovanni Bistoni       : ED, misc. LED, open-shell LED, HFLD
   Martin Brehm           : Molecular dynamics
   Dmytro Bykov           : SCF Hessian
   Vijay G. Chilkuri      : MRCI spin determinant printing, contributions to CSF-ICE
   Dipayan Datta          : RHF DLPNO-CCSD density
   Achintya Kumar Dutta   : EOM-CC, STEOM-CC
   Dmitry Ganyushin       : Spin-Orbit,Spin-Spin,Magnetic field MRCI
   Miquel Garcia          : C-PCM Hessian, Gaussian charge scheme
   Yang Guo               : DLPNO-NEVPT2, F12-NEVPT2, CIM, IAO-localization
   Andreas Hansen         : Spin unrestricted coupled pair/coupled cluster methods
   Benjamin Helmich-Paris : MC-RPA, TRAH-SCF, COSX integrals
   Lee Huntington         : MR-EOM, pCC
   Robert Izsak           : Overlap fitted RIJCOSX, COSX-SCS-MP3, EOM
   Marcus Kettner         : VPT2
   Christian Kollmar      : KDIIS, OOCD, Brueckner-CCSD(T), CCSD density, CASPT2, CASPT2-K
   Simone Kossmann        : Meta GGA functionals, TD-DFT gradient, OOMP2, MP2 Hessian
   Martin Krupicka        : Initial AUTO-CI
   Lucas Lang             : DCDCAS
   Marvin Lechner         : AUTO-CI (C++ implementation), FIC-MRCC
   Dagmar Lenk            : GEPOL surface, SMD
   Dimitrios Liakos       : Extrapolation schemes; Compound Job, initial MDCI parallelization
   Dimitrios Manganas     : Further ROCIS development; embedding schemes
   Dimitrios Pantazis     : SARC Basis sets
   Anastasios Papadopoulos: AUTO-CI, single reference methods and gradients
   Taras Petrenko         : DFT Hessian,TD-DFT gradient, ASA, ECA, R-Raman, ABS, FL, XAS/XES, NRVS
   Peter Pinski           : DLPNO-MP2, DLPNO-MP2 Gradient
   Christoph Reimann      : Effective Core Potentials
   Marius Retegan         : Local ZFS, SOC
   Christoph Riplinger    : Optimizer, TS searches, QM/MM, DLPNO-CCSD(T), (RO)-DLPNO pert. Triples
   Tobias Risthaus        : Range-separated hybrids, TD-DFT gradient, RPA, STAB
   Michael Roemelt        : Original ROCIS implementation
   Masaaki Saitow         : Open-shell DLPNO-CCSD energy and density
   Barbara Sandhoefer     : DKH picture change effects
   Avijit Sen             : IP-ROCIS
   Kantharuban Sivalingam : CASSCF convergence, NEVPT2, FIC-MRCI
   Bernardo de Souza      : ESD, SOC TD-DFT
   Georgi Stoychev        : AutoAux, RI-MP2 NMR
   Willem Van den Heuvel  : Paramagnetic NMR
   Boris Wezisla          : Elementary symmetry handling
   Frank Wennmohs         : Technical directorship


 We gratefully acknowledge several colleagues who have allowed us to
 interface, adapt or use parts of their codes:
   Stefan Grimme, W. Hujo, H. Kruse, P. Pracht,  : VdW corrections, initial TS optimization,
                  C. Bannwarth, S. Ehlert          DFT functionals, gCP, sTDA/sTD-DF
   Ed Valeev, F. Pavosevic, A. Kumar             : LibInt (2-el integral package), F12 methods
   Garnet Chan, S. Sharma, J. Yang, R. Olivares  : DMRG
   Ulf Ekstrom                                   : XCFun DFT Library
   Mihaly Kallay                                 : mrcc  (arbitrary order and MRCC methods)
   Jiri Pittner, Ondrej Demel                    : Mk-CCSD
   Frank Weinhold                                : gennbo (NPA and NBO analysis)
   Christopher J. Cramer and Donald G. Truhlar   : smd solvation model
   Lars Goerigk                                  : TD-DFT with DH, B97 family of functionals
   V. Asgeirsson, H. Jonsson                     : NEB implementation
   FAccTs GmbH                                   : IRC, NEB, NEB-TS, DLPNO-Multilevel, CI-OPT
                                                   MM, QMMM, 2- and 3-layer-ONIOM, Crystal-QMMM,
                                                   LR-CPCM, SF, NACMEs, symmetry and pop. for TD-DFT,
                                                   nearIR, NL-DFT gradient (VV10), updates on ESD,
                                                   ML-optimized integration grids
   S Lehtola, MJT Oliveira, MAL Marques          : LibXC Library
   Liviu Ungur et al                             : ANISO software


 Your calculation uses the libint2 library for the computation of 2-el integrals
 For citations please refer to: http://libint.valeyev.net

 Your ORCA version has been built with support for libXC version: 5.1.0
 For citations please refer to: https://tddft.org/programs/libxc/

 This ORCA versions uses:
   CBLAS   interface :  Fast vector & matrix operations
   LAPACKE interface :  Fast linear algebra routines
   SCALAPACK package :  Parallel linear algebra routines
   Shared memory     :  Shared parallel matrices
   BLAS/LAPACK       :  OpenBLAS 0.3.15  USE64BITINT DYNAMIC_ARCH NO_AFFINITY Haswell SINGLE_THREADED
        Core in use  :  Haswell
   Copyright (c) 2011-2014, The OpenBLAS Project




***************************************
The coordinates will be read from file: D3.xyz
***************************************


================================================================================

----- Orbital basis set information -----
Your calculation utilizes the basis: def2-SVPD
   F. Weigend and R. Ahlrichs, Phys. Chem. Chem. Phys. 7, 3297 (2005).
   D. Rappoport and F. Furche, J. Chem. Phys. 133 134105 (2010).

----- AuxJ basis set information -----
Your calculation utilizes the auxiliary basis: def2/J
   F. Weigend, Phys. Chem. Chem. Phys. 8, 1057 (2006).

================================================================================
                                        WARNINGS
                       Please study these warnings very carefully!
================================================================================


INFO   : the flag for use of the SHARK integral package has been found!

================================================================================
                                       INPUT FILE
================================================================================
NAME = 28Oct_SVPD_LC_PBE_D3_wb97.com
|  1> !LC-PBE RIJCOSX def2-SVPD def2/J TightSCF xyzfile                                                                                         
|  2> 
|  3> *xyzfile 0 1 D3.xyz
|  4> 
|  5> %MaxCore 64000
|  6> 
|  7> %pal nprocs 4                                                                                                                                                  
|  8> end  
|  9> 
| 10> %scf
| 11>   MaxIter 150
| 12> end
| 13> 
| 14> 
| 15>                          ****END OF INPUT****
================================================================================

                       ****************************
                       * Single Point Calculation *
                       ****************************

---------------------------------
CARTESIAN COORDINATES (ANGSTROEM)
---------------------------------
  C      4.999862   -1.596133   -5.924876
  N      5.281560   -1.974132   -4.535764
  C      3.766779   -2.266110   -6.511752
  C      2.496702   -1.844161   -5.735704
  H      1.626416   -2.217434   -6.308950
  H      2.481824   -2.456069   -4.793414
  F      2.459729   -0.509204   -5.505757
  C      4.792500   -1.361316   -3.457295
  N      3.939898   -0.374925   -3.557359
  C      5.259860   -1.754224   -2.239133
  H      5.922824   -2.521451   -2.186720
  H      4.654678   -1.640404   -1.442016
  H      5.709139   -2.875599   -4.387021
  H      3.330101   -0.317639   -4.361247
  H      3.698494    0.114468   -2.708333
  H      4.843333   -0.517930   -5.943019
  H      5.901695   -1.822503   -6.496467
  H      3.886191   -3.357076   -6.533604
  H      3.685602   -1.922168   -7.547128

----------------------------
CARTESIAN COORDINATES (A.U.)
----------------------------
  NO LB      ZA    FRAG     MASS         X           Y           Z
   0 C     6.0000    0    12.011    9.448370   -3.016254  -11.196392
   1 N     7.0000    0    14.007    9.980702   -3.730569   -8.571352
   2 C     6.0000    0    12.011    7.118182   -4.282328  -12.305427
   3 C     6.0000    0    12.011    4.718083   -3.484959  -10.838910
   4 H     1.0000    0     1.008    3.073481   -4.190343  -11.922187
   5 H     1.0000    0     1.008    4.689968   -4.641298   -9.058240
   6 F     9.0000    0    18.998    4.648215   -0.962256  -10.404372
   7 C     6.0000    0    12.011    9.056513   -2.572515   -6.533342
   8 N     7.0000    0    14.007    7.445328   -0.708505   -6.722435
   9 C     6.0000    0    12.011    9.939695   -3.315002   -4.231347
  10 H     1.0000    0     1.008   11.192516   -4.764851   -4.132303
  11 H     1.0000    0     1.008    8.796068   -3.099915   -2.725015
  12 H     1.0000    0     1.008   10.788710   -5.434094   -8.290268
  13 H     1.0000    0     1.008    6.292979   -0.600251   -8.241562
  14 H     1.0000    0     1.008    6.989141    0.216313   -5.118007
  15 H     1.0000    0     1.008    9.152573   -0.978745  -11.230678
  16 H     1.0000    0     1.008   11.152587   -3.444032  -12.276543
  17 H     1.0000    0     1.008    7.343836   -6.343954  -12.346723
  18 H     1.0000    0     1.008    6.964779   -3.632371  -14.262004

--------------------------------
INTERNAL COORDINATES (ANGSTROEM)
--------------------------------
 C      0   0   0     0.000000000000     0.00000000     0.00000000
 N      1   0   0     1.466924750206     0.00000000     0.00000000
 C      1   2   0     1.521113392766   114.04966592     0.00000000
 C      3   1   2     1.547057623845   110.59998023    62.81935347
 H      4   3   1     1.106951293405   107.07946246   170.42764673
 H      4   3   1     1.123638308975   106.43986060   281.07966070
 F      4   3   1     1.355121078382   112.09872702    45.34055250
 C      2   1   3     1.333348078827   125.24467399   271.38349535
 N      8   2   1     1.307636083220   121.59795092     3.37727598
 C      8   2   1     1.362615791871   117.69499979   186.46452058
 H     10   8   2     1.015335410544   119.20847195   357.06926359
 H     10   8   2     1.007270659929   117.95742983   207.37687725
 H      2   1   3     1.008756832951   116.82720843    77.45319175
 H      9   8   2     1.010627998268   119.80461425    27.35380844
 H      9   8   2     1.009270616395   117.21652192   187.25441364
 H      1   2   3     1.089657123989   107.35707377   119.90290291
 H      1   2   3     1.091449785076   106.48738639   235.80944954
 H      3   1   2     1.097698899720   110.93119055   298.25137993
 H      3   1   2     1.094024376157   106.66748579   181.39979219

---------------------------
INTERNAL COORDINATES (A.U.)
---------------------------
 C      0   0   0     0.000000000000     0.00000000     0.00000000
 N      1   0   0     2.772086036961     0.00000000     0.00000000
 C      1   2   0     2.874487730967   114.04966592     0.00000000
 C      3   1   2     2.923515222463   110.59998023    62.81935347
 H      4   3   1     2.091834788125   107.07946246   170.42764673
 H      4   3   1     2.123368677545   106.43986060   281.07966070
 F      4   3   1     2.560807716446   112.09872702    45.34055250
 C      2   1   3     2.519662710174   125.24467399   271.38349535
 N      8   2   1     2.471074080119   121.59795092     3.37727598
 C      8   2   1     2.574970672393   117.69499979   186.46452058
 H     10   8   2     1.918705860000   119.20847195   357.06926359
 H     10   8   2     1.903465690000   117.95742983   207.37687725
 H      2   1   3     1.906274150000   116.82720843    77.45319175
 H      9   8   2     1.909810140000   119.80461425    27.35380844
 H      9   8   2     1.907245060000   117.21652192   187.25441364
 H      1   2   3     2.059153544216   107.35707377   119.90290291
 H      1   2   3     2.062541182722   106.48738639   235.80944954
 H      3   1   2     2.074350297978   110.93119055   298.25137993
 H      3   1   2     2.067406454771   106.66748579   181.39979219

---------------------
BASIS SET INFORMATION
---------------------
There are 4 groups of distinct atoms

 Group   1 Type C   : 8s4p2d contracted to 4s2p2d pattern {5111/31/11}
 Group   2 Type N   : 8s4p2d contracted to 4s2p2d pattern {5111/31/11}
 Group   3 Type H   : 4s2p contracted to 2s2p pattern {31/11}
 Group   4 Type F   : 8s5p2d contracted to 4s3p2d pattern {5111/311/11}

Atom   0C    basis set group =>   1
Atom   1N    basis set group =>   2
Atom   2C    basis set group =>   1
Atom   3C    basis set group =>   1
Atom   4H    basis set group =>   3
Atom   5H    basis set group =>   3
Atom   6F    basis set group =>   4
Atom   7C    basis set group =>   1
Atom   8N    basis set group =>   2
Atom   9C    basis set group =>   1
Atom  10H    basis set group =>   3
Atom  11H    basis set group =>   3
Atom  12H    basis set group =>   3
Atom  13H    basis set group =>   3
Atom  14H    basis set group =>   3
Atom  15H    basis set group =>   3
Atom  16H    basis set group =>   3
Atom  17H    basis set group =>   3
Atom  18H    basis set group =>   3
---------------------------------
AUXILIARY/J BASIS SET INFORMATION
---------------------------------
There are 4 groups of distinct atoms

 Group   1 Type C   : 12s5p4d2f1g contracted to 6s4p3d1f1g pattern {711111/2111/211/2/1}
 Group   2 Type N   : 12s5p4d2f1g contracted to 6s4p3d1f1g pattern {711111/2111/211/2/1}
 Group   3 Type H   : 5s2p1d contracted to 3s1p1d pattern {311/2/1}
 Group   4 Type F   : 12s5p4d2f1g contracted to 6s4p3d1f1g pattern {711111/2111/211/2/1}

Atom   0C    basis set group =>   1
Atom   1N    basis set group =>   2
Atom   2C    basis set group =>   1
Atom   3C    basis set group =>   1
Atom   4H    basis set group =>   3
Atom   5H    basis set group =>   3
Atom   6F    basis set group =>   4
Atom   7C    basis set group =>   1
Atom   8N    basis set group =>   2
Atom   9C    basis set group =>   1
Atom  10H    basis set group =>   3
Atom  11H    basis set group =>   3
Atom  12H    basis set group =>   3
Atom  13H    basis set group =>   3
Atom  14H    basis set group =>   3
Atom  15H    basis set group =>   3
Atom  16H    basis set group =>   3
Atom  17H    basis set group =>   3
Atom  18H    basis set group =>   3


           ************************************************************
           *        Program running with 4 parallel MPI-processes     *
           *              working on a common directory               *
           ************************************************************
------------------------------------------------------------------------------
                           ORCA GTO INTEGRAL CALCULATION
                           -- RI-GTO INTEGRALS CHOSEN --
------------------------------------------------------------------------------
------------------------------------------------------------------------------
                   ___                                                        
                  /   \      - P O W E R E D   B Y -                         
                 /     \                                                     
                 |  |  |   _    _      __       _____    __    __             
                 |  |  |  | |  | |    /  \     |  _  \  |  |  /  |          
                  \  \/   | |  | |   /    \    | | | |  |  | /  /          
                 / \  \   | |__| |  /  /\  \   | |_| |  |  |/  /          
                |  |  |   |  __  | /  /__\  \  |    /   |      \           
                |  |  |   | |  | | |   __   |  |    \   |  |\   \          
                \     /   | |  | | |  |  |  |  | |\  \  |  | \   \       
                 \___/    |_|  |_| |__|  |__|  |_| \__\ |__|  \__/        
                                                                              
                      - O R C A' S   B I G   F R I E N D -                    
                                      &                                       
                       - I N T E G R A L  F E E D E R -                       
                                                                              
 v1 FN, 2020, v2 2021                                                         
------------------------------------------------------------------------------


Reading SHARK input file 28Oct_SVPD_LC_PBE_D3_wb97.SHARKINP.tmp ... ok
----------------------
SHARK INTEGRAL PACKAGE
----------------------

Number of atoms                             ...     19
Number of basis functions                   ...    251
Number of shells                            ...    109
Maximum angular momentum                    ...      2
Integral batch strategy                     ... SHARK/LIBINT Hybrid
RI-J (if used) integral strategy            ... SPLIT-RIJ (Revised 2003 algorithm where possible)
Printlevel                                  ...      1
Contraction scheme used                     ... SEGMENTED contraction
Coulomb Range Separation                    ... NOT USED
Exchange Range Separation                   ... Long Range
   Mu parameter                             ...  0.470000
   Scaling (regular/separated)              ...  0.000000  1.000000
Finite Nucleus Model                        ... NOT USED
Auxiliary Coulomb fitting basis             ... AVAILABLE
   # of basis functions in Aux-J            ...    513
   # of shells in Aux-J                     ...    175
   Maximum angular momentum in Aux-J        ...      4
Auxiliary J/K fitting basis                 ... NOT available
Auxiliary Correlation fitting basis         ... NOT available
Auxiliary 'external' fitting basis          ... NOT available
Integral threshold                          ...     2.500000e-11
Primitive cut-off                           ...     2.500000e-12
Primitive pair pre-selection threshold      ...     2.500000e-12

Calculating pre-screening integrals         ... done (  0.1 sec) Dimension = 109
Organizing shell pair data                  ... done (  0.0 sec)
Shell pair information
Total number of shell pairs                 ...      5995
Shell pairs after pre-screening             ...      5842
Total number of primitive shell pairs       ...     16247
Primitive shell pairs kept                  ...     12887
          la=0 lb=0:   1434 shell pairs
          la=1 lb=0:   2050 shell pairs
          la=1 lb=1:    762 shell pairs
          la=2 lb=0:    847 shell pairs
          la=2 lb=1:    614 shell pairs
          la=2 lb=2:    135 shell pairs

Calculating one electron integrals          ... done (  0.0 sec)
Calculating RI/J V-Matrix + Cholesky decomp.... done (  0.0 sec)
Calculating Nuclear repulsion               ... done (  0.0 sec) ENN=    415.014907056432 Eh

SHARK setup successfully completed in   0.2 seconds

Maximum memory used throughout the entire GTOINT-calculation: 11.2 MB


           ************************************************************
           *        Program running with 4 parallel MPI-processes     *
           *              working on a common directory               *
           ************************************************************
-------------------------------------------------------------------------------
                                 ORCA SCF
-------------------------------------------------------------------------------

------------
SCF SETTINGS
------------
Hamiltonian:
 Density Functional     Method          .... DFT(GTOs)
 Exchange Functional    Exchange        .... LC-PBE
 Correlation Functional Correlation     .... PBE
   PBE beta parameter  CBetaPBE         ....  0.066725
 LDA part of GGA corr.  LDAOpt          .... PW91-LDA
 Gradients option       PostSCFGGA      .... off
   Density functional embedding theory  .... OFF
 Long-range corrected/Screened/Range-Separated Hybrid DFT is turned on
   Amount of maximum screened exact exchange              ....  1.000000
   Range separation parameter mu (erf(mu*r12)/r12)        ....  0.470000
   NL short-range parameter             ....  6.400000
 RI-approximation to the Coulomb term is turned on
   Number of AuxJ basis functions       .... 513
   RIJ-COSX (HFX calculated with COS-X)).... on


General Settings:
 Integral files         IntName         .... 28Oct_SVPD_LC_PBE_D3_wb97
 Hartree-Fock type      HFTyp           .... RHF
 Total Charge           Charge          ....    0
 Multiplicity           Mult            ....    1
 Number of Electrons    NEL             ....   64
 Basis Dimension        Dim             ....  251
 Nuclear Repulsion      ENuc            ....    415.0149070564 Eh

Convergence Acceleration:
 DIIS                   CNVDIIS         .... on
   Start iteration      DIISMaxIt       ....    12
   Startup error        DIISStart       ....  0.200000
   # of expansion vecs  DIISMaxEq       ....     5
   Bias factor          DIISBfac        ....   1.050
   Max. coefficient     DIISMaxC        ....  10.000
 Trust-Rad. Augm. Hess. CNVTRAH         .... auto
   Auto Start mean grad. ratio tolernc. ....  1.125000
   Auto Start start iteration           ....    20
   Auto Start num. interpolation iter.  ....    10
   Max. Number of Micro iterations      ....    16
   Max. Number of Macro iterations      .... Maxiter - #DIIS iter
   Number of Davidson start vectors     ....     2
   Converg. threshold I  (grad. norm)   ....   1.000e-05
   Converg. threshold II (energy diff.) ....   1.000e-08
   Grad. Scal. Fac. for Micro threshold ....   0.100
   Minimum threshold for Micro iter.    ....   0.010
   NR start threshold (gradient norm)   ....   0.001
   Initial trust radius                 ....   0.400
   Minimum AH scaling param. (alpha)    ....   1.000
   Maximum AH scaling param. (alpha)    .... 1000.000
   Orbital update algorithm             .... Taylor
   White noise on init. David. guess    .... on
   Maximum white noise                  ....   0.010
   Quad. conv. algorithm                .... NR
 SOSCF                  CNVSOSCF        .... on
   Start iteration      SOSCFMaxIt      ....   150
   Startup grad/error   SOSCFStart      ....  0.003300
 Level Shifting         CNVShift        .... on
   Level shift para.    LevelShift      ....    0.2500
   Turn off err/grad.   ShiftErr        ....    0.0010
 Zerner damping         CNVZerner       .... off
 Static damping         CNVDamp         .... on
   Fraction old density DampFac         ....    0.7000
   Max. Damping (<1)    DampMax         ....    0.9800
   Min. Damping (>=0)   DampMin         ....    0.0000
   Turn off err/grad.   DampErr         ....    0.1000
 Fernandez-Rico         CNVRico         .... off

SCF Procedure:
 Maximum # iterations   MaxIter         ....   150
 SCF integral mode      SCFMode         .... Direct
   Integral package                     .... SHARK and LIBINT hybrid scheme
 Reset frequency        DirectResetFreq ....    20
 Integral Threshold     Thresh          ....  2.500e-11 Eh
 Primitive CutOff       TCut            ....  2.500e-12 Eh

Convergence Tolerance:
 Convergence Check Mode ConvCheckMode   .... Total+1el-Energy
 Convergence forced     ConvForced      .... 0
 Energy Change          TolE            ....  1.000e-08 Eh
 1-El. energy change                    ....  1.000e-05 Eh
 Orbital Gradient       TolG            ....  1.000e-05
 Orbital Rotation angle TolX            ....  1.000e-05
 DIIS Error             TolErr          ....  5.000e-07


Diagonalization of the overlap matrix:
Smallest eigenvalue                        ... 4.521e-05
Time for diagonalization                   ...    0.011 sec
Threshold for overlap eigenvalues          ... 1.000e-08
Number of eigenvalues below threshold      ... 0
Time for construction of square roots      ...    0.010 sec
Total time needed                          ...    0.022 sec

Time for model grid setup =    0.156 sec

------------------------------
INITIAL GUESS: MODEL POTENTIAL
------------------------------
Loading Hartree-Fock densities                     ... done
Calculating cut-offs                               ... done
Initializing the effective Hamiltonian             ... done
Setting up the integral package (SHARK)            ... done
Starting the Coulomb interaction                   ... done (   0.1 sec)
Reading the grid                                   ... done
Mapping shells                                     ... done
Starting the XC term evaluation                    ... done (   0.2 sec)
  promolecular density results
     # of electrons  =     63.991229848
     EX              =    -36.946971543
     EC              =     -2.143357853
     EX+EC           =    -39.090329396
Transforming the Hamiltonian                       ... done (   0.0 sec)
Diagonalizing the Hamiltonian                      ... done (   0.0 sec)
Back transforming the eigenvectors                 ... done (   0.0 sec)
Now organizing SCF variables                       ... done
                      ------------------
                      INITIAL GUESS DONE (   0.5 sec)
                      ------------------
-------------------
DFT GRID GENERATION
-------------------

General Integration Accuracy     IntAcc      ... 4.388
Radial Grid Type                 RadialGrid  ... OptM3 with GC (2021)
Angular Grid (max. ang.)         AngularGrid ... 4 (Lebedev-302)
Angular grid pruning method      GridPruning ... 4 (adaptive)
Weight generation scheme         WeightScheme... Becke
Basis function cutoff            BFCut       ... 1.0000e-11
Integration weight cutoff        WCut        ... 1.0000e-14
Angular grids for H and He will be reduced by one unit
Partially contracted basis set               ... off
Rotationally invariant grid construction     ... off

Total number of grid points                  ...    85609
Total number of batches                      ...     1348
Average number of points per batch           ...       63
Average number of grid points per atom       ...     4506
Time for grid setup =    0.587 sec

--------------------
COSX GRID GENERATION
--------------------

GRIDX 1
-------
General Integration Accuracy     IntAcc      ... 3.816
Radial Grid Type                 RadialGrid  ... OptM3 with GC (2021)
Angular Grid (max. ang.)         AngularGrid ... 1 (Lebedev-50)
Angular grid pruning method      GridPruning ... 4 (adaptive)
Weight generation scheme         WeightScheme... Becke
Basis function cutoff            BFCut       ... 1.0000e-11
Integration weight cutoff        WCut        ... 1.0000e-14
Angular grids for H and He will be reduced by one unit
Partially contracted basis set               ... on
Rotationally invariant grid construction     ... off

Total number of grid points                  ...    10692
Total number of batches                      ...      179
Average number of points per batch           ...       59
Average number of grid points per atom       ...      563
UseSFitting                                  ... on

GRIDX 2
-------
General Integration Accuracy     IntAcc      ... 4.020
Radial Grid Type                 RadialGrid  ... OptM3 with GC (2021)
Angular Grid (max. ang.)         AngularGrid ... 2 (Lebedev-110)
Angular grid pruning method      GridPruning ... 4 (adaptive)
Weight generation scheme         WeightScheme... Becke
Basis function cutoff            BFCut       ... 1.0000e-11
Integration weight cutoff        WCut        ... 1.0000e-14
Angular grids for H and He will be reduced by one unit
Partially contracted basis set               ... on
Rotationally invariant grid construction     ... off

Total number of grid points                  ...    23791
Total number of batches                      ...      380
Average number of points per batch           ...       62
Average number of grid points per atom       ...     1252
UseSFitting                                  ... on

GRIDX 3
-------
General Integration Accuracy     IntAcc      ... 4.338
Radial Grid Type                 RadialGrid  ... OptM3 with GC (2021)
Angular Grid (max. ang.)         AngularGrid ... 3 (Lebedev-194)
Angular grid pruning method      GridPruning ... 4 (adaptive)
Weight generation scheme         WeightScheme... Becke
Basis function cutoff            BFCut       ... 1.0000e-11
Integration weight cutoff        WCut        ... 1.0000e-14
Angular grids for H and He will be reduced by one unit
Partially contracted basis set               ... on
Rotationally invariant grid construction     ... off

Total number of grid points                  ...    53926
Total number of batches                      ...      852
Average number of points per batch           ...       63
Average number of grid points per atom       ...     2838
UseSFitting                                  ... on

Time for X-Grid setup             =    0.674 sec

--------------
SCF ITERATIONS
--------------
ITER       Energy         Delta-E        Max-DP      RMS-DP      [F,P]     Damp
               ***  Starting incremental Fock matrix formation  ***
  0   -404.8099948568   0.000000000000 0.13311575  0.00209424  0.1551097 0.7000
  1   -404.8625874691  -0.052592612295 0.10883639  0.00158225  0.0894933 0.7000
                               ***Turning on DIIS***
  2   -404.8907781502  -0.028190681155 0.26616637  0.00366977  0.0424554 0.0000
  3   -404.9407519703  -0.049973820067 0.04865901  0.00099307  0.0421694 0.0000
  4   -404.9473102610  -0.006558290739 0.02187000  0.00047403  0.0075429 0.0000
  5   -404.9477485519  -0.000438290856 0.00872624  0.00023561  0.0072706 0.0000
                      *** Initiating the SOSCF procedure ***
                           *** Shutting down DIIS ***
                      *** Re-Reading the Fockian *** 
                      *** Removing any level shift *** 
ITER      Energy       Delta-E        Grad      Rot      Max-DP    RMS-DP
  6   -404.94790528  -0.0001567263  0.001129  0.001129  0.005827  0.000141
               *** Restarting incremental Fock matrix formation ***
  7   -404.94797262  -0.0000673390  0.000627  0.001482  0.005754  0.000110
  8   -404.94798467  -0.0000120488  0.000225  0.001407  0.005557  0.000108
  9   -404.94798821  -0.0000035392  0.000091  0.000166  0.001222  0.000029
 10   -404.94798888  -0.0000006729  0.000017  0.000052  0.000355  0.000007
 11   -404.94798890  -0.0000000266  0.000006  0.000015  0.000081  0.000001
 12   -404.94798891  -0.0000000061  0.000003  0.000010  0.000034  0.000001
                  ***Gradient check signals convergence***
              ***Rediagonalizing the Fockian in SOSCF/NRSCF***

               *****************************************************
               *                     SUCCESS                       *
               *           SCF CONVERGED AFTER  13 CYCLES          *
               *****************************************************


----------------
TOTAL SCF ENERGY
----------------

Total Energy       :         -404.94798891 Eh          -11019.19498 eV

Components:
Nuclear Repulsion  :          415.01490706 Eh           11293.12975 eV
Electronic Energy  :         -819.96289597 Eh          -22312.32474 eV
One Electron Energy:        -1375.02053566 Eh          -37416.21098 eV
Two Electron Energy:          555.05763969 Eh           15103.88624 eV
Max COSX asymmetry :            0.00001209 Eh               0.00033 eV

Virial components:
Potential Energy   :         -806.41855822 Eh          -21943.76457 eV
Kinetic Energy     :          401.47056931 Eh           10924.56959 eV
Virial Ratio       :            2.00866170


DFT components:
N(Alpha)           :       32.000077173588 electrons
N(Beta)            :       32.000077173588 electrons
N(Total)           :       64.000154347175 electrons
E(X)               :      -37.594855546252 Eh       
E(C)               :       -2.152503698765 Eh       
E(XC)              :      -39.747359245017 Eh       
DFET-embed. en.    :        0.000000000000 Eh       

---------------
SCF CONVERGENCE
---------------

  Last Energy change         ...    1.1397e-09  Tolerance :   1.0000e-08
  Last MAX-Density change    ...    6.1836e-05  Tolerance :   1.0000e-07
  Last RMS-Density change    ...    8.2538e-07  Tolerance :   5.0000e-09
  Last Orbital Gradient      ...    9.3476e-07  Tolerance :   1.0000e-05
  Last Orbital Rotation      ...    1.4867e-06  Tolerance :   1.0000e-05

             **** THE GBW FILE WAS UPDATED (28Oct_SVPD_LC_PBE_D3_wb97.gbw) ****
             **** DENSITY 28Oct_SVPD_LC_PBE_D3_wb97.scfp WAS UPDATED ****
             **** ENERGY FILE WAS UPDATED (28Oct_SVPD_LC_PBE_D3_wb97.en.tmp) ****
             **** THE GBW FILE WAS UPDATED (28Oct_SVPD_LC_PBE_D3_wb97.gbw) ****
             **** DENSITY 28Oct_SVPD_LC_PBE_D3_wb97.scfp WAS UPDATED ****
----------------
ORBITAL ENERGIES
----------------

  NO   OCC          E(Eh)            E(eV) 
   0   2.0000     -24.545796      -667.9251 
   1   2.0000     -14.231129      -387.2487 
   2   2.0000     -14.203546      -386.4981 
   3   2.0000     -10.233007      -278.4543 
   4   2.0000     -10.174160      -276.8530 
   5   2.0000     -10.170795      -276.7614 
   6   2.0000     -10.152350      -276.2595 
   7   2.0000     -10.025303      -272.8024 
   8   2.0000      -1.403638       -38.1949 
   9   2.0000      -1.135724       -30.9046 
  10   2.0000      -1.045848       -28.4590 
  11   2.0000      -0.970443       -26.4071 
  12   2.0000      -0.895736       -24.3742 
  13   2.0000      -0.833240       -22.6736 
  14   2.0000      -0.778507       -21.1843 
  15   2.0000      -0.752210       -20.4687 
  16   2.0000      -0.733091       -19.9484 
  17   2.0000      -0.698202       -18.9990 
  18   2.0000      -0.668968       -18.2036 
  19   2.0000      -0.655185       -17.8285 
  20   2.0000      -0.618192       -16.8219 
  21   2.0000      -0.613451       -16.6929 
  22   2.0000      -0.583666       -15.8824 
  23   2.0000      -0.566483       -15.4148 
  24   2.0000      -0.529177       -14.3997 
  25   2.0000      -0.515753       -14.0344 
  26   2.0000      -0.504928       -13.7398 
  27   2.0000      -0.490414       -13.3449 
  28   2.0000      -0.476822       -12.9750 
  29   2.0000      -0.476289       -12.9605 
  30   2.0000      -0.378823       -10.3083 
  31   2.0000      -0.269210        -7.3256 
  32   0.0000       0.079115         2.1528 
  33   0.0000       0.103288         2.8106 
  34   0.0000       0.111139         3.0243 
  35   0.0000       0.116179         3.1614 
  36   0.0000       0.140182         3.8145 
  37   0.0000       0.144549         3.9334 
  38   0.0000       0.149567         4.0699 
  39   0.0000       0.154480         4.2036 
  40   0.0000       0.163456         4.4479 
  41   0.0000       0.176487         4.8025 
  42   0.0000       0.185744         5.0544 
  43   0.0000       0.201893         5.4938 
  44   0.0000       0.203905         5.5485 
  45   0.0000       0.220080         5.9887 
  46   0.0000       0.225820         6.1449 
  47   0.0000       0.236071         6.4238 
  48   0.0000       0.247202         6.7267 
  49   0.0000       0.247243         6.7278 
  50   0.0000       0.264103         7.1866 
  51   0.0000       0.266334         7.2473 
  52   0.0000       0.273113         7.4318 
  53   0.0000       0.284859         7.7514 
  54   0.0000       0.299926         8.1614 
  55   0.0000       0.312143         8.4938 
  56   0.0000       0.316005         8.5989 
  57   0.0000       0.327788         8.9196 
  58   0.0000       0.335029         9.1166 
  59   0.0000       0.341854         9.3023 
  60   0.0000       0.344422         9.3722 
  61   0.0000       0.351679         9.5697 
  62   0.0000       0.355606         9.6765 
  63   0.0000       0.369502        10.0547 
  64   0.0000       0.379187        10.3182 
  65   0.0000       0.384750        10.4696 
  66   0.0000       0.392513        10.6808 
  67   0.0000       0.393579        10.7098 
  68   0.0000       0.405571        11.0361 
  69   0.0000       0.406694        11.0667 
  70   0.0000       0.413467        11.2510 
  71   0.0000       0.422439        11.4952 
  72   0.0000       0.424739        11.5577 
  73   0.0000       0.433298        11.7907 
  74   0.0000       0.438788        11.9400 
  75   0.0000       0.443579        12.0704 
  76   0.0000       0.448462        12.2033 
  77   0.0000       0.460506        12.5310 
  78   0.0000       0.467340        12.7170 
  79   0.0000       0.468970        12.7613 
  80   0.0000       0.471238        12.8230 
  81   0.0000       0.482377        13.1262 
  82   0.0000       0.490592        13.3497 
  83   0.0000       0.501586        13.6488 
  84   0.0000       0.506291        13.7769 
  85   0.0000       0.512543        13.9470 
  86   0.0000       0.522852        14.2275 
  87   0.0000       0.530770        14.4430 
  88   0.0000       0.538765        14.6605 
  89   0.0000       0.543324        14.7846 
  90   0.0000       0.547798        14.9063 
  91   0.0000       0.552838        15.0435 
  92   0.0000       0.564603        15.3636 
  93   0.0000       0.569693        15.5021 
  94   0.0000       0.575741        15.6667 
  95   0.0000       0.582186        15.8421 
  96   0.0000       0.591350        16.0915 
  97   0.0000       0.592320        16.1179 
  98   0.0000       0.599235        16.3060 
  99   0.0000       0.605728        16.4827 
 100   0.0000       0.616329        16.7712 
 101   0.0000       0.623384        16.9631 
 102   0.0000       0.627281        17.0692 
 103   0.0000       0.639210        17.3938 
 104   0.0000       0.643706        17.5161 
 105   0.0000       0.653557        17.7842 
 106   0.0000       0.661160        17.9911 
 107   0.0000       0.665943        18.1212 
 108   0.0000       0.680472        18.5166 
 109   0.0000       0.686556        18.6821 
 110   0.0000       0.689444        18.7607 
 111   0.0000       0.699630        19.0379 
 112   0.0000       0.706733        19.2312 
 113   0.0000       0.728019        19.8104 
 114   0.0000       0.731420        19.9030 
 115   0.0000       0.733854        19.9692 
 116   0.0000       0.746584        20.3156 
 117   0.0000       0.753816        20.5124 
 118   0.0000       0.780266        21.2321 
 119   0.0000       0.783264        21.3137 
 120   0.0000       0.809435        22.0258 
 121   0.0000       0.828321        22.5397 
 122   0.0000       0.836328        22.7577 
 123   0.0000       0.847151        23.0522 
 124   0.0000       0.868438        23.6314 
 125   0.0000       0.874043        23.7839 
 126   0.0000       0.887282        24.1442 
 127   0.0000       0.916058        24.9272 
 128   0.0000       0.919275        25.0147 
 129   0.0000       0.925324        25.1794 
 130   0.0000       0.936278        25.4774 
 131   0.0000       0.945556        25.7299 
 132   0.0000       0.973595        26.4929 
 133   0.0000       0.993722        27.0405 
 134   0.0000       1.014548        27.6073 
 135   0.0000       1.016525        27.6611 
 136   0.0000       1.047782        28.5116 
 137   0.0000       1.064012        28.9532 
 138   0.0000       1.068698        29.0808 
 139   0.0000       1.094125        29.7727 
 140   0.0000       1.105804        30.0905 
 141   0.0000       1.136127        30.9156 
 142   0.0000       1.140000        31.0210 
 143   0.0000       1.150276        31.3006 
 144   0.0000       1.161461        31.6049 
 145   0.0000       1.169559        31.8253 
 146   0.0000       1.172245        31.8984 
 147   0.0000       1.212791        33.0017 
 148   0.0000       1.225826        33.3564 
 149   0.0000       1.254817        34.1453 
 150   0.0000       1.278128        34.7796 
 151   0.0000       1.282429        34.8967 
 152   0.0000       1.294599        35.2278 
 153   0.0000       1.308125        35.5959 
 154   0.0000       1.325495        36.0686 
 155   0.0000       1.345714        36.6188 
 156   0.0000       1.362436        37.0738 
 157   0.0000       1.382200        37.6116 
 158   0.0000       1.399459        38.0812 
 159   0.0000       1.417788        38.5800 
 160   0.0000       1.433625        39.0109 
 161   0.0000       1.462085        39.7853 
 162   0.0000       1.476227        40.1702 
 163   0.0000       1.510103        41.0920 
 164   0.0000       1.534548        41.7572 
 165   0.0000       1.551323        42.2137 
 166   0.0000       1.591310        43.3018 
 167   0.0000       1.624258        44.1983 
 168   0.0000       1.720004        46.8037 
 169   0.0000       1.728630        47.0384 
 170   0.0000       1.743792        47.4510 
 171   0.0000       1.775817        48.3224 
 172   0.0000       1.809255        49.2323 
 173   0.0000       1.812202        49.3125 
 174   0.0000       1.822121        49.5824 
 175   0.0000       1.840132        50.0725 
 176   0.0000       1.875669        51.0395 
 177   0.0000       1.885232        51.2998 
 178   0.0000       1.900650        51.7193 
 179   0.0000       1.940897        52.8145 
 180   0.0000       1.946701        52.9724 
 181   0.0000       1.973104        53.6909 
 182   0.0000       1.993200        54.2377 
 183   0.0000       1.997031        54.3420 
 184   0.0000       2.014700        54.8228 
 185   0.0000       2.027689        55.1762 
 186   0.0000       2.036580        55.4182 
 187   0.0000       2.054320        55.9009 
 188   0.0000       2.065308        56.1999 
 189   0.0000       2.077254        56.5249 
 190   0.0000       2.091644        56.9165 
 191   0.0000       2.105939        57.3055 
 192   0.0000       2.130132        57.9638 
 193   0.0000       2.145530        58.3828 
 194   0.0000       2.151735        58.5517 
 195   0.0000       2.184282        59.4373 
 196   0.0000       2.189847        59.5888 
 197   0.0000       2.195049        59.7303 
 198   0.0000       2.236289        60.8525 
 199   0.0000       2.246675        61.1351 
 200   0.0000       2.257604        61.4325 
 201   0.0000       2.278869        62.0112 
 202   0.0000       2.314465        62.9798 
 203   0.0000       2.335782        63.5599 
 204   0.0000       2.337408        63.6041 
 205   0.0000       2.361549        64.2610 
 206   0.0000       2.390790        65.0567 
 207   0.0000       2.408355        65.5347 
 208   0.0000       2.424674        65.9787 
 209   0.0000       2.441237        66.4294 
 210   0.0000       2.463559        67.0368 
 211   0.0000       2.508688        68.2649 
 212   0.0000       2.526653        68.7537 
 213   0.0000       2.550247        69.3957 
 214   0.0000       2.565839        69.8200 
 215   0.0000       2.581414        70.2438 
 216   0.0000       2.614832        71.1532 
 217   0.0000       2.634641        71.6922 
 218   0.0000       2.648330        72.0647 
 219   0.0000       2.688994        73.1713 
 220   0.0000       2.705522        73.6210 
 221   0.0000       2.751852        74.8817 
 222   0.0000       2.787568        75.8536 
 223   0.0000       2.792802        75.9960 
 224   0.0000       2.829434        76.9928 
 225   0.0000       2.850101        77.5552 
 226   0.0000       2.888207        78.5921 
 227   0.0000       2.939524        79.9885 
 228   0.0000       2.949188        80.2515 
 229   0.0000       2.991318        81.3979 
 230   0.0000       3.016553        82.0846 
 231   0.0000       3.072211        83.5991 
 232   0.0000       3.112382        84.6922 
 233   0.0000       3.158054        85.9350 
 234   0.0000       3.210293        87.3565 
 235   0.0000       3.225997        87.7838 
 236   0.0000       3.280570        89.2689 
 237   0.0000       3.320475        90.3547 
 238   0.0000       3.334318        90.7314 
 239   0.0000       3.356815        91.3436 
 240   0.0000       3.421442        93.1022 
 241   0.0000       3.427103        93.2562 
 242   0.0000       3.492240        95.0287 
 243   0.0000       3.587875        97.6310 
 244   0.0000       3.599584        97.9497 
 245   0.0000       3.635290        98.9213 
 246   0.0000       3.663082        99.6775 
 247   0.0000       3.737602       101.7053 
 248   0.0000       3.835879       104.3796 
 249   0.0000       4.034315       109.7793 
 250   0.0000       4.196125       114.1824 

                    ********************************
                    * MULLIKEN POPULATION ANALYSIS *
                    ********************************

-----------------------
MULLIKEN ATOMIC CHARGES
-----------------------
   0 C :    0.508083
   1 N :   -0.275835
   2 C :   -0.137595
   3 C :    0.525994
   4 H :   -0.199203
   5 H :    0.278929
   6 F :   -0.353523
   7 C :    0.231391
   8 N :    0.435607
   9 C :    0.240113
  10 H :   -0.219028
  11 H :   -0.230624
  12 H :   -0.240005
  13 H :   -0.444451
  14 H :   -0.071188
  15 H :    0.178991
  16 H :   -0.300257
  17 H :   -0.027437
  18 H :    0.100039
Sum of atomic charges:    0.0000000

--------------------------------
MULLIKEN REDUCED ORBITAL CHARGES
--------------------------------
  0 C s       :     2.750219  s :     2.750219
      pz      :     0.851247  p :     2.654238
      px      :     0.831283
      py      :     0.971708
      dz2     :     0.045950  d :     0.087460
      dxz     :     0.051583
      dyz     :    -0.048671
      dx2y2   :     0.042375
      dxy     :    -0.003777
  1 N s       :     3.319743  s :     3.319743
      pz      :     1.039231  p :     3.786641
      px      :     1.531788
      py      :     1.215622
      dz2     :     0.059971  d :     0.169450
      dxz     :     0.058995
      dyz     :     0.044786
      dx2y2   :     0.012082
      dxy     :    -0.006384
  2 C s       :     2.844870  s :     2.844870
      pz      :     0.990067  p :     2.987672
      px      :     0.972760
      py      :     1.024845
      dz2     :     0.091582  d :     0.305054
      dxz     :     0.037009
      dyz     :     0.023751
      dx2y2   :     0.091114
      dxy     :     0.061597
  3 C s       :     2.757890  s :     2.757890
      pz      :     1.022086  p :     2.535191
      px      :     0.961947
      py      :     0.551158
      dz2     :     0.033253  d :     0.180925
      dxz     :     0.030838
      dyz     :     0.021642
      dx2y2   :     0.039553
      dxy     :     0.055639
  4 H s       :     1.168667  s :     1.168667
      pz      :     0.011037  p :     0.030535
      px      :     0.027679
      py      :    -0.008181
  5 H s       :     0.704363  s :     0.704363
      pz      :     0.008331  p :     0.016707
      px      :    -0.013292
      py      :     0.021669
  6 F s       :     3.952109  s :     3.952109
      pz      :     1.929276  p :     5.368249
      px      :     1.942741
      py      :     1.496231
      dz2     :     0.000317  d :     0.033165
      dxz     :    -0.003973
      dyz     :     0.014843
      dx2y2   :     0.009934
      dxy     :     0.012045
  7 C s       :     2.863802  s :     2.863802
      pz      :     0.773815  p :     2.430854
      px      :     0.860289
      py      :     0.796749
      dz2     :     0.092051  d :     0.473954
      dxz     :     0.201419
      dyz     :     0.065391
      dx2y2   :     0.057361
      dxy     :     0.057732
  8 N s       :     2.882908  s :     2.882908
      pz      :     1.104141  p :     3.686930
      px      :     1.307787
      py      :     1.275002
      dz2     :    -0.003649  d :    -0.005445
      dxz     :    -0.007905
      dyz     :    -0.022250
      dx2y2   :     0.012607
      dxy     :     0.015751
  9 C s       :     2.864198  s :     2.864198
      pz      :     0.967306  p :     2.831556
      px      :     0.914051
      py      :     0.950198
      dz2     :     0.021562  d :     0.064133
      dxz     :     0.029302
      dyz     :     0.010777
      dx2y2   :     0.005514
      dxy     :    -0.003022
 10 H s       :     1.155123  s :     1.155123
      pz      :     0.001804  p :     0.063905
      px      :     0.008851
      py      :     0.053250
 11 H s       :     1.158130  s :     1.158130
      pz      :     0.015459  p :     0.072494
      px      :     0.056836
      py      :     0.000200
 12 H s       :     1.220055  s :     1.220055
      pz      :    -0.028452  p :     0.019950
      px      :     0.038340
      py      :     0.010063
 13 H s       :     1.229054  s :     1.229054
      pz      :     0.115375  p :     0.215397
      px      :     0.086556
      py      :     0.013467
 14 H s       :     1.061678  s :     1.061678
      pz      :    -0.034713  p :     0.009510
      px      :     0.019898
      py      :     0.024325
 15 H s       :     0.823121  s :     0.823121
      pz      :     0.017428  p :    -0.002112
      px      :    -0.043436
      py      :     0.023896
 16 H s       :     1.258856  s :     1.258856
      pz      :     0.023211  p :     0.041400
      px      :     0.031536
      py      :    -0.013347
 17 H s       :     0.995528  s :     0.995528
      pz      :    -0.015672  p :     0.031908
      px      :    -0.002495
      py      :     0.050075
 18 H s       :     0.896044  s :     0.896044
      pz      :     0.051045  p :     0.003917
      px      :    -0.024536
      py      :    -0.022591


                     *******************************
                     * LOEWDIN POPULATION ANALYSIS *
                     *******************************

----------------------
LOEWDIN ATOMIC CHARGES
----------------------
   0 C :    0.032173
   1 N :   -0.009746
   2 C :   -0.028027
   3 C :    0.111780
   4 H :    0.047200
   5 H :    0.063932
   6 F :   -0.171886
   7 C :   -0.240676
   8 N :    0.216969
   9 C :    0.102800
  10 H :   -0.102256
  11 H :   -0.104902
  12 H :    0.039607
  13 H :   -0.129986
  14 H :    0.027178
  15 H :    0.032467
  16 H :    0.033332
  17 H :    0.043824
  18 H :    0.036216

-------------------------------
LOEWDIN REDUCED ORBITAL CHARGES
-------------------------------
  0 C s       :     2.657334  s :     2.657334
      pz      :     0.809234  p :     2.630708
      px      :     0.902000
      py      :     0.919475
      dz2     :     0.150529  d :     0.679785
      dxz     :     0.205813
      dyz     :     0.105212
      dx2y2   :     0.137270
      dxy     :     0.080960
  1 N s       :     2.890642  s :     2.890642
      pz      :     1.049800  p :     3.524596
      px      :     1.322177
      py      :     1.152618
      dz2     :     0.204650  d :     0.594508
      dxz     :     0.144208
      dyz     :     0.151160
      dx2y2   :     0.046544
      dxy     :     0.047946
  2 C s       :     2.694417  s :     2.694417
      pz      :     0.916700  p :     2.736006
      px      :     0.892081
      py      :     0.927226
      dz2     :     0.152207  d :     0.597603
      dxz     :     0.122721
      dyz     :     0.045345
      dx2y2   :     0.182779
      dxy     :     0.094552
  3 C s       :     2.662728  s :     2.662728
      pz      :     0.927000  p :     2.519638
      px      :     0.922156
      py      :     0.670482
      dz2     :     0.106888  d :     0.705854
      dxz     :     0.107139
      dyz     :     0.160940
      dx2y2   :     0.174074
      dxy     :     0.156813
  4 H s       :     0.725085  s :     0.725085
      pz      :     0.085504  p :     0.227715
      px      :     0.098444
      py      :     0.043766
  5 H s       :     0.702297  s :     0.702297
      pz      :     0.110789  p :     0.233770
      px      :     0.067480
      py      :     0.055501
  6 F s       :     3.584931  s :     3.584931
      pz      :     1.844660  p :     5.285090
      px      :     1.863048
      py      :     1.577383
      dz2     :     0.035064  d :     0.301864
      dxz     :     0.042915
      dyz     :     0.081414
      dx2y2   :     0.066152
      dxy     :     0.076320
  7 C s       :     2.629140  s :     2.629140
      pz      :     0.924680  p :     2.499615
      px      :     0.771162
      py      :     0.803773
      dz2     :     0.230227  d :     1.111920
      dxz     :     0.255883
      dyz     :     0.267475
      dx2y2   :     0.212053
      dxy     :     0.146282
  8 N s       :     2.891923  s :     2.891923
      pz      :     1.096338  p :     3.527431
      px      :     1.210578
      py      :     1.220514
      dz2     :     0.047881  d :     0.363677
      dxz     :     0.086866
      dyz     :     0.078543
      dx2y2   :     0.082481
      dxy     :     0.067906
  9 C s       :     2.738260  s :     2.738260
      pz      :     0.920195  p :     2.850286
      px      :     0.966571
      py      :     0.963520
      dz2     :     0.099031  d :     0.308655
      dxz     :     0.087196
      dyz     :     0.056912
      dx2y2   :     0.019300
      dxy     :     0.046215
 10 H s       :     0.765657  s :     0.765657
      pz      :     0.079117  p :     0.336599
      px      :     0.120162
      py      :     0.137320
 11 H s       :     0.765620  s :     0.765620
      pz      :     0.104810  p :     0.339282
      px      :     0.120644
      py      :     0.113828
 12 H s       :     0.638670  s :     0.638670
      pz      :     0.081503  p :     0.321723
      px      :     0.107356
      py      :     0.132864
 13 H s       :     0.580367  s :     0.580367
      pz      :     0.244467  p :     0.549620
      px      :     0.191203
      py      :     0.113949
 14 H s       :     0.645102  s :     0.645102
      pz      :     0.130105  p :     0.327720
      px      :     0.090386
      py      :     0.107229
 15 H s       :     0.699849  s :     0.699849
      pz      :     0.066462  p :     0.267685
      px      :     0.080714
      py      :     0.120509
 16 H s       :     0.729910  s :     0.729910
      pz      :     0.071322  p :     0.236757
      px      :     0.098098
      py      :     0.067338
 17 H s       :     0.718589  s :     0.718589
      pz      :     0.064368  p :     0.237587
      px      :     0.054881
      py      :     0.118338
 18 H s       :     0.716968  s :     0.716968
      pz      :     0.113042  p :     0.246816
      px      :     0.059780
      py      :     0.073994


                      *****************************
                      * MAYER POPULATION ANALYSIS *
                      *****************************

  NA   - Mulliken gross atomic population
  ZA   - Total nuclear charge
  QA   - Mulliken gross atomic charge
  VA   - Mayer's total valence
  BVA  - Mayer's bonded valence
  FA   - Mayer's free valence

  ATOM       NA         ZA         QA         VA         BVA        FA
  0 C      5.4919     6.0000     0.5081     3.9112     3.9112    -0.0000
  1 N      7.2758     7.0000    -0.2758     4.0420     4.0420     0.0000
  2 C      6.1376     6.0000    -0.1376     4.5564     4.5564     0.0000
  3 C      5.4740     6.0000     0.5260     3.9380     3.9380    -0.0000
  4 H      1.1992     1.0000    -0.1992     1.1101     1.1101    -0.0000
  5 H      0.7211     1.0000     0.2789     0.8858     0.8858    -0.0000
  6 F      9.3535     9.0000    -0.3535     0.8064     0.8064     0.0000
  7 C      5.7686     6.0000     0.2314     4.1939     4.1939     0.0000
  8 N      6.5644     7.0000     0.4356     3.5739     3.5739     0.0000
  9 C      5.7599     6.0000     0.2401     3.8086     3.8086     0.0000
 10 H      1.2190     1.0000    -0.2190     1.1674     1.1674     0.0000
 11 H      1.2306     1.0000    -0.2306     1.1919     1.1919     0.0000
 12 H      1.2400     1.0000    -0.2400     0.8686     0.8686     0.0000
 13 H      1.4445     1.0000    -0.4445     1.2275     1.2275     0.0000
 14 H      1.0712     1.0000    -0.0712     0.8229     0.8229     0.0000
 15 H      0.8210     1.0000     0.1790     0.9150     0.9150    -0.0000
 16 H      1.3003     1.0000    -0.3003     1.0507     1.0507    -0.0000
 17 H      1.0274     1.0000    -0.0274     1.0945     1.0945     0.0000
 18 H      0.9000     1.0000     0.1000     1.0254     1.0254     0.0000

  Mayer bond orders larger than 0.100000
B(  0-C ,  1-N ) :   0.9930 B(  0-C ,  2-C ) :   1.1253 B(  0-C , 12-H ) :  -0.1974 
B(  0-C , 15-H ) :   0.7504 B(  0-C , 16-H ) :   1.0083 B(  0-C , 17-H ) :   0.1136 
B(  1-N ,  7-C ) :   1.1243 B(  1-N ,  8-N ) :   0.1029 B(  1-N ,  9-C ) :   0.1991 
B(  1-N , 12-H ) :   1.2225 B(  1-N , 15-H ) :   0.1564 B(  1-N , 16-H ) :   0.1160 
B(  2-C ,  3-C ) :   1.2079 B(  2-C ,  4-H ) :   0.1161 B(  2-C , 17-H ) :   0.9565 
B(  2-C , 18-H ) :   0.9001 B(  3-C ,  4-H ) :   1.0447 B(  3-C ,  5-H ) :   0.7984 
B(  3-C ,  6-F ) :   0.6833 B(  6-F , 13-H ) :   0.1215 B(  7-C ,  8-N ) :   1.0947 
B(  7-C ,  9-C ) :   1.8223 B(  7-C , 10-H ) :   0.1609 B(  7-C , 11-H ) :   0.1513 
B(  7-C , 12-H ) :  -0.1508 B(  8-N ,  9-C ) :   0.1095 B(  8-N , 13-H ) :   1.1319 
B(  8-N , 14-H ) :   1.1307 B(  9-C , 10-H ) :   0.7860 B(  9-C , 11-H ) :   0.8569 
B( 10-H , 11-H ) :   0.1771 B( 13-H , 14-H ) :  -0.1857 B( 15-H , 16-H ) :  -0.1220 


-------
TIMINGS
-------

Total SCF time: 0 days 0 hours 0 min 55 sec 

Total time                  ....      55.462 sec
Sum of individual times     ....      55.222 sec  ( 99.6%)

Fock matrix formation       ....      53.201 sec  ( 95.9%)
  Split-RI-J                ....       2.699 sec  (  5.1% of F)
  Chain of spheres X        ....      42.708 sec  ( 80.3% of F)
  XC integration            ....       7.715 sec  ( 14.5% of F)
    Basis function eval.    ....       2.319 sec  ( 30.1% of XC)
    Density eval.           ....       2.096 sec  ( 27.2% of XC)
    XC-Functional eval.     ....       0.493 sec  (  6.4% of XC)
    XC-Potential eval.      ....       2.435 sec  ( 31.6% of XC)
Diagonalization             ....       0.120 sec  (  0.2%)
Density matrix formation    ....       0.009 sec  (  0.0%)
Population analysis         ....       0.016 sec  (  0.0%)
Initial guess               ....       0.299 sec  (  0.5%)
Orbital Transformation      ....       0.000 sec  (  0.0%)
Orbital Orthonormalization  ....       0.000 sec  (  0.0%)
DIIS solution               ....       0.065 sec  (  0.1%)
SOSCF solution              ....       0.094 sec  (  0.2%)
Grid generation             ....       1.417 sec  (  2.6%)

Maximum memory used throughout the entire SCF-calculation: 34.4 MB

-------------------------   --------------------
FINAL SINGLE POINT ENERGY      -404.947988909631
-------------------------   --------------------


                            ***************************************
                            *     ORCA property calculations      *
                            ***************************************

                                    ---------------------
                                    Active property flags
                                    ---------------------
   (+) Dipole Moment


------------------------------------------------------------------------------
                       ORCA ELECTRIC PROPERTIES CALCULATION
------------------------------------------------------------------------------

Dipole Moment Calculation                       ... on
Quadrupole Moment Calculation                   ... off
Polarizability Calculation                      ... off
GBWName                                         ... 28Oct_SVPD_LC_PBE_D3_wb97.gbw
Electron density file                           ... 28Oct_SVPD_LC_PBE_D3_wb97.scfp
The origin for moment calculation is the CENTER OF MASS  = ( 7.645335, -2.690567 -8.920857)

-------------
DIPOLE MOMENT
-------------
                                X             Y             Z
Electronic contribution:     -3.49955       3.80728      -1.54470
Nuclear contribution   :      2.63642      -4.47741       0.00296
                        -----------------------------------------
Total Dipole Moment    :     -0.86313      -0.67013      -1.54175
                        -----------------------------------------
Magnitude (a.u.)       :      1.88972
Magnitude (Debye)      :      4.80329



--------------------
Rotational spectrum 
--------------------
 
Rotational constants in cm-1:     0.108041     0.051979     0.040387 
Rotational constants in MHz :  3238.993235  1558.297571  1210.782552 

 Dipole components along the rotational axes: 
x,y,z [a.u.] :    -1.763541     0.483480    -0.476677 
x,y,z [Debye]:    -4.482565     1.228909    -1.211617 

 

Timings for individual modules:

Sum of individual times         ...       56.359 sec (=   0.939 min)
GTO integral calculation        ...        0.560 sec (=   0.009 min)   1.0 %
SCF iterations                  ...       55.799 sec (=   0.930 min)  99.0 %
                             ****ORCA TERMINATED NORMALLY****
TOTAL RUN TIME: 0 days 0 hours 0 minutes 56 seconds 871 msec
