
                                        *****************
                                        * O   R   C   A *
                                        *****************

                                            #,                                       
                                            ###                                      
                                            ####                                     
                                            #####                                    
                                            ######                                   
                                           ########,                                 
                                     ,,################,,,,,                         
                               ,,#################################,,                 
                          ,,##########################################,,             
                       ,#########################################, ''#####,          
                    ,#############################################,,   '####,        
                  ,##################################################,,,,####,       
                ,###########''''           ''''###############################       
              ,#####''   ,,,,##########,,,,          '''####'''          '####       
            ,##' ,,,,###########################,,,                        '##       
           ' ,,###''''                  '''############,,,                           
         ,,##''                                '''############,,,,        ,,,,,,###''
      ,#''                                            '''#######################'''  
     '                                                          ''''####''''         
             ,#######,   #######,   ,#######,      ##                                
            ,#'     '#,  ##    ##  ,#'     '#,    #''#        ######   ,####,        
            ##       ##  ##   ,#'  ##            #'  '#       #        #'  '#        
            ##       ##  #######   ##           ,######,      #####,   #    #        
            '#,     ,#'  ##    ##  '#,     ,#' ,#      #,         ##   #,  ,#        
             '#######'   ##     ##  '#######'  #'      '#     #####' # '####'        



                  #######################################################
                  #                        -***-                        #
                  #          Department of theory and spectroscopy      #
                  #    Directorship and core code : Frank Neese         #
                  #        Max Planck Institute fuer Kohlenforschung    #
                  #                Kaiser Wilhelm Platz 1               #
                  #                 D-45470 Muelheim/Ruhr               #
                  #                      Germany                        #
                  #                                                     #
                  #                  All rights reserved                #
                  #                        -***-                        #
                  #######################################################


                         Program Version 5.0.0 -  RELEASE  -
                                (SVN: $Rev: 19529$)
                ($Date: 2021-06-28 11:36:33 +0200 (Mo, 28 Jun 2021) $)


 With contributions from (in alphabetic order):
   Daniel Aravena         : Magnetic Suceptibility
   Michael Atanasov       : Ab Initio Ligand Field Theory (pilot matlab implementation)
   Alexander A. Auer      : GIAO ZORA, VPT2 properties, NMR spectrum
   Ute Becker             : Parallelization
   Giovanni Bistoni       : ED, misc. LED, open-shell LED, HFLD
   Martin Brehm           : Molecular dynamics
   Dmytro Bykov           : SCF Hessian
   Vijay G. Chilkuri      : MRCI spin determinant printing, contributions to CSF-ICE
   Dipayan Datta          : RHF DLPNO-CCSD density
   Achintya Kumar Dutta   : EOM-CC, STEOM-CC
   Dmitry Ganyushin       : Spin-Orbit,Spin-Spin,Magnetic field MRCI
   Miquel Garcia          : C-PCM Hessian, Gaussian charge scheme
   Yang Guo               : DLPNO-NEVPT2, F12-NEVPT2, CIM, IAO-localization
   Andreas Hansen         : Spin unrestricted coupled pair/coupled cluster methods
   Benjamin Helmich-Paris : MC-RPA, TRAH-SCF, COSX integrals
   Lee Huntington         : MR-EOM, pCC
   Robert Izsak           : Overlap fitted RIJCOSX, COSX-SCS-MP3, EOM
   Marcus Kettner         : VPT2
   Christian Kollmar      : KDIIS, OOCD, Brueckner-CCSD(T), CCSD density, CASPT2, CASPT2-K
   Simone Kossmann        : Meta GGA functionals, TD-DFT gradient, OOMP2, MP2 Hessian
   Martin Krupicka        : Initial AUTO-CI
   Lucas Lang             : DCDCAS
   Marvin Lechner         : AUTO-CI (C++ implementation), FIC-MRCC
   Dagmar Lenk            : GEPOL surface, SMD
   Dimitrios Liakos       : Extrapolation schemes; Compound Job, initial MDCI parallelization
   Dimitrios Manganas     : Further ROCIS development; embedding schemes
   Dimitrios Pantazis     : SARC Basis sets
   Anastasios Papadopoulos: AUTO-CI, single reference methods and gradients
   Taras Petrenko         : DFT Hessian,TD-DFT gradient, ASA, ECA, R-Raman, ABS, FL, XAS/XES, NRVS
   Peter Pinski           : DLPNO-MP2, DLPNO-MP2 Gradient
   Christoph Reimann      : Effective Core Potentials
   Marius Retegan         : Local ZFS, SOC
   Christoph Riplinger    : Optimizer, TS searches, QM/MM, DLPNO-CCSD(T), (RO)-DLPNO pert. Triples
   Tobias Risthaus        : Range-separated hybrids, TD-DFT gradient, RPA, STAB
   Michael Roemelt        : Original ROCIS implementation
   Masaaki Saitow         : Open-shell DLPNO-CCSD energy and density
   Barbara Sandhoefer     : DKH picture change effects
   Avijit Sen             : IP-ROCIS
   Kantharuban Sivalingam : CASSCF convergence, NEVPT2, FIC-MRCI
   Bernardo de Souza      : ESD, SOC TD-DFT
   Georgi Stoychev        : AutoAux, RI-MP2 NMR
   Willem Van den Heuvel  : Paramagnetic NMR
   Boris Wezisla          : Elementary symmetry handling
   Frank Wennmohs         : Technical directorship


 We gratefully acknowledge several colleagues who have allowed us to
 interface, adapt or use parts of their codes:
   Stefan Grimme, W. Hujo, H. Kruse, P. Pracht,  : VdW corrections, initial TS optimization,
                  C. Bannwarth, S. Ehlert          DFT functionals, gCP, sTDA/sTD-DF
   Ed Valeev, F. Pavosevic, A. Kumar             : LibInt (2-el integral package), F12 methods
   Garnet Chan, S. Sharma, J. Yang, R. Olivares  : DMRG
   Ulf Ekstrom                                   : XCFun DFT Library
   Mihaly Kallay                                 : mrcc  (arbitrary order and MRCC methods)
   Jiri Pittner, Ondrej Demel                    : Mk-CCSD
   Frank Weinhold                                : gennbo (NPA and NBO analysis)
   Christopher J. Cramer and Donald G. Truhlar   : smd solvation model
   Lars Goerigk                                  : TD-DFT with DH, B97 family of functionals
   V. Asgeirsson, H. Jonsson                     : NEB implementation
   FAccTs GmbH                                   : IRC, NEB, NEB-TS, DLPNO-Multilevel, CI-OPT
                                                   MM, QMMM, 2- and 3-layer-ONIOM, Crystal-QMMM,
                                                   LR-CPCM, SF, NACMEs, symmetry and pop. for TD-DFT,
                                                   nearIR, NL-DFT gradient (VV10), updates on ESD,
                                                   ML-optimized integration grids
   S Lehtola, MJT Oliveira, MAL Marques          : LibXC Library
   Liviu Ungur et al                             : ANISO software


 Your calculation uses the libint2 library for the computation of 2-el integrals
 For citations please refer to: http://libint.valeyev.net

 Your ORCA version has been built with support for libXC version: 5.1.0
 For citations please refer to: https://tddft.org/programs/libxc/

 This ORCA versions uses:
   CBLAS   interface :  Fast vector & matrix operations
   LAPACKE interface :  Fast linear algebra routines
   SCALAPACK package :  Parallel linear algebra routines
   Shared memory     :  Shared parallel matrices
   BLAS/LAPACK       :  OpenBLAS 0.3.15  USE64BITINT DYNAMIC_ARCH NO_AFFINITY Haswell SINGLE_THREADED
        Core in use  :  Haswell
   Copyright (c) 2011-2014, The OpenBLAS Project


Your calculation utilizes the atom-pairwise dispersion correction
with the Becke-Johnson damping scheme (D3BJ)
Cite in your paper:
S.Grimme, S.Ehrlich, L.Goerigk, J Comput Chem, (2011), 32, 1456–1465 
S.Grimme, J.Antony, S.Ehrlich and H.Krieg, J.Chem.Phys., 132, (2010), 154104 
   

================================================================================

----- Orbital basis set information -----
Your calculation utilizes the basis: def2-SVPD
   F. Weigend and R. Ahlrichs, Phys. Chem. Chem. Phys. 7, 3297 (2005).
   D. Rappoport and F. Furche, J. Chem. Phys. 133 134105 (2010).

----- AuxJ basis set information -----
Your calculation utilizes the auxiliary basis: def2/J
   F. Weigend, Phys. Chem. Chem. Phys. 8, 1057 (2006).

================================================================================
                                        WARNINGS
                       Please study these warnings very carefully!
================================================================================



WARNING: Found flag for RIJCOSX approximation but no HF exchange needed!
  ===> : RIJCOSX  will be disabled and Split-RI-J is turned on

INFO   : the flag for use of the SHARK integral package has been found!

================================================================================
                                       INPUT FILE
================================================================================
NAME = 18Feb_SVPD_BLYP_C1_wt_wb97_typm1_neg.com
|  1> !BLYP D3BJ RIJCOSX def2-SVPD def2/J TightSCF  
|  2> *xyz 0 1 
|  3> C         -0.60249       -0.63071        0.49224
|  4> F         -1.71206       -1.37684        0.20253
|  5> H          0.27695       -1.19720        0.26733
|  6> H         -0.60598       -0.37494        1.53122
|  7> H         -0.61066        0.26355       -0.09525
|  8> *
|  9> %MaxCore 64000
| 10> 
| 11> %pal nprocs 4 
| 12> end  
| 13> %scf
| 14>   MaxIter 150
| 15> end
| 16> 
| 17>                          ****END OF INPUT****
================================================================================

                       ****************************
                       * Single Point Calculation *
                       ****************************

---------------------------------
CARTESIAN COORDINATES (ANGSTROEM)
---------------------------------
  C     -0.602490   -0.630710    0.492240
  F     -1.712060   -1.376840    0.202530
  H      0.276950   -1.197200    0.267330
  H     -0.605980   -0.374940    1.531220
  H     -0.610660    0.263550   -0.095250

----------------------------
CARTESIAN COORDINATES (A.U.)
----------------------------
  NO LB      ZA    FRAG     MASS         X           Y           Z
   0 C     6.0000    0    12.011   -1.138541   -1.191869    0.930199
   1 F     9.0000    0    18.998   -3.235325   -2.601851    0.382726
   2 H     1.0000    0     1.008    0.523360   -2.262380    0.505180
   3 H     1.0000    0     1.008   -1.145136   -0.708534    2.893586
   4 H     1.0000    0     1.008   -1.153980    0.498037   -0.179996

--------------------------------
INTERNAL COORDINATES (ANGSTROEM)
--------------------------------
 C      0   0   0     0.000000000000     0.00000000     0.00000000
 F      1   0   0     1.368132831965     0.00000000     0.00000000
 H      1   2   0     1.070004739148   109.47108958     0.00000000
 H      1   2   3     1.070004632420   109.47116572   240.00006780
 H      1   2   3     1.070005699331   109.47110951   120.00017283

---------------------------
INTERNAL COORDINATES (A.U.)
---------------------------
 C      0   0   0     0.000000000000     0.00000000     0.00000000
 F      1   0   0     2.585396367240     0.00000000     0.00000000
 H      1   2   0     2.022015918988   109.47108958     0.00000000
 H      1   2   3     2.022015717301   109.47116572   240.00006780
 H      1   2   3     2.022017733470   109.47110951   120.00017283

---------------------
BASIS SET INFORMATION
---------------------
There are 3 groups of distinct atoms

 Group   1 Type C   : 8s4p2d contracted to 4s2p2d pattern {5111/31/11}
 Group   2 Type F   : 8s5p2d contracted to 4s3p2d pattern {5111/311/11}
 Group   3 Type H   : 4s2p contracted to 2s2p pattern {31/11}

Atom   0C    basis set group =>   1
Atom   1F    basis set group =>   2
Atom   2H    basis set group =>   3
Atom   3H    basis set group =>   3
Atom   4H    basis set group =>   3
---------------------------------
AUXILIARY/J BASIS SET INFORMATION
---------------------------------
There are 3 groups of distinct atoms

 Group   1 Type C   : 12s5p4d2f1g contracted to 6s4p3d1f1g pattern {711111/2111/211/2/1}
 Group   2 Type F   : 12s5p4d2f1g contracted to 6s4p3d1f1g pattern {711111/2111/211/2/1}
 Group   3 Type H   : 5s2p1d contracted to 3s1p1d pattern {311/2/1}

Atom   0C    basis set group =>   1
Atom   1F    basis set group =>   2
Atom   2H    basis set group =>   3
Atom   3H    basis set group =>   3
Atom   4H    basis set group =>   3


           ************************************************************
           *        Program running with 4 parallel MPI-processes     *
           *              working on a common directory               *
           ************************************************************
------------------------------------------------------------------------------
                           ORCA GTO INTEGRAL CALCULATION
                           -- RI-GTO INTEGRALS CHOSEN --
------------------------------------------------------------------------------
------------------------------------------------------------------------------
                   ___                                                        
                  /   \      - P O W E R E D   B Y -                         
                 /     \                                                     
                 |  |  |   _    _      __       _____    __    __             
                 |  |  |  | |  | |    /  \     |  _  \  |  |  /  |          
                  \  \/   | |  | |   /    \    | | | |  |  | /  /          
                 / \  \   | |__| |  /  /\  \   | |_| |  |  |/  /          
                |  |  |   |  __  | /  /__\  \  |    /   |      \           
                |  |  |   | |  | | |   __   |  |    \   |  |\   \          
                \     /   | |  | | |  |  |  |  | |\  \  |  | \   \       
                 \___/    |_|  |_| |__|  |__|  |_| \__\ |__|  \__/        
                                                                              
                      - O R C A' S   B I G   F R I E N D -                    
                                      &                                       
                       - I N T E G R A L  F E E D E R -                       
                                                                              
 v1 FN, 2020, v2 2021                                                         
------------------------------------------------------------------------------


Reading SHARK input file 18Feb_SVPD_BLYP_C1_wt_wb97_typm1_neg.SHARKINP.tmp ... ok
----------------------
SHARK INTEGRAL PACKAGE
----------------------

Number of atoms                             ...      5
Number of basis functions                   ...     67
Number of shells                            ...     29
Maximum angular momentum                    ...      2
Integral batch strategy                     ... SHARK/LIBINT Hybrid
RI-J (if used) integral strategy            ... SPLIT-RIJ (Revised 2003 algorithm where possible)
Printlevel                                  ...      1
Contraction scheme used                     ... SEGMENTED contraction
Coulomb Range Separation                    ... NOT USED
Exchange Range Separation                   ... NOT USED
Finite Nucleus Model                        ... NOT USED
Auxiliary Coulomb fitting basis             ... AVAILABLE
   # of basis functions in Aux-J            ...    131
   # of shells in Aux-J                     ...     45
   Maximum angular momentum in Aux-J        ...      4
Auxiliary J/K fitting basis                 ... NOT available
Auxiliary Correlation fitting basis         ... NOT available
Auxiliary 'external' fitting basis          ... NOT available
Integral threshold                          ...     2.500000e-11
Primitive cut-off                           ...     2.500000e-12
Primitive pair pre-selection threshold      ...     2.500000e-12

Calculating pre-screening integrals         ... done (  0.0 sec) Dimension = 29
Organizing shell pair data                  ... done (  0.0 sec)
Shell pair information
Total number of shell pairs                 ...       435
Shell pairs after pre-screening             ...       435
Total number of primitive shell pairs       ...      1163
Primitive shell pairs kept                  ...      1098
          la=0 lb=0:    105 shell pairs
          la=1 lb=0:    154 shell pairs
          la=1 lb=1:     66 shell pairs
          la=2 lb=0:     56 shell pairs
          la=2 lb=1:     44 shell pairs
          la=2 lb=2:     10 shell pairs

Calculating one electron integrals          ... done (  0.0 sec)
Calculating RI/J V-Matrix + Cholesky decomp.... done (  0.0 sec)
Calculating Nuclear repulsion               ... done (  0.0 sec) ENN=     37.847587394999 Eh

SHARK setup successfully completed in   0.1 seconds

Maximum memory used throughout the entire GTOINT-calculation: 8.7 MB


           ************************************************************
           *        Program running with 4 parallel MPI-processes     *
           *              working on a common directory               *
           ************************************************************
-------------------------------------------------------------------------------
                                 ORCA SCF
-------------------------------------------------------------------------------

------------
SCF SETTINGS
------------
Hamiltonian:
 Density Functional     Method          .... DFT(GTOs)
 Exchange Functional    Exchange        .... B88
   X-Alpha parameter    XAlpha          ....  0.666667
   Becke's b parameter  XBeta           ....  0.004200
 Correlation Functional Correlation     .... LYP
 Gradients option       PostSCFGGA      .... off
   Density functional embedding theory  .... OFF
   NL short-range parameter             ....  4.000000
 RI-approximation to the Coulomb term is turned on
   Number of AuxJ basis functions       .... 131


General Settings:
 Integral files         IntName         .... 18Feb_SVPD_BLYP_C1_wt_wb97_typm1_neg
 Hartree-Fock type      HFTyp           .... RHF
 Total Charge           Charge          ....    0
 Multiplicity           Mult            ....    1
 Number of Electrons    NEL             ....   18
 Basis Dimension        Dim             ....   67
 Nuclear Repulsion      ENuc            ....     37.8475873950 Eh

Convergence Acceleration:
 DIIS                   CNVDIIS         .... on
   Start iteration      DIISMaxIt       ....    12
   Startup error        DIISStart       ....  0.200000
   # of expansion vecs  DIISMaxEq       ....     5
   Bias factor          DIISBfac        ....   1.050
   Max. coefficient     DIISMaxC        ....  10.000
 Trust-Rad. Augm. Hess. CNVTRAH         .... auto
   Auto Start mean grad. ratio tolernc. ....  1.125000
   Auto Start start iteration           ....    20
   Auto Start num. interpolation iter.  ....    10
   Max. Number of Micro iterations      ....    16
   Max. Number of Macro iterations      .... Maxiter - #DIIS iter
   Number of Davidson start vectors     ....     2
   Converg. threshold I  (grad. norm)   ....   1.000e-05
   Converg. threshold II (energy diff.) ....   1.000e-08
   Grad. Scal. Fac. for Micro threshold ....   0.100
   Minimum threshold for Micro iter.    ....   0.010
   NR start threshold (gradient norm)   ....   0.001
   Initial trust radius                 ....   0.400
   Minimum AH scaling param. (alpha)    ....   1.000
   Maximum AH scaling param. (alpha)    .... 1000.000
   Orbital update algorithm             .... Taylor
   White noise on init. David. guess    .... on
   Maximum white noise                  ....   0.010
   Quad. conv. algorithm                .... NR
 SOSCF                  CNVSOSCF        .... on
   Start iteration      SOSCFMaxIt      ....   150
   Startup grad/error   SOSCFStart      ....  0.003300
 Level Shifting         CNVShift        .... on
   Level shift para.    LevelShift      ....    0.2500
   Turn off err/grad.   ShiftErr        ....    0.0010
 Zerner damping         CNVZerner       .... off
 Static damping         CNVDamp         .... on
   Fraction old density DampFac         ....    0.7000
   Max. Damping (<1)    DampMax         ....    0.9800
   Min. Damping (>=0)   DampMin         ....    0.0000
   Turn off err/grad.   DampErr         ....    0.1000
 Fernandez-Rico         CNVRico         .... off

SCF Procedure:
 Maximum # iterations   MaxIter         ....   150
 SCF integral mode      SCFMode         .... Direct
   Integral package                     .... SHARK and LIBINT hybrid scheme
 Reset frequency        DirectResetFreq ....    20
 Integral Threshold     Thresh          ....  2.500e-11 Eh
 Primitive CutOff       TCut            ....  2.500e-12 Eh

Convergence Tolerance:
 Convergence Check Mode ConvCheckMode   .... Total+1el-Energy
 Convergence forced     ConvForced      .... 0
 Energy Change          TolE            ....  1.000e-08 Eh
 1-El. energy change                    ....  1.000e-05 Eh
 Orbital Gradient       TolG            ....  1.000e-05
 Orbital Rotation angle TolX            ....  1.000e-05
 DIIS Error             TolErr          ....  5.000e-07


Diagonalization of the overlap matrix:
Smallest eigenvalue                        ... 6.048e-04
Time for diagonalization                   ...    0.002 sec
Threshold for overlap eigenvalues          ... 1.000e-08
Number of eigenvalues below threshold      ... 0
Time for construction of square roots      ...    0.002 sec
Total time needed                          ...    0.004 sec

Time for model grid setup =    0.025 sec

------------------------------
INITIAL GUESS: MODEL POTENTIAL
------------------------------
Loading Hartree-Fock densities                     ... done
Calculating cut-offs                               ... done
Initializing the effective Hamiltonian             ... done
Setting up the integral package (SHARK)            ... done
Starting the Coulomb interaction                   ... done (   0.0 sec)
Reading the grid                                   ... done
Mapping shells                                     ... done
Starting the XC term evaluation                    ... done (   0.0 sec)
  promolecular density results
     # of electrons  =     17.998474549
     EX              =    -16.075516152
     EC              =     -0.614123741
     EX+EC           =    -16.689639893
Transforming the Hamiltonian                       ... done (   0.0 sec)
Diagonalizing the Hamiltonian                      ... done (   0.0 sec)
Back transforming the eigenvectors                 ... done (   0.0 sec)
Now organizing SCF variables                       ... done
                      ------------------
                      INITIAL GUESS DONE (   0.0 sec)
                      ------------------
-------------------
DFT GRID GENERATION
-------------------

General Integration Accuracy     IntAcc      ... 4.388
Radial Grid Type                 RadialGrid  ... OptM3 with GC (2021)
Angular Grid (max. ang.)         AngularGrid ... 4 (Lebedev-302)
Angular grid pruning method      GridPruning ... 4 (adaptive)
Weight generation scheme         WeightScheme... Becke
Basis function cutoff            BFCut       ... 1.0000e-11
Integration weight cutoff        WCut        ... 1.0000e-14
Angular grids for H and He will be reduced by one unit
Partially contracted basis set               ... off
Rotationally invariant grid construction     ... off

Total number of grid points                  ...    23056
Total number of batches                      ...      362
Average number of points per batch           ...       63
Average number of grid points per atom       ...     4611
Time for grid setup =    0.127 sec

--------------
SCF ITERATIONS
--------------
ITER       Energy         Delta-E        Max-DP      RMS-DP      [F,P]     Damp
               ***  Starting incremental Fock matrix formation  ***
  0   -139.5785406853   0.000000000000 0.05104637  0.00219169  0.1035669 0.7000
  1   -139.5922732436  -0.013732558317 0.02945262  0.00135126  0.0502568 0.7000
                               ***Turning on DIIS***
  2   -139.5977751115  -0.005501867878 0.03525664  0.00205102  0.0185325 0.0000
  3   -139.6061022669  -0.008327155376 0.02730141  0.00107521  0.0302734 0.0000
  4   -139.6081612127  -0.002058945862 0.00596975  0.00032808  0.0043494 0.0000
  5   -139.6082386062  -0.000077393506 0.00183473  0.00010386  0.0037372 0.0000
                      *** Initiating the SOSCF procedure ***
                           *** Shutting down DIIS ***
                      *** Re-Reading the Fockian *** 
                      *** Removing any level shift *** 
ITER      Energy       Delta-E        Grad      Rot      Max-DP    RMS-DP
  6   -139.60825372  -0.0000151117  0.000141  0.000141  0.000632  0.000051
               *** Restarting incremental Fock matrix formation ***
  7   -139.60825455  -0.0000008322  0.000041  0.000080  0.000221  0.000010
  8   -139.60825453   0.0000000211  0.000062  0.000041  0.000149  0.000005
  9   -139.60825458  -0.0000000470  0.000007  0.000012  0.000027  0.000001
 10   -139.60825457   0.0000000012  0.000012  0.000007  0.000018  0.000001
                 **** Energy Check signals convergence ****
              ***Rediagonalizing the Fockian in SOSCF/NRSCF***

               *****************************************************
               *                     SUCCESS                       *
               *           SCF CONVERGED AFTER  11 CYCLES          *
               *****************************************************


----------------
TOTAL SCF ENERGY
----------------

Total Energy       :         -139.60825458 Eh           -3798.93374 eV

Components:
Nuclear Repulsion  :           37.84758739 Eh            1029.88521 eV
Electronic Energy  :         -177.45584197 Eh           -4828.81895 eV
One Electron Energy:         -266.95395899 Eh           -7264.18653 eV
Two Electron Energy:           89.49811702 Eh            2435.36758 eV

Virial components:
Potential Energy   :         -278.22313199 Eh           -7570.83632 eV
Kinetic Energy     :          138.61487741 Eh            3771.90257 eV
Virial Ratio       :            2.00716645


DFT components:
N(Alpha)           :        9.000035589447 electrons
N(Beta)            :        9.000035589447 electrons
N(Total)           :       18.000071178895 electrons
E(X)               :      -16.333581889346 Eh       
E(C)               :       -0.617584750736 Eh       
E(XC)              :      -16.951166640082 Eh       
DFET-embed. en.    :        0.000000000000 Eh       

---------------
SCF CONVERGENCE
---------------

  Last Energy change         ...   -1.6516e-09  Tolerance :   1.0000e-08
  Last MAX-Density change    ...    2.2058e-06  Tolerance :   1.0000e-07
  Last RMS-Density change    ...    1.1442e-07  Tolerance :   5.0000e-09
  Last Orbital Gradient      ...    5.3833e-07  Tolerance :   1.0000e-05
  Last Orbital Rotation      ...    6.3273e-07  Tolerance :   1.0000e-05

             **** THE GBW FILE WAS UPDATED (18Feb_SVPD_BLYP_C1_wt_wb97_typm1_neg.gbw) ****
             **** DENSITY 18Feb_SVPD_BLYP_C1_wt_wb97_typm1_neg.scfp WAS UPDATED ****
             **** ENERGY FILE WAS UPDATED (18Feb_SVPD_BLYP_C1_wt_wb97_typm1_neg.en.tmp) ****
             **** THE GBW FILE WAS UPDATED (18Feb_SVPD_BLYP_C1_wt_wb97_typm1_neg.gbw) ****
             **** DENSITY 18Feb_SVPD_BLYP_C1_wt_wb97_typm1_neg.scfp WAS UPDATED ****
----------------
ORBITAL ENERGIES
----------------

  NO   OCC          E(Eh)            E(eV) 
   0   2.0000     -24.290723      -660.9842 
   1   2.0000      -9.993840      -271.9462 
   2   2.0000      -1.077350       -29.3162 
   3   2.0000      -0.628663       -17.1068 
   4   2.0000      -0.443826       -12.0771 
   5   2.0000      -0.431922       -11.7532 
   6   2.0000      -0.431921       -11.7532 
   7   2.0000      -0.296444        -8.0667 
   8   2.0000      -0.296441        -8.0666 
   9   0.0000       0.006558         0.1785 
  10   0.0000       0.033505         0.9117 
  11   0.0000       0.078591         2.1386 
  12   0.0000       0.078592         2.1386 
  13   0.0000       0.125335         3.4105 
  14   0.0000       0.127439         3.4678 
  15   0.0000       0.127441         3.4678 
  16   0.0000       0.157488         4.2855 
  17   0.0000       0.157493         4.2856 
  18   0.0000       0.224674         6.1137 
  19   0.0000       0.256533         6.9806 
  20   0.0000       0.283929         7.7261 
  21   0.0000       0.283931         7.7262 
  22   0.0000       0.300555         8.1785 
  23   0.0000       0.326870         8.8946 
  24   0.0000       0.335830         9.1384 
  25   0.0000       0.335835         9.1385 
  26   0.0000       0.384889        10.4734 
  27   0.0000       0.384893        10.4735 
  28   0.0000       0.399803        10.8792 
  29   0.0000       0.433921        11.8076 
  30   0.0000       0.481519        13.1028 
  31   0.0000       0.481523        13.1029 
  32   0.0000       0.624175        16.9847 
  33   0.0000       0.657374        17.8881 
  34   0.0000       0.657378        17.8882 
  35   0.0000       0.718947        19.5635 
  36   0.0000       0.718960        19.5639 
  37   0.0000       0.809169        22.0186 
  38   0.0000       0.863669        23.5016 
  39   0.0000       0.863679        23.5019 
  40   0.0000       0.875217        23.8159 
  41   0.0000       0.924191        25.1485 
  42   0.0000       0.924194        25.1486 
  43   0.0000       1.039958        28.2987 
  44   0.0000       1.450414        39.4678 
  45   0.0000       1.450423        39.4680 
  46   0.0000       1.584498        43.1164 
  47   0.0000       1.584501        43.1165 
  48   0.0000       1.596381        43.4397 
  49   0.0000       1.677991        45.6605 
  50   0.0000       1.867960        50.8298 
  51   0.0000       1.867963        50.8299 
  52   0.0000       1.889539        51.4170 
  53   0.0000       2.049711        55.7755 
  54   0.0000       2.049714        55.7755 
  55   0.0000       2.156802        58.6896 
  56   0.0000       2.243358        61.0449 
  57   0.0000       2.449865        66.6642 
  58   0.0000       2.449868        66.6643 
  59   0.0000       2.716852        73.9293 
  60   0.0000       2.954729        80.4023 
  61   0.0000       2.954733        80.4024 
  62   0.0000       3.300852        89.8208 
  63   0.0000       3.300860        89.8210 
  64   0.0000       3.405596        92.6710 
  65   0.0000       3.405598        92.6710 
  66   0.0000       3.769802       102.5815 

                    ********************************
                    * MULLIKEN POPULATION ANALYSIS *
                    ********************************

-----------------------
MULLIKEN ATOMIC CHARGES
-----------------------
   0 C :    1.213596
   1 F :   -0.441164
   2 H :   -0.257485
   3 H :   -0.257462
   4 H :   -0.257484
Sum of atomic charges:    0.0000000

--------------------------------
MULLIKEN REDUCED ORBITAL CHARGES
--------------------------------
  0 C s       :     2.381813  s :     2.381813
      pz      :     0.858848  p :     2.322990
      px      :     0.679283
      py      :     0.784859
      dz2     :    -0.007883  d :     0.081601
      dxz     :     0.032291
      dyz     :     0.000761
      dx2y2   :     0.042232
      dxy     :     0.014200
  1 F s       :     4.013078  s :     4.013078
      pz      :     1.931856  p :     5.372777
      px      :     1.632450
      py      :     1.808472
      dz2     :     0.008452  d :     0.055309
      dxz     :     0.008944
      dyz     :     0.008416
      dx2y2   :     0.019043
      dxy     :     0.010454
  2 H s       :     1.199515  s :     1.199515
      pz      :    -0.004282  p :     0.057970
      px      :     0.033040
      py      :     0.029212
  3 H s       :     1.199499  s :     1.199499
      pz      :     0.059458  p :     0.057963
      px      :     0.003098
      py      :    -0.004593
  4 H s       :     1.199514  s :     1.199514
      pz      :     0.019323  p :     0.057971
      px      :     0.003236
      py      :     0.035412


                     *******************************
                     * LOEWDIN POPULATION ANALYSIS *
                     *******************************

----------------------
LOEWDIN ATOMIC CHARGES
----------------------
   0 C :    0.263551
   1 F :   -0.228025
   2 H :   -0.011843
   3 H :   -0.011842
   4 H :   -0.011842

-------------------------------
LOEWDIN REDUCED ORBITAL CHARGES
-------------------------------
  0 C s       :     2.700533  s :     2.700533
      pz      :     0.932913  p :     2.551677
      px      :     0.757953
      py      :     0.860811
      dz2     :     0.087463  d :     0.484239
      dxz     :     0.070390
      dyz     :     0.073329
      dx2y2   :     0.129807
      dxy     :     0.123250
  1 F s       :     3.668918  s :     3.668918
      pz      :     1.869578  p :     5.325202
      px      :     1.668792
      py      :     1.786832
      dz2     :     0.027224  d :     0.233905
      dxz     :     0.048547
      dyz     :     0.027293
      dx2y2   :     0.073357
      dxy     :     0.057484
  2 H s       :     0.756754  s :     0.756754
      pz      :     0.077139  p :     0.255089
      px      :     0.096098
      py      :     0.081852
  3 H s       :     0.756752  s :     0.756752
      pz      :     0.136485  p :     0.255089
      px      :     0.050118
      py      :     0.068486
  4 H s       :     0.756753  s :     0.756753
      pz      :     0.093721  p :     0.255088
      px      :     0.050111
      py      :     0.111257


                      *****************************
                      * MAYER POPULATION ANALYSIS *
                      *****************************

  NA   - Mulliken gross atomic population
  ZA   - Total nuclear charge
  QA   - Mulliken gross atomic charge
  VA   - Mayer's total valence
  BVA  - Mayer's bonded valence
  FA   - Mayer's free valence

  ATOM       NA         ZA         QA         VA         BVA        FA
  0 C      4.7864     6.0000     1.2136     3.5155     3.5155    -0.0000
  1 F      9.4412     9.0000    -0.4412     1.0862     1.0862    -0.0000
  2 H      1.2575     1.0000    -0.2575     1.0462     1.0462     0.0000
  3 H      1.2575     1.0000    -0.2575     1.0462     1.0462     0.0000
  4 H      1.2575     1.0000    -0.2575     1.0462     1.0462    -0.0000

  Mayer bond orders larger than 0.100000
B(  0-C ,  1-F ) :   0.9065 B(  0-C ,  2-H ) :   0.8697 B(  0-C ,  3-H ) :   0.8697 
B(  0-C ,  4-H ) :   0.8697 

-------
TIMINGS
-------

Total SCF time: 0 days 0 hours 0 min 0 sec 

Total time                  ....       0.884 sec
Sum of individual times     ....       0.773 sec  ( 87.4%)

Fock matrix formation       ....       0.563 sec  ( 63.7%)
  Split-RI-J                ....       0.086 sec  ( 15.2% of F)
  XC integration            ....       0.464 sec  ( 82.5% of F)
    Basis function eval.    ....       0.173 sec  ( 37.2% of XC)
    Density eval.           ....       0.085 sec  ( 18.4% of XC)
    XC-Functional eval.     ....       0.056 sec  ( 12.1% of XC)
    XC-Potential eval.      ....       0.109 sec  ( 23.5% of XC)
Diagonalization             ....       0.014 sec  (  1.6%)
Density matrix formation    ....       0.001 sec  (  0.1%)
Population analysis         ....       0.002 sec  (  0.3%)
Initial guess               ....       0.019 sec  (  2.2%)
Orbital Transformation      ....       0.000 sec  (  0.0%)
Orbital Orthonormalization  ....       0.000 sec  (  0.0%)
DIIS solution               ....       0.014 sec  (  1.6%)
SOSCF solution              ....       0.007 sec  (  0.8%)
Grid generation             ....       0.153 sec  ( 17.3%)

Maximum memory used throughout the entire SCF-calculation: 9.0 MB


-------------------------------------------------------------------------------
                          DFT DISPERSION CORRECTION                            
                                                                               
                              DFTD3 V3.1  Rev 1                                
                          USING Becke-Johnson damping                          
-------------------------------------------------------------------------------
The BLYP functional is recognized
Active option DFTDOPT                   ...         4   

molecular C6(AA) [au] = 146.101784 


            DFT-D V3
 parameters
 s6 scaling factor         :     1.0000 
 a1 scaling factor         :     0.4298 
 s8 scaling factor         :     2.6996 
 a2 scaling factor         :     4.2359 
 ad hoc parameters k1-k3   :    16.0000     1.3333    -4.0000 

 Edisp/kcal,au: -1.661264239114  -0.002647392797 
 E6   /kcal   :  -0.732967276 
 E8   /kcal   :  -0.928296963 
 % E8         :  55.878946953 

-------------------------   ----------------
Dispersion correction           -0.002647393
-------------------------   ----------------


-------------------------   --------------------
FINAL SINGLE POINT ENERGY      -139.610901969330
-------------------------   --------------------


                            ***************************************
                            *     ORCA property calculations      *
                            ***************************************

                                    ---------------------
                                    Active property flags
                                    ---------------------
   (+) Dipole Moment


------------------------------------------------------------------------------
                       ORCA ELECTRIC PROPERTIES CALCULATION
------------------------------------------------------------------------------

Dipole Moment Calculation                       ... on
Quadrupole Moment Calculation                   ... off
Polarizability Calculation                      ... off
GBWName                                         ... 18Feb_SVPD_BLYP_C1_wt_wb97_typm1_neg.gbw
Electron density file                           ... 18Feb_SVPD_BLYP_C1_wt_wb97_typm1_neg.scfp
The origin for moment calculation is the CENTER OF MASS  = (-2.260444, -1.946292  0.637269)

-------------
DIPOLE MOMENT
-------------
                                X             Y             Z
Electronic contribution:     -2.39910      -1.61328      -0.62641
Nuclear contribution   :      2.96306       1.99251       0.77366
                        -----------------------------------------
Total Dipole Moment    :      0.56395       0.37923       0.14725
                        -----------------------------------------
Magnitude (a.u.)       :      0.69537
Magnitude (Debye)      :      1.76749



--------------------
Rotational spectrum 
--------------------
 
Rotational constants in cm-1:     5.477665     0.875886     0.875886 
Rotational constants in MHz : 164216.266994 26258.396768 26258.386731 

 Dipole components along the rotational axes: 
x,y,z [a.u.] :    -0.695371     0.000004     0.000001 
x,y,z [Debye]:    -1.767493     0.000011     0.000003 

 

Timings for individual modules:

Sum of individual times         ...        1.636 sec (=   0.027 min)
GTO integral calculation        ...        0.444 sec (=   0.007 min)  27.1 %
SCF iterations                  ...        1.192 sec (=   0.020 min)  72.9 %
                             ****ORCA TERMINATED NORMALLY****
TOTAL RUN TIME: 0 days 0 hours 0 minutes 2 seconds 126 msec
