
                                        *****************
                                        * O   R   C   A *
                                        *****************

                                            #,                                       
                                            ###                                      
                                            ####                                     
                                            #####                                    
                                            ######                                   
                                           ########,                                 
                                     ,,################,,,,,                         
                               ,,#################################,,                 
                          ,,##########################################,,             
                       ,#########################################, ''#####,          
                    ,#############################################,,   '####,        
                  ,##################################################,,,,####,       
                ,###########''''           ''''###############################       
              ,#####''   ,,,,##########,,,,          '''####'''          '####       
            ,##' ,,,,###########################,,,                        '##       
           ' ,,###''''                  '''############,,,                           
         ,,##''                                '''############,,,,        ,,,,,,###''
      ,#''                                            '''#######################'''  
     '                                                          ''''####''''         
             ,#######,   #######,   ,#######,      ##                                
            ,#'     '#,  ##    ##  ,#'     '#,    #''#        ######   ,####,        
            ##       ##  ##   ,#'  ##            #'  '#       #        #'  '#        
            ##       ##  #######   ##           ,######,      #####,   #    #        
            '#,     ,#'  ##    ##  '#,     ,#' ,#      #,         ##   #,  ,#        
             '#######'   ##     ##  '#######'  #'      '#     #####' # '####'        



                  #######################################################
                  #                        -***-                        #
                  #          Department of theory and spectroscopy      #
                  #    Directorship and core code : Frank Neese         #
                  #        Max Planck Institute fuer Kohlenforschung    #
                  #                Kaiser Wilhelm Platz 1               #
                  #                 D-45470 Muelheim/Ruhr               #
                  #                      Germany                        #
                  #                                                     #
                  #                  All rights reserved                #
                  #                        -***-                        #
                  #######################################################


                         Program Version 5.0.0 -  RELEASE  -
                                (SVN: $Rev: 19529$)
                ($Date: 2021-06-28 11:36:33 +0200 (Mo, 28 Jun 2021) $)


 With contributions from (in alphabetic order):
   Daniel Aravena         : Magnetic Suceptibility
   Michael Atanasov       : Ab Initio Ligand Field Theory (pilot matlab implementation)
   Alexander A. Auer      : GIAO ZORA, VPT2 properties, NMR spectrum
   Ute Becker             : Parallelization
   Giovanni Bistoni       : ED, misc. LED, open-shell LED, HFLD
   Martin Brehm           : Molecular dynamics
   Dmytro Bykov           : SCF Hessian
   Vijay G. Chilkuri      : MRCI spin determinant printing, contributions to CSF-ICE
   Dipayan Datta          : RHF DLPNO-CCSD density
   Achintya Kumar Dutta   : EOM-CC, STEOM-CC
   Dmitry Ganyushin       : Spin-Orbit,Spin-Spin,Magnetic field MRCI
   Miquel Garcia          : C-PCM Hessian, Gaussian charge scheme
   Yang Guo               : DLPNO-NEVPT2, F12-NEVPT2, CIM, IAO-localization
   Andreas Hansen         : Spin unrestricted coupled pair/coupled cluster methods
   Benjamin Helmich-Paris : MC-RPA, TRAH-SCF, COSX integrals
   Lee Huntington         : MR-EOM, pCC
   Robert Izsak           : Overlap fitted RIJCOSX, COSX-SCS-MP3, EOM
   Marcus Kettner         : VPT2
   Christian Kollmar      : KDIIS, OOCD, Brueckner-CCSD(T), CCSD density, CASPT2, CASPT2-K
   Simone Kossmann        : Meta GGA functionals, TD-DFT gradient, OOMP2, MP2 Hessian
   Martin Krupicka        : Initial AUTO-CI
   Lucas Lang             : DCDCAS
   Marvin Lechner         : AUTO-CI (C++ implementation), FIC-MRCC
   Dagmar Lenk            : GEPOL surface, SMD
   Dimitrios Liakos       : Extrapolation schemes; Compound Job, initial MDCI parallelization
   Dimitrios Manganas     : Further ROCIS development; embedding schemes
   Dimitrios Pantazis     : SARC Basis sets
   Anastasios Papadopoulos: AUTO-CI, single reference methods and gradients
   Taras Petrenko         : DFT Hessian,TD-DFT gradient, ASA, ECA, R-Raman, ABS, FL, XAS/XES, NRVS
   Peter Pinski           : DLPNO-MP2, DLPNO-MP2 Gradient
   Christoph Reimann      : Effective Core Potentials
   Marius Retegan         : Local ZFS, SOC
   Christoph Riplinger    : Optimizer, TS searches, QM/MM, DLPNO-CCSD(T), (RO)-DLPNO pert. Triples
   Tobias Risthaus        : Range-separated hybrids, TD-DFT gradient, RPA, STAB
   Michael Roemelt        : Original ROCIS implementation
   Masaaki Saitow         : Open-shell DLPNO-CCSD energy and density
   Barbara Sandhoefer     : DKH picture change effects
   Avijit Sen             : IP-ROCIS
   Kantharuban Sivalingam : CASSCF convergence, NEVPT2, FIC-MRCI
   Bernardo de Souza      : ESD, SOC TD-DFT
   Georgi Stoychev        : AutoAux, RI-MP2 NMR
   Willem Van den Heuvel  : Paramagnetic NMR
   Boris Wezisla          : Elementary symmetry handling
   Frank Wennmohs         : Technical directorship


 We gratefully acknowledge several colleagues who have allowed us to
 interface, adapt or use parts of their codes:
   Stefan Grimme, W. Hujo, H. Kruse, P. Pracht,  : VdW corrections, initial TS optimization,
                  C. Bannwarth, S. Ehlert          DFT functionals, gCP, sTDA/sTD-DF
   Ed Valeev, F. Pavosevic, A. Kumar             : LibInt (2-el integral package), F12 methods
   Garnet Chan, S. Sharma, J. Yang, R. Olivares  : DMRG
   Ulf Ekstrom                                   : XCFun DFT Library
   Mihaly Kallay                                 : mrcc  (arbitrary order and MRCC methods)
   Jiri Pittner, Ondrej Demel                    : Mk-CCSD
   Frank Weinhold                                : gennbo (NPA and NBO analysis)
   Christopher J. Cramer and Donald G. Truhlar   : smd solvation model
   Lars Goerigk                                  : TD-DFT with DH, B97 family of functionals
   V. Asgeirsson, H. Jonsson                     : NEB implementation
   FAccTs GmbH                                   : IRC, NEB, NEB-TS, DLPNO-Multilevel, CI-OPT
                                                   MM, QMMM, 2- and 3-layer-ONIOM, Crystal-QMMM,
                                                   LR-CPCM, SF, NACMEs, symmetry and pop. for TD-DFT,
                                                   nearIR, NL-DFT gradient (VV10), updates on ESD,
                                                   ML-optimized integration grids
   S Lehtola, MJT Oliveira, MAL Marques          : LibXC Library
   Liviu Ungur et al                             : ANISO software


 Your calculation uses the libint2 library for the computation of 2-el integrals
 For citations please refer to: http://libint.valeyev.net

 Your ORCA version has been built with support for libXC version: 5.1.0
 For citations please refer to: https://tddft.org/programs/libxc/

 This ORCA versions uses:
   CBLAS   interface :  Fast vector & matrix operations
   LAPACKE interface :  Fast linear algebra routines
   SCALAPACK package :  Parallel linear algebra routines
   Shared memory     :  Shared parallel matrices
   BLAS/LAPACK       :  OpenBLAS 0.3.15  USE64BITINT DYNAMIC_ARCH NO_AFFINITY Haswell SINGLE_THREADED
        Core in use  :  Haswell
   Copyright (c) 2011-2014, The OpenBLAS Project


Your calculation utilizes the atom-pairwise dispersion correction
with the Becke-Johnson damping scheme (D3BJ)
Cite in your paper:
S.Grimme, S.Ehrlich, L.Goerigk, J Comput Chem, (2011), 32, 1456–1465 
S.Grimme, J.Antony, S.Ehrlich and H.Krieg, J.Chem.Phys., 132, (2010), 154104 
   

================================================================================

----- Orbital basis set information -----
Your calculation utilizes the basis: def2-SVPD
   F. Weigend and R. Ahlrichs, Phys. Chem. Chem. Phys. 7, 3297 (2005).
   D. Rappoport and F. Furche, J. Chem. Phys. 133 134105 (2010).

----- AuxJ basis set information -----
Your calculation utilizes the auxiliary basis: def2/J
   F. Weigend, Phys. Chem. Chem. Phys. 8, 1057 (2006).

================================================================================
                                        WARNINGS
                       Please study these warnings very carefully!
================================================================================



WARNING: Found flag for RIJCOSX approximation but no HF exchange needed!
  ===> : RIJCOSX  will be disabled and Split-RI-J is turned on

INFO   : the flag for use of the SHARK integral package has been found!

================================================================================
                                       INPUT FILE
================================================================================
NAME = SVPD_TPSS_C2_wt_dlpno_pos.com
|  1> !TPSS D3BJ RIJCOSX def2-SVPD def2/J TightSCF
|  2> *xyz 0 1
|  3> C          5.55821       -1.99291       -6.21505
|  4> C          4.18188       -2.58967       -6.29891
|  5> N          3.14587       -1.76843       -6.48675
|  6> C          4.01910       -3.86431       -6.22743
|  7> H          4.76849       -4.59115       -5.99077
|  8> H          3.12241       -4.33339       -6.31462
|  9> H          3.28164       -0.77779       -6.56655
| 10> H          2.21255       -2.13419       -6.56225
| 11> C          6.41926       -2.54294       -5.07763
| 12> H          6.03683       -2.19819       -7.17685
| 13> H          5.46761       -0.90737       -6.12797
| 14> H          6.50056       -3.60553       -5.17358
| 15> H          5.96544       -2.30329       -4.13874
| 16> H          7.39438       -2.10494       -5.12457
| 17> *
| 18> 
| 19> %MaxCore 64000
| 20> 
| 21> %pal nprocs 4
| 22> end  
| 23> 
| 24> %scf
| 25>   MaxIter 150
| 26> end
| 27> 
| 28> 
| 29>                          ****END OF INPUT****
================================================================================

                       ****************************
                       * Single Point Calculation *
                       ****************************

---------------------------------
CARTESIAN COORDINATES (ANGSTROEM)
---------------------------------
  C      5.558210   -1.992910   -6.215050
  C      4.181880   -2.589670   -6.298910
  N      3.145870   -1.768430   -6.486750
  C      4.019100   -3.864310   -6.227430
  H      4.768490   -4.591150   -5.990770
  H      3.122410   -4.333390   -6.314620
  H      3.281640   -0.777790   -6.566550
  H      2.212550   -2.134190   -6.562250
  C      6.419260   -2.542940   -5.077630
  H      6.036830   -2.198190   -7.176850
  H      5.467610   -0.907370   -6.127970
  H      6.500560   -3.605530   -5.173580
  H      5.965440   -2.303290   -4.138740
  H      7.394380   -2.104940   -5.124570

----------------------------
CARTESIAN COORDINATES (A.U.)
----------------------------
  NO LB      ZA    FRAG     MASS         X           Y           Z
   0 C     6.0000    0    12.011   10.503495   -3.766054  -11.744742
   1 C     6.0000    0    12.011    7.902608   -4.893767  -11.903215
   2 N     7.0000    0    14.007    5.944833   -3.341848  -12.258181
   3 C     6.0000    0    12.011    7.594998   -7.302488  -11.768137
   4 H     1.0000    0     1.008    9.011140   -8.676016  -11.320915
   5 H     1.0000    0     1.008    5.900500   -8.188920  -11.932902
   6 H     1.0000    0     1.008    6.201401   -1.469810  -12.408981
   7 H     1.0000    0     1.008    4.181114   -4.033035  -12.400855
   8 C     6.0000    0    12.011   12.130643   -4.805460   -9.595330
   9 H     1.0000    0     1.008   11.407955   -4.153977  -13.562281
  10 H     1.0000    0     1.008   10.332286   -1.714681  -11.580185
  11 H     1.0000    0     1.008   12.284278   -6.813464   -9.776649
  12 H     1.0000    0     1.008   11.273048   -4.352587   -7.821085
  13 H     1.0000    0     1.008   13.973353   -3.977760   -9.684034

--------------------------------
INTERNAL COORDINATES (ANGSTROEM)
--------------------------------
 C      0   0   0     0.000000000000     0.00000000     0.00000000
 C      1   0   0     1.502477709019     0.00000000     0.00000000
 N      2   1   0     1.335303607162   118.31345049     0.00000000
 C      2   1   3     1.286978573404   120.40698489   178.11903254
 H      4   2   1     1.070462382945   126.59967088     7.96889692
 H      4   2   1     1.015721959298   124.35258296   182.57970995
 H      3   2   1     1.003079828578   120.90191037   359.77612908
 H      3   2   1     1.005269540969   120.47250834   179.03023138
 C      1   2   3     1.528942235600   114.48912146   134.97205894
 H      1   2   3     1.093744130407   106.09496297   256.34022102
 H      1   2   3     1.092789265138   108.84750716    11.20622356
 H      9   1   2     1.070006355402   109.47115838    56.94341761
 H      9   1   2     1.069999601402   109.47171602   296.94339310
 H      9   1   2     1.070002980370   109.47119060   176.94314058

---------------------------
INTERNAL COORDINATES (A.U.)
---------------------------
 C      0   0   0     0.000000000000     0.00000000     0.00000000
 C      1   0   0     2.839271392368     0.00000000     0.00000000
 N      2   1   0     2.523358123173   118.31345049     0.00000000
 C      2   1   3     2.432037043957   120.40698489   178.11903254
 H      4   2   1     2.022880740431   126.59967088     7.96889692
 H      4   2   1     1.919436331283   124.35258296   182.57970995
 H      3   2   1     1.895546166473   120.90191037   359.77612908
 H      3   2   1     1.899684123204   120.47250834   179.03023138
 C      1   2   3     2.889282099868   114.48912146   134.97205894
 H      1   2   3     2.066876867053   106.09496297   256.34022102
 H      1   2   3     2.065072433199   108.84750716    11.20622356
 H      9   1   2     2.022018973264   109.47115838    56.94341761
 H      9   1   2     2.022006210054   109.47171602   296.94339310
 H      9   1   2     2.022012595378   109.47119060   176.94314058

---------------------
BASIS SET INFORMATION
---------------------
There are 3 groups of distinct atoms

 Group   1 Type C   : 8s4p2d contracted to 4s2p2d pattern {5111/31/11}
 Group   2 Type N   : 8s4p2d contracted to 4s2p2d pattern {5111/31/11}
 Group   3 Type H   : 4s2p contracted to 2s2p pattern {31/11}

Atom   0C    basis set group =>   1
Atom   1C    basis set group =>   1
Atom   2N    basis set group =>   2
Atom   3C    basis set group =>   1
Atom   4H    basis set group =>   3
Atom   5H    basis set group =>   3
Atom   6H    basis set group =>   3
Atom   7H    basis set group =>   3
Atom   8C    basis set group =>   1
Atom   9H    basis set group =>   3
Atom  10H    basis set group =>   3
Atom  11H    basis set group =>   3
Atom  12H    basis set group =>   3
Atom  13H    basis set group =>   3
---------------------------------
AUXILIARY/J BASIS SET INFORMATION
---------------------------------
There are 3 groups of distinct atoms

 Group   1 Type C   : 12s5p4d2f1g contracted to 6s4p3d1f1g pattern {711111/2111/211/2/1}
 Group   2 Type N   : 12s5p4d2f1g contracted to 6s4p3d1f1g pattern {711111/2111/211/2/1}
 Group   3 Type H   : 5s2p1d contracted to 3s1p1d pattern {311/2/1}

Atom   0C    basis set group =>   1
Atom   1C    basis set group =>   1
Atom   2N    basis set group =>   2
Atom   3C    basis set group =>   1
Atom   4H    basis set group =>   3
Atom   5H    basis set group =>   3
Atom   6H    basis set group =>   3
Atom   7H    basis set group =>   3
Atom   8C    basis set group =>   1
Atom   9H    basis set group =>   3
Atom  10H    basis set group =>   3
Atom  11H    basis set group =>   3
Atom  12H    basis set group =>   3
Atom  13H    basis set group =>   3


           ************************************************************
           *        Program running with 4 parallel MPI-processes     *
           *              working on a common directory               *
           ************************************************************
------------------------------------------------------------------------------
                           ORCA GTO INTEGRAL CALCULATION
                           -- RI-GTO INTEGRALS CHOSEN --
------------------------------------------------------------------------------
------------------------------------------------------------------------------
                   ___                                                        
                  /   \      - P O W E R E D   B Y -                         
                 /     \                                                     
                 |  |  |   _    _      __       _____    __    __             
                 |  |  |  | |  | |    /  \     |  _  \  |  |  /  |          
                  \  \/   | |  | |   /    \    | | | |  |  | /  /          
                 / \  \   | |__| |  /  /\  \   | |_| |  |  |/  /          
                |  |  |   |  __  | /  /__\  \  |    /   |      \           
                |  |  |   | |  | | |   __   |  |    \   |  |\   \          
                \     /   | |  | | |  |  |  |  | |\  \  |  | \   \       
                 \___/    |_|  |_| |__|  |__|  |_| \__\ |__|  \__/        
                                                                              
                      - O R C A' S   B I G   F R I E N D -                    
                                      &                                       
                       - I N T E G R A L  F E E D E R -                       
                                                                              
 v1 FN, 2020, v2 2021                                                         
------------------------------------------------------------------------------


Reading SHARK input file SVPD_TPSS_C2_wt_dlpno_pos.SHARKINP.tmp ... ok
----------------------
SHARK INTEGRAL PACKAGE
----------------------

Number of atoms                             ...     14
Number of basis functions                   ...    172
Number of shells                            ...     76
Maximum angular momentum                    ...      2
Integral batch strategy                     ... SHARK/LIBINT Hybrid
RI-J (if used) integral strategy            ... SPLIT-RIJ (Revised 2003 algorithm where possible)
Printlevel                                  ...      1
Contraction scheme used                     ... SEGMENTED contraction
Coulomb Range Separation                    ... NOT USED
Exchange Range Separation                   ... NOT USED
Finite Nucleus Model                        ... NOT USED
Auxiliary Coulomb fitting basis             ... AVAILABLE
   # of basis functions in Aux-J            ...    344
   # of shells in Aux-J                     ...    120
   Maximum angular momentum in Aux-J        ...      4
Auxiliary J/K fitting basis                 ... NOT available
Auxiliary Correlation fitting basis         ... NOT available
Auxiliary 'external' fitting basis          ... NOT available
Integral threshold                          ...     2.500000e-11
Primitive cut-off                           ...     2.500000e-12
Primitive pair pre-selection threshold      ...     2.500000e-12

Calculating pre-screening integrals         ... done (  0.0 sec) Dimension = 76
Organizing shell pair data                  ... done (  0.0 sec)
Shell pair information
Total number of shell pairs                 ...      2926
Shell pairs after pre-screening             ...      2903
Total number of primitive shell pairs       ...      7842
Primitive shell pairs kept                  ...      6621
          la=0 lb=0:    733 shell pairs
          la=1 lb=0:   1054 shell pairs
          la=1 lb=1:    403 shell pairs
          la=2 lb=0:    378 shell pairs
          la=2 lb=1:    280 shell pairs
          la=2 lb=2:     55 shell pairs

Calculating one electron integrals          ... done (  0.0 sec)
Calculating RI/J V-Matrix + Cholesky decomp.... done (  0.0 sec)
Calculating Nuclear repulsion               ... done (  0.0 sec) ENN=    180.872963374802 Eh

SHARK setup successfully completed in   0.2 seconds

Maximum memory used throughout the entire GTOINT-calculation: 8.9 MB


           ************************************************************
           *        Program running with 4 parallel MPI-processes     *
           *              working on a common directory               *
           ************************************************************
-------------------------------------------------------------------------------
                                 ORCA SCF
-------------------------------------------------------------------------------

------------
SCF SETTINGS
------------
Hamiltonian:
 Density Functional     Method          .... DFT(GTOs)
 Exchange Functional    Exchange        .... TPSS
 Correlation Functional Correlation     .... TPSS
 LDA part of GGA corr.  LDAOpt          .... PW91-LDA
 Gradients option       PostSCFGGA      .... off
   Density functional embedding theory  .... OFF
   NL short-range parameter             ....  5.000000
 RI-approximation to the Coulomb term is turned on
   Number of AuxJ basis functions       .... 344


General Settings:
 Integral files         IntName         .... SVPD_TPSS_C2_wt_dlpno_pos
 Hartree-Fock type      HFTyp           .... RHF
 Total Charge           Charge          ....    0
 Multiplicity           Mult            ....    1
 Number of Electrons    NEL             ....   40
 Basis Dimension        Dim             ....  172
 Nuclear Repulsion      ENuc            ....    180.8729633748 Eh

Convergence Acceleration:
 DIIS                   CNVDIIS         .... on
   Start iteration      DIISMaxIt       ....    12
   Startup error        DIISStart       ....  0.200000
   # of expansion vecs  DIISMaxEq       ....     5
   Bias factor          DIISBfac        ....   1.050
   Max. coefficient     DIISMaxC        ....  10.000
 Trust-Rad. Augm. Hess. CNVTRAH         .... auto
   Auto Start mean grad. ratio tolernc. ....  1.125000
   Auto Start start iteration           ....    20
   Auto Start num. interpolation iter.  ....    10
   Max. Number of Micro iterations      ....    16
   Max. Number of Macro iterations      .... Maxiter - #DIIS iter
   Number of Davidson start vectors     ....     2
   Converg. threshold I  (grad. norm)   ....   1.000e-05
   Converg. threshold II (energy diff.) ....   1.000e-08
   Grad. Scal. Fac. for Micro threshold ....   0.100
   Minimum threshold for Micro iter.    ....   0.010
   NR start threshold (gradient norm)   ....   0.001
   Initial trust radius                 ....   0.400
   Minimum AH scaling param. (alpha)    ....   1.000
   Maximum AH scaling param. (alpha)    .... 1000.000
   Orbital update algorithm             .... Taylor
   White noise on init. David. guess    .... on
   Maximum white noise                  ....   0.010
   Quad. conv. algorithm                .... NR
 SOSCF                  CNVSOSCF        .... on
   Start iteration      SOSCFMaxIt      ....   150
   Startup grad/error   SOSCFStart      ....  0.003300
 Level Shifting         CNVShift        .... on
   Level shift para.    LevelShift      ....    0.2500
   Turn off err/grad.   ShiftErr        ....    0.0010
 Zerner damping         CNVZerner       .... off
 Static damping         CNVDamp         .... on
   Fraction old density DampFac         ....    0.7000
   Max. Damping (<1)    DampMax         ....    0.9800
   Min. Damping (>=0)   DampMin         ....    0.0000
   Turn off err/grad.   DampErr         ....    0.1000
 Fernandez-Rico         CNVRico         .... off

SCF Procedure:
 Maximum # iterations   MaxIter         ....   150
 SCF integral mode      SCFMode         .... Direct
   Integral package                     .... SHARK and LIBINT hybrid scheme
 Reset frequency        DirectResetFreq ....    20
 Integral Threshold     Thresh          ....  2.500e-11 Eh
 Primitive CutOff       TCut            ....  2.500e-12 Eh

Convergence Tolerance:
 Convergence Check Mode ConvCheckMode   .... Total+1el-Energy
 Convergence forced     ConvForced      .... 0
 Energy Change          TolE            ....  1.000e-08 Eh
 1-El. energy change                    ....  1.000e-05 Eh
 Orbital Gradient       TolG            ....  1.000e-05
 Orbital Rotation angle TolX            ....  1.000e-05
 DIIS Error             TolErr          ....  5.000e-07


Diagonalization of the overlap matrix:
Smallest eigenvalue                        ... 4.377e-05
Time for diagonalization                   ...    0.007 sec
Threshold for overlap eigenvalues          ... 1.000e-08
Number of eigenvalues below threshold      ... 0
Time for construction of square roots      ...    0.006 sec
Total time needed                          ...    0.014 sec

Time for model grid setup =    0.088 sec

------------------------------
INITIAL GUESS: MODEL POTENTIAL
------------------------------
Loading Hartree-Fock densities                     ... done
Calculating cut-offs                               ... done
Initializing the effective Hamiltonian             ... done
Setting up the integral package (SHARK)            ... done
Starting the Coulomb interaction                   ... done (   0.0 sec)
Reading the grid                                   ... done
Mapping shells                                     ... done
Starting the XC term evaluation                    ... done (   0.1 sec)
  promolecular density results
     # of electrons  =     39.994379823
     EX              =    -29.707075824
     EC              =     -1.298454931
     EX+EC           =    -31.005530755
Transforming the Hamiltonian                       ... done (   0.0 sec)
Diagonalizing the Hamiltonian                      ... done (   0.0 sec)
Back transforming the eigenvectors                 ... done (   0.0 sec)
Now organizing SCF variables                       ... done
                      ------------------
                      INITIAL GUESS DONE (   0.2 sec)
                      ------------------
-------------------
DFT GRID GENERATION
-------------------

General Integration Accuracy     IntAcc      ... 4.388
Radial Grid Type                 RadialGrid  ... OptM3 with GC (2021)
Angular Grid (max. ang.)         AngularGrid ... 4 (Lebedev-302)
Angular grid pruning method      GridPruning ... 4 (adaptive)
Weight generation scheme         WeightScheme... Becke
Basis function cutoff            BFCut       ... 1.0000e-11
Integration weight cutoff        WCut        ... 1.0000e-14
Angular grids for H and He will be reduced by one unit
Partially contracted basis set               ... off
Rotationally invariant grid construction     ... off

Total number of grid points                  ...    60881
Total number of batches                      ...      959
Average number of points per batch           ...       63
Average number of grid points per atom       ...     4349
Time for grid setup =    0.385 sec

--------------
SCF ITERATIONS
--------------
ITER       Energy         Delta-E        Max-DP      RMS-DP      [F,P]     Damp
               ***  Starting incremental Fock matrix formation  ***
  0   -212.2380800751   0.000000000000 0.09927791  0.00327170  0.2032861 0.7000
  1   -212.3442810258  -0.106200950687 0.05753887  0.00227431  0.0999992 0.7000
                               ***Turning on DIIS***
  2   -212.3831952824  -0.038914256654 0.17262314  0.00443561  0.0304085 0.0000
  3   -212.4339288033  -0.050733520825 0.04069856  0.00130826  0.0648484 0.0000
  4   -212.4537758454  -0.019847042125 0.01904383  0.00059959  0.0144221 0.0000
  5   -212.4549737606  -0.001197915228 0.00778061  0.00026408  0.0054303 0.0000
                      *** Initiating the SOSCF procedure ***
                           *** Shutting down DIIS ***
                      *** Re-Reading the Fockian *** 
                      *** Removing any level shift *** 
ITER      Energy       Delta-E        Grad      Rot      Max-DP    RMS-DP
  6   -212.45507415  -0.0001003921  0.000515  0.000515  0.003407  0.000130
               *** Restarting incremental Fock matrix formation ***
  7   -212.45508925  -0.0000150975  0.000157  0.000791  0.002080  0.000091
  8   -212.45509034  -0.0000010863  0.000085  0.000100  0.000387  0.000017
  9   -212.45509057  -0.0000002359  0.000049  0.000077  0.000389  0.000016
 10   -212.45509067  -0.0000000963  0.000012  0.000037  0.000088  0.000003
 11   -212.45509067  -0.0000000005  0.000022  0.000061  0.000084  0.000003
 12   -212.45509068  -0.0000000059  0.000009  0.000024  0.000059  0.000002
 13   -212.45509068  -0.0000000008  0.000004  0.000007  0.000027  0.000001
                  ***Gradient check signals convergence***
              ***Rediagonalizing the Fockian in SOSCF/NRSCF***

               *****************************************************
               *                     SUCCESS                       *
               *           SCF CONVERGED AFTER  14 CYCLES          *
               *****************************************************


----------------
TOTAL SCF ENERGY
----------------

Total Energy       :         -212.45509068 Eh           -5781.19693 eV

Components:
Nuclear Repulsion  :          180.87296337 Eh            4921.80355 eV
Electronic Energy  :         -393.32805405 Eh          -10703.00048 eV
One Electron Energy:         -642.98388640 Eh          -17496.48105 eV
Two Electron Energy:          249.65583235 Eh            6793.48057 eV

Virial components:
Potential Energy   :         -423.00396205 Eh          -11510.52299 eV
Kinetic Energy     :          210.54887137 Eh            5729.32606 eV
Virial Ratio       :            2.00905357


DFT components:
N(Alpha)           :       20.000005173768 electrons
N(Beta)            :       20.000005173768 electrons
N(Total)           :       40.000010347537 electrons
E(X)               :      -30.810177931620 Eh       
E(C)               :       -1.310121098766 Eh       
E(XC)              :      -32.120299030386 Eh       
DFET-embed. en.    :        0.000000000000 Eh       

---------------
SCF CONVERGENCE
---------------

  Last Energy change         ...   -1.5937e-09  Tolerance :   1.0000e-08
  Last MAX-Density change    ...    2.7332e-05  Tolerance :   1.0000e-07
  Last RMS-Density change    ...    9.9233e-07  Tolerance :   5.0000e-09
  Last Orbital Gradient      ...    1.3525e-06  Tolerance :   1.0000e-05
  Last Orbital Rotation      ...    1.9808e-06  Tolerance :   1.0000e-05

             **** THE GBW FILE WAS UPDATED (SVPD_TPSS_C2_wt_dlpno_pos.gbw) ****
             **** DENSITY SVPD_TPSS_C2_wt_dlpno_pos.scfp WAS UPDATED ****
             **** ENERGY FILE WAS UPDATED (SVPD_TPSS_C2_wt_dlpno_pos.en.tmp) ****
             **** THE GBW FILE WAS UPDATED (SVPD_TPSS_C2_wt_dlpno_pos.gbw) ****
             **** DENSITY SVPD_TPSS_C2_wt_dlpno_pos.scfp WAS UPDATED ****
----------------
ORBITAL ENERGIES
----------------

  NO   OCC          E(Eh)            E(eV) 
   0   2.0000     -14.117279      -384.1507 
   1   2.0000     -10.013036      -272.4686 
   2   2.0000     -10.000735      -272.1338 
   3   2.0000      -9.985689      -271.7244 
   4   2.0000      -9.936186      -270.3774 
   5   2.0000      -0.852375       -23.1943 
   6   2.0000      -0.717212       -19.5163 
   7   2.0000      -0.652072       -17.7438 
   8   2.0000      -0.585677       -15.9371 
   9   2.0000      -0.508807       -13.8454 
  10   2.0000      -0.478907       -13.0317 
  11   2.0000      -0.441535       -12.0148 
  12   2.0000      -0.406022       -11.0484 
  13   2.0000      -0.376974       -10.2580 
  14   2.0000      -0.344649        -9.3784 
  15   2.0000      -0.334844        -9.1116 
  16   2.0000      -0.314512        -8.5583 
  17   2.0000      -0.299517        -8.1503 
  18   2.0000      -0.287491        -7.8230 
  19   2.0000      -0.161527        -4.3954 
  20   0.0000       0.009418         0.2563 
  21   0.0000       0.022066         0.6004 
  22   0.0000       0.039185         1.0663 
  23   0.0000       0.045164         1.2290 
  24   0.0000       0.066941         1.8216 
  25   0.0000       0.077750         2.1157 
  26   0.0000       0.087488         2.3807 
  27   0.0000       0.091983         2.5030 
  28   0.0000       0.114592         3.1182 
  29   0.0000       0.131151         3.5688 
  30   0.0000       0.135842         3.6965 
  31   0.0000       0.143542         3.9060 
  32   0.0000       0.153490         4.1767 
  33   0.0000       0.160614         4.3705 
  34   0.0000       0.173449         4.7198 
  35   0.0000       0.180598         4.9143 
  36   0.0000       0.184530         5.0213 
  37   0.0000       0.191310         5.2058 
  38   0.0000       0.217956         5.9309 
  39   0.0000       0.224386         6.1058 
  40   0.0000       0.232323         6.3218 
  41   0.0000       0.263113         7.1597 
  42   0.0000       0.271382         7.3847 
  43   0.0000       0.276168         7.5149 
  44   0.0000       0.286750         7.8029 
  45   0.0000       0.292609         7.9623 
  46   0.0000       0.300894         8.1878 
  47   0.0000       0.304753         8.2928 
  48   0.0000       0.315516         8.5856 
  49   0.0000       0.325363         8.8536 
  50   0.0000       0.332992         9.0612 
  51   0.0000       0.341435         9.2909 
  52   0.0000       0.345424         9.3995 
  53   0.0000       0.350155         9.5282 
  54   0.0000       0.356828         9.7098 
  55   0.0000       0.359328         9.7778 
  56   0.0000       0.380876        10.3642 
  57   0.0000       0.386735        10.5236 
  58   0.0000       0.396724        10.7954 
  59   0.0000       0.411738        11.2040 
  60   0.0000       0.417483        11.3603 
  61   0.0000       0.430003        11.7010 
  62   0.0000       0.430772        11.7219 
  63   0.0000       0.434755        11.8303 
  64   0.0000       0.442066        12.0292 
  65   0.0000       0.457640        12.4530 
  66   0.0000       0.465280        12.6609 
  67   0.0000       0.470067        12.7912 
  68   0.0000       0.475439        12.9374 
  69   0.0000       0.495118        13.4728 
  70   0.0000       0.496088        13.4992 
  71   0.0000       0.499580        13.5943 
  72   0.0000       0.516468        14.0538 
  73   0.0000       0.524243        14.2654 
  74   0.0000       0.532454        14.4888 
  75   0.0000       0.552737        15.0407 
  76   0.0000       0.560235        15.2448 
  77   0.0000       0.562494        15.3063 
  78   0.0000       0.568441        15.4681 
  79   0.0000       0.584152        15.8956 
  80   0.0000       0.592016        16.1096 
  81   0.0000       0.609356        16.5814 
  82   0.0000       0.621489        16.9116 
  83   0.0000       0.636053        17.3079 
  84   0.0000       0.644913        17.5490 
  85   0.0000       0.673590        18.3293 
  86   0.0000       0.684044        18.6138 
  87   0.0000       0.706057        19.2128 
  88   0.0000       0.718002        19.5378 
  89   0.0000       0.756205        20.5774 
  90   0.0000       0.771788        21.0014 
  91   0.0000       0.865630        23.5550 
  92   0.0000       0.888416        24.1750 
  93   0.0000       0.919326        25.0161 
  94   0.0000       0.928285        25.2599 
  95   0.0000       0.933974        25.4147 
  96   0.0000       0.952734        25.9252 
  97   0.0000       0.976188        26.5634 
  98   0.0000       0.994500        27.0617 
  99   0.0000       0.996803        27.1244 
 100   0.0000       1.013249        27.5719 
 101   0.0000       1.020369        27.7657 
 102   0.0000       1.055586        28.7240 
 103   0.0000       1.085446        29.5365 
 104   0.0000       1.096165        29.8282 
 105   0.0000       1.139074        30.9958 
 106   0.0000       1.143642        31.1201 
 107   0.0000       1.162622        31.6365 
 108   0.0000       1.197644        32.5895 
 109   0.0000       1.230393        33.4807 
 110   0.0000       1.238470        33.7005 
 111   0.0000       1.254710        34.1424 
 112   0.0000       1.263515        34.3820 
 113   0.0000       1.284327        34.9483 
 114   0.0000       1.349584        36.7240 
 115   0.0000       1.404308        38.2132 
 116   0.0000       1.443013        39.2664 
 117   0.0000       1.549721        42.1701 
 118   0.0000       1.561754        42.4975 
 119   0.0000       1.566274        42.6205 
 120   0.0000       1.615612        43.9630 
 121   0.0000       1.627131        44.2765 
 122   0.0000       1.659515        45.1577 
 123   0.0000       1.674191        45.5571 
 124   0.0000       1.725659        46.9576 
 125   0.0000       1.750668        47.6381 
 126   0.0000       1.767731        48.1024 
 127   0.0000       1.799469        48.9660 
 128   0.0000       1.812975        49.3336 
 129   0.0000       1.850661        50.3590 
 130   0.0000       1.884117        51.2694 
 131   0.0000       1.895569        51.5811 
 132   0.0000       1.935888        52.6782 
 133   0.0000       1.954853        53.1943 
 134   0.0000       1.966220        53.5036 
 135   0.0000       2.000161        54.4271 
 136   0.0000       2.013099        54.7792 
 137   0.0000       2.044456        55.6325 
 138   0.0000       2.062480        56.1229 
 139   0.0000       2.093161        56.9578 
 140   0.0000       2.106508        57.3210 
 141   0.0000       2.110309        57.4244 
 142   0.0000       2.128751        57.9263 
 143   0.0000       2.182780        59.3965 
 144   0.0000       2.222976        60.4902 
 145   0.0000       2.260685        61.5164 
 146   0.0000       2.323319        63.2207 
 147   0.0000       2.343513        63.7702 
 148   0.0000       2.385155        64.9034 
 149   0.0000       2.396304        65.2067 
 150   0.0000       2.439441        66.3806 
 151   0.0000       2.496787        67.9410 
 152   0.0000       2.538546        69.0774 
 153   0.0000       2.560775        69.6822 
 154   0.0000       2.572727        70.0075 
 155   0.0000       2.633262        71.6547 
 156   0.0000       2.663955        72.4899 
 157   0.0000       2.704126        73.5830 
 158   0.0000       2.733886        74.3928 
 159   0.0000       2.744657        74.6859 
 160   0.0000       2.814431        76.5846 
 161   0.0000       2.933178        79.8158 
 162   0.0000       3.042517        82.7911 
 163   0.0000       3.074977        83.6744 
 164   0.0000       3.082363        83.8754 
 165   0.0000       3.131380        85.2092 
 166   0.0000       3.174488        86.3822 
 167   0.0000       3.209822        87.3437 
 168   0.0000       3.244823        88.2961 
 169   0.0000       3.343289        90.9755 
 170   0.0000       3.546517        96.5056 
 171   0.0000       3.724056       101.3367 

                    ********************************
                    * MULLIKEN POPULATION ANALYSIS *
                    ********************************

-----------------------
MULLIKEN ATOMIC CHARGES
-----------------------
   0 C :   -0.115148
   1 C :    0.377593
   2 N :    0.135370
   3 C :    0.007447
   4 H :    0.034596
   5 H :   -0.484642
   6 H :   -0.154515
   7 H :   -0.201546
   8 C :    0.684709
   9 H :   -0.059643
  10 H :   -0.042588
  11 H :   -0.120310
  12 H :   -0.043085
  13 H :   -0.018238
Sum of atomic charges:   -0.0000000

--------------------------------
MULLIKEN REDUCED ORBITAL CHARGES
--------------------------------
  0 C s       :     2.749970  s :     2.749970
      pz      :     1.034777  p :     3.025464
      px      :     1.049911
      py      :     0.940776
      dz2     :     0.158507  d :     0.339714
      dxz     :     0.070468
      dyz     :     0.050753
      dx2y2   :     0.052768
      dxy     :     0.007217
  1 C s       :     2.756759  s :     2.756759
      pz      :     0.908034  p :     2.418592
      px      :     0.759623
      py      :     0.750935
      dz2     :     0.063441  d :     0.447056
      dxz     :     0.052944
      dyz     :     0.062325
      dx2y2   :    -0.109373
      dxy     :     0.377718
  2 N s       :     3.207378  s :     3.207378
      pz      :     1.639498  p :     3.622343
      px      :     0.985711
      py      :     0.997134
      dz2     :     0.002348  d :     0.034909
      dxz     :     0.012514
      dyz     :     0.010959
      dx2y2   :     0.006845
      dxy     :     0.002243
  3 C s       :     3.384457  s :     3.384457
      pz      :     1.058698  p :     2.502363
      px      :     0.616797
      py      :     0.826868
      dz2     :     0.011934  d :     0.105733
      dxz     :    -0.003698
      dyz     :     0.008415
      dx2y2   :     0.003513
      dxy     :     0.085570
  4 H s       :     0.963096  s :     0.963096
      pz      :     0.041645  p :     0.002308
      px      :    -0.037908
      py      :    -0.001429
  5 H s       :     1.427517  s :     1.427517
      pz      :     0.038497  p :     0.057125
      px      :     0.032915
      py      :    -0.014287
  6 H s       :     1.098616  s :     1.098616
      pz      :     0.079032  p :     0.055899
      px      :    -0.033091
      py      :     0.009957
  7 H s       :     1.155231  s :     1.155231
      pz      :     0.070879  p :     0.046315
      px      :     0.014993
      py      :    -0.039556
  8 C s       :     2.463586  s :     2.463586
      pz      :     0.944783  p :     2.745536
      px      :     0.866219
      py      :     0.934534
      dz2     :     0.065909  d :     0.106170
      dxz     :    -0.006964
      dyz     :     0.022546
      dx2y2   :     0.011222
      dxy     :     0.013457
  9 H s       :     1.005856  s :     1.005856
      pz      :     0.047095  p :     0.053787
      px      :     0.007712
      py      :    -0.001020
 10 H s       :     0.963033  s :     0.963033
      pz      :    -0.014526  p :     0.079555
      px      :     0.024435
      py      :     0.069647
 11 H s       :     1.017609  s :     1.017609
      pz      :     0.009822  p :     0.102701
      px      :     0.013617
      py      :     0.079262
 12 H s       :     0.986189  s :     0.986189
      pz      :     0.043808  p :     0.056896
      px      :     0.024171
      py      :    -0.011082
 13 H s       :     0.991024  s :     0.991024
      pz      :    -0.008305  p :     0.027214
      px      :     0.028110
      py      :     0.007408


                     *******************************
                     * LOEWDIN POPULATION ANALYSIS *
                     *******************************

----------------------
LOEWDIN ATOMIC CHARGES
----------------------
   0 C :   -0.025597
   1 C :   -0.254266
   2 N :    0.176640
   3 C :    0.155626
   4 H :   -0.049476
   5 H :   -0.088137
   6 H :   -0.015476
   7 H :   -0.000557
   8 C :    0.140301
   9 H :    0.025272
  10 H :    0.006940
  11 H :   -0.033926
  12 H :   -0.014748
  13 H :   -0.022596

-------------------------------
LOEWDIN REDUCED ORBITAL CHARGES
-------------------------------
  0 C s       :     2.692258  s :     2.692258
      pz      :     0.910304  p :     2.685909
      px      :     0.880122
      py      :     0.895483
      dz2     :     0.157532  d :     0.647430
      dxz     :     0.154033
      dyz     :     0.070810
      dx2y2   :     0.157817
      dxy     :     0.107238
  1 C s       :     2.661782  s :     2.661782
      pz      :     0.760971  p :     2.587214
      px      :     0.866209
      py      :     0.960033
      dz2     :     0.088512  d :     1.005270
      dxz     :     0.147739
      dyz     :     0.208855
      dx2y2   :     0.261947
      dxy     :     0.298217
  2 N s       :     2.928126  s :     2.928126
      pz      :     1.394527  p :     3.526721
      px      :     1.069179
      py      :     1.063015
      dz2     :     0.036894  d :     0.368514
      dxz     :     0.043048
      dyz     :     0.046567
      dx2y2   :     0.157966
      dxy     :     0.084039
  3 C s       :     2.733892  s :     2.733892
      pz      :     0.898869  p :     2.757682
      px      :     0.910610
      py      :     0.948203
      dz2     :     0.034611  d :     0.352800
      dxz     :     0.013828
      dyz     :     0.063004
      dx2y2   :     0.084414
      dxy     :     0.156943
  4 H s       :     0.750387  s :     0.750387
      pz      :     0.096733  p :     0.299089
      px      :     0.122071
      py      :     0.080285
  5 H s       :     0.777237  s :     0.777237
      pz      :     0.099988  p :     0.310899
      px      :     0.134213
      py      :     0.076698
  6 H s       :     0.665455  s :     0.665455
      pz      :     0.125407  p :     0.350022
      px      :     0.080696
      py      :     0.143919
  7 H s       :     0.663358  s :     0.663358
      pz      :     0.116350  p :     0.337199
      px      :     0.134233
      py      :     0.086616
  8 C s       :     2.704737  s :     2.704737
      pz      :     0.908729  p :     2.744223
      px      :     0.909377
      py      :     0.926116
      dz2     :     0.133064  d :     0.410739
      dxz     :     0.069963
      dyz     :     0.052883
      dx2y2   :     0.092325
      dxy     :     0.062503
  9 H s       :     0.728618  s :     0.728618
      pz      :     0.104277  p :     0.246110
      px      :     0.073532
      py      :     0.068300
 10 H s       :     0.736864  s :     0.736864
      pz      :     0.065947  p :     0.256197
      px      :     0.068015
      py      :     0.122234
 11 H s       :     0.737069  s :     0.737069
      pz      :     0.073569  p :     0.296857
      px      :     0.086270
      py      :     0.137018
 12 H s       :     0.747185  s :     0.747185
      pz      :     0.110792  p :     0.267563
      px      :     0.083570
      py      :     0.073201
 13 H s       :     0.750619  s :     0.750619
      pz      :     0.069820  p :     0.271977
      px      :     0.119496
      py      :     0.082661


                      *****************************
                      * MAYER POPULATION ANALYSIS *
                      *****************************

  NA   - Mulliken gross atomic population
  ZA   - Total nuclear charge
  QA   - Mulliken gross atomic charge
  VA   - Mayer's total valence
  BVA  - Mayer's bonded valence
  FA   - Mayer's free valence

  ATOM       NA         ZA         QA         VA         BVA        FA
  0 C      6.1151     6.0000    -0.1151     4.7548     4.7548     0.0000
  1 C      5.6224     6.0000     0.3776     3.5767     3.5767     0.0000
  2 N      6.8646     7.0000     0.1354     4.0232     4.0232    -0.0000
  3 C      5.9926     6.0000     0.0074     3.7130     3.7130    -0.0000
  4 H      0.9654     1.0000     0.0346     0.9706     0.9706    -0.0000
  5 H      1.4846     1.0000    -0.4846     0.9524     0.9524    -0.0000
  6 H      1.1545     1.0000    -0.1545     1.0102     1.0102    -0.0000
  7 H      1.2015     1.0000    -0.2015     0.9712     0.9712    -0.0000
  8 C      5.3153     6.0000     0.6847     3.9323     3.9323    -0.0000
  9 H      1.0596     1.0000    -0.0596     1.1306     1.1306     0.0000
 10 H      1.0426     1.0000    -0.0426     1.1828     1.1828     0.0000
 11 H      1.1203     1.0000    -0.1203     1.1894     1.1894    -0.0000
 12 H      1.0431     1.0000    -0.0431     1.0839     1.0839     0.0000
 13 H      1.0182     1.0000    -0.0182     1.0432     1.0432    -0.0000

  Mayer bond orders larger than 0.100000
B(  0-C ,  1-C ) :   0.9804 B(  0-C ,  2-N ) :   0.1267 B(  0-C ,  8-C ) :   1.3096 
B(  0-C ,  9-H ) :   0.8969 B(  0-C , 10-H ) :   0.8330 B(  0-C , 11-H ) :   0.1861 
B(  0-C , 12-H ) :   0.2023 B(  0-C , 13-H ) :   0.1718 B(  1-C ,  2-N ) :   1.0122 
B(  1-C ,  3-C ) :   1.4328 B(  1-C ,  7-H ) :  -0.1471 B(  1-C ,  9-H ) :   0.1310 
B(  1-C , 10-H ) :   0.1210 B(  2-N ,  3-C ) :   0.3266 B(  2-N ,  6-H ) :   1.1417 
B(  2-N ,  7-H ) :   1.3195 B(  3-C ,  4-H ) :   0.8880 B(  3-C ,  5-H ) :   0.9083 
B(  6-H ,  7-H ) :  -0.1555 B(  8-C , 11-H ) :   0.8404 B(  8-C , 12-H ) :   0.7993 
B(  8-C , 13-H ) :   0.7991 

-------
TIMINGS
-------

Total SCF time: 0 days 0 hours 0 min 10 sec 

Total time                  ....      10.082 sec
Sum of individual times     ....       9.908 sec  ( 98.3%)

Fock matrix formation       ....       9.161 sec  ( 90.9%)
  Split-RI-J                ....       1.108 sec  ( 12.1% of F)
  XC integration            ....       8.009 sec  ( 87.4% of F)
    Basis function eval.    ....       1.326 sec  ( 16.6% of XC)
    Density eval.           ....       2.504 sec  ( 31.3% of XC)
    XC-Functional eval.     ....       0.551 sec  (  6.9% of XC)
    XC-Potential eval.      ....       3.207 sec  ( 40.0% of XC)
Diagonalization             ....       0.054 sec  (  0.5%)
Density matrix formation    ....       0.004 sec  (  0.0%)
Population analysis         ....       0.007 sec  (  0.1%)
Initial guess               ....       0.127 sec  (  1.3%)
Orbital Transformation      ....       0.000 sec  (  0.0%)
Orbital Orthonormalization  ....       0.000 sec  (  0.0%)
DIIS solution               ....       0.035 sec  (  0.4%)
SOSCF solution              ....       0.046 sec  (  0.5%)
Grid generation             ....       0.473 sec  (  4.7%)

Maximum memory used throughout the entire SCF-calculation: 20.6 MB


-------------------------------------------------------------------------------
                          DFT DISPERSION CORRECTION                            
                                                                               
                              DFTD3 V3.1  Rev 1                                
                          USING Becke-Johnson damping                          
-------------------------------------------------------------------------------
The TPSS functional is recognized
Active option DFTDOPT                   ...         4   

molecular C6(AA) [au] = 1468.742494 


            DFT-D V3
 parameters
 s6 scaling factor         :     1.0000 
 a1 scaling factor         :     0.4535 
 s8 scaling factor         :     1.9435 
 a2 scaling factor         :     4.4752 
 ad hoc parameters k1-k3   :    16.0000     1.3333    -4.0000 

 Edisp/kcal,au: -8.085718191812  -0.012885410760 
 E6   /kcal   :  -4.223044873 
 E8   /kcal   :  -3.862673319 
 % E8         :  47.771555069 

-------------------------   ----------------
Dispersion correction           -0.012885411
-------------------------   ----------------


-------------------------   --------------------
FINAL SINGLE POINT ENERGY      -212.467976088458
-------------------------   --------------------


                            ***************************************
                            *     ORCA property calculations      *
                            ***************************************

                                    ---------------------
                                    Active property flags
                                    ---------------------
   (+) Dipole Moment


------------------------------------------------------------------------------
                       ORCA ELECTRIC PROPERTIES CALCULATION
------------------------------------------------------------------------------

Dipole Moment Calculation                       ... on
Quadrupole Moment Calculation                   ... off
Polarizability Calculation                      ... off
GBWName                                         ... SVPD_TPSS_C2_wt_dlpno_pos.gbw
Electron density file                           ... SVPD_TPSS_C2_wt_dlpno_pos.scfp
The origin for moment calculation is the CENTER OF MASS  = ( 8.808842, -4.780145 -11.439680)

-------------
DIPOLE MOMENT
-------------
                                X             Y             Z
Electronic contribution:     -2.82714       0.79944      -1.29001
Nuclear contribution   :      2.61570      -0.17401       1.22349
                        -----------------------------------------
Total Dipole Moment    :     -0.21144       0.62542      -0.06652
                        -----------------------------------------
Magnitude (a.u.)       :      0.66354
Magnitude (Debye)      :      1.68659



--------------------
Rotational spectrum 
--------------------
 
Rotational constants in cm-1:     0.298189     0.125314     0.096441 
Rotational constants in MHz :  8939.495008  3756.825352  2891.223400 

 Dipole components along the rotational axes: 
x,y,z [a.u.] :    -0.230095     0.617868    -0.074704 
x,y,z [Debye]:    -0.584854     1.570497    -0.189883 

 

Timings for individual modules:

Sum of individual times         ...       13.619 sec (=   0.227 min)
GTO integral calculation        ...        2.059 sec (=   0.034 min)  15.1 %
SCF iterations                  ...       11.560 sec (=   0.193 min)  84.9 %
                             ****ORCA TERMINATED NORMALLY****
TOTAL RUN TIME: 0 days 0 hours 0 minutes 14 seconds 115 msec
