
                                        *****************
                                        * O   R   C   A *
                                        *****************

                                            #,                                       
                                            ###                                      
                                            ####                                     
                                            #####                                    
                                            ######                                   
                                           ########,                                 
                                     ,,################,,,,,                         
                               ,,#################################,,                 
                          ,,##########################################,,             
                       ,#########################################, ''#####,          
                    ,#############################################,,   '####,        
                  ,##################################################,,,,####,       
                ,###########''''           ''''###############################       
              ,#####''   ,,,,##########,,,,          '''####'''          '####       
            ,##' ,,,,###########################,,,                        '##       
           ' ,,###''''                  '''############,,,                           
         ,,##''                                '''############,,,,        ,,,,,,###''
      ,#''                                            '''#######################'''  
     '                                                          ''''####''''         
             ,#######,   #######,   ,#######,      ##                                
            ,#'     '#,  ##    ##  ,#'     '#,    #''#        ######   ,####,        
            ##       ##  ##   ,#'  ##            #'  '#       #        #'  '#        
            ##       ##  #######   ##           ,######,      #####,   #    #        
            '#,     ,#'  ##    ##  '#,     ,#' ,#      #,         ##   #,  ,#        
             '#######'   ##     ##  '#######'  #'      '#     #####' # '####'        



                  #######################################################
                  #                        -***-                        #
                  #          Department of theory and spectroscopy      #
                  #    Directorship and core code : Frank Neese         #
                  #        Max Planck Institute fuer Kohlenforschung    #
                  #                Kaiser Wilhelm Platz 1               #
                  #                 D-45470 Muelheim/Ruhr               #
                  #                      Germany                        #
                  #                                                     #
                  #                  All rights reserved                #
                  #                        -***-                        #
                  #######################################################


                         Program Version 5.0.0 -  RELEASE  -
                                (SVN: $Rev: 19529$)
                ($Date: 2021-06-28 11:36:33 +0200 (Mo, 28 Jun 2021) $)


 With contributions from (in alphabetic order):
   Daniel Aravena         : Magnetic Suceptibility
   Michael Atanasov       : Ab Initio Ligand Field Theory (pilot matlab implementation)
   Alexander A. Auer      : GIAO ZORA, VPT2 properties, NMR spectrum
   Ute Becker             : Parallelization
   Giovanni Bistoni       : ED, misc. LED, open-shell LED, HFLD
   Martin Brehm           : Molecular dynamics
   Dmytro Bykov           : SCF Hessian
   Vijay G. Chilkuri      : MRCI spin determinant printing, contributions to CSF-ICE
   Dipayan Datta          : RHF DLPNO-CCSD density
   Achintya Kumar Dutta   : EOM-CC, STEOM-CC
   Dmitry Ganyushin       : Spin-Orbit,Spin-Spin,Magnetic field MRCI
   Miquel Garcia          : C-PCM Hessian, Gaussian charge scheme
   Yang Guo               : DLPNO-NEVPT2, F12-NEVPT2, CIM, IAO-localization
   Andreas Hansen         : Spin unrestricted coupled pair/coupled cluster methods
   Benjamin Helmich-Paris : MC-RPA, TRAH-SCF, COSX integrals
   Lee Huntington         : MR-EOM, pCC
   Robert Izsak           : Overlap fitted RIJCOSX, COSX-SCS-MP3, EOM
   Marcus Kettner         : VPT2
   Christian Kollmar      : KDIIS, OOCD, Brueckner-CCSD(T), CCSD density, CASPT2, CASPT2-K
   Simone Kossmann        : Meta GGA functionals, TD-DFT gradient, OOMP2, MP2 Hessian
   Martin Krupicka        : Initial AUTO-CI
   Lucas Lang             : DCDCAS
   Marvin Lechner         : AUTO-CI (C++ implementation), FIC-MRCC
   Dagmar Lenk            : GEPOL surface, SMD
   Dimitrios Liakos       : Extrapolation schemes; Compound Job, initial MDCI parallelization
   Dimitrios Manganas     : Further ROCIS development; embedding schemes
   Dimitrios Pantazis     : SARC Basis sets
   Anastasios Papadopoulos: AUTO-CI, single reference methods and gradients
   Taras Petrenko         : DFT Hessian,TD-DFT gradient, ASA, ECA, R-Raman, ABS, FL, XAS/XES, NRVS
   Peter Pinski           : DLPNO-MP2, DLPNO-MP2 Gradient
   Christoph Reimann      : Effective Core Potentials
   Marius Retegan         : Local ZFS, SOC
   Christoph Riplinger    : Optimizer, TS searches, QM/MM, DLPNO-CCSD(T), (RO)-DLPNO pert. Triples
   Tobias Risthaus        : Range-separated hybrids, TD-DFT gradient, RPA, STAB
   Michael Roemelt        : Original ROCIS implementation
   Masaaki Saitow         : Open-shell DLPNO-CCSD energy and density
   Barbara Sandhoefer     : DKH picture change effects
   Avijit Sen             : IP-ROCIS
   Kantharuban Sivalingam : CASSCF convergence, NEVPT2, FIC-MRCI
   Bernardo de Souza      : ESD, SOC TD-DFT
   Georgi Stoychev        : AutoAux, RI-MP2 NMR
   Willem Van den Heuvel  : Paramagnetic NMR
   Boris Wezisla          : Elementary symmetry handling
   Frank Wennmohs         : Technical directorship


 We gratefully acknowledge several colleagues who have allowed us to
 interface, adapt or use parts of their codes:
   Stefan Grimme, W. Hujo, H. Kruse, P. Pracht,  : VdW corrections, initial TS optimization,
                  C. Bannwarth, S. Ehlert          DFT functionals, gCP, sTDA/sTD-DF
   Ed Valeev, F. Pavosevic, A. Kumar             : LibInt (2-el integral package), F12 methods
   Garnet Chan, S. Sharma, J. Yang, R. Olivares  : DMRG
   Ulf Ekstrom                                   : XCFun DFT Library
   Mihaly Kallay                                 : mrcc  (arbitrary order and MRCC methods)
   Jiri Pittner, Ondrej Demel                    : Mk-CCSD
   Frank Weinhold                                : gennbo (NPA and NBO analysis)
   Christopher J. Cramer and Donald G. Truhlar   : smd solvation model
   Lars Goerigk                                  : TD-DFT with DH, B97 family of functionals
   V. Asgeirsson, H. Jonsson                     : NEB implementation
   FAccTs GmbH                                   : IRC, NEB, NEB-TS, DLPNO-Multilevel, CI-OPT
                                                   MM, QMMM, 2- and 3-layer-ONIOM, Crystal-QMMM,
                                                   LR-CPCM, SF, NACMEs, symmetry and pop. for TD-DFT,
                                                   nearIR, NL-DFT gradient (VV10), updates on ESD,
                                                   ML-optimized integration grids
   S Lehtola, MJT Oliveira, MAL Marques          : LibXC Library
   Liviu Ungur et al                             : ANISO software


 Your calculation uses the libint2 library for the computation of 2-el integrals
 For citations please refer to: http://libint.valeyev.net

 Your ORCA version has been built with support for libXC version: 5.1.0
 For citations please refer to: https://tddft.org/programs/libxc/

 This ORCA versions uses:
   CBLAS   interface :  Fast vector & matrix operations
   LAPACKE interface :  Fast linear algebra routines
   SCALAPACK package :  Parallel linear algebra routines
   Shared memory     :  Shared parallel matrices
   BLAS/LAPACK       :  OpenBLAS 0.3.15  USE64BITINT DYNAMIC_ARCH NO_AFFINITY Haswell SINGLE_THREADED
        Core in use  :  Haswell
   Copyright (c) 2011-2014, The OpenBLAS Project




***************************************
The coordinates will be read from file: D5.xyz
***************************************


Your calculation utilizes the atom-pairwise dispersion correction
with the zero-damping scheme (D30)
Cite in your paper:
S.Grimme, J.Antony, S.Ehrlich and H.Krieg, J.Chem.Phys., 132, (2010), 154104 
   

XCFun DFT library Copyright 2009-2010 Ulf Ekstrom and contributors.
See http://admol.org/xcfun for more information.
This is free software; see the source code for copying conditions.
There is ABSOLUTELY NO WARRANTY; not even for MERCHANTABILITY or FITNESS FOR A PARTICULAR PURPOSE.
For details see the documentation.
Scientific users of this library should cite U. Ekstrom, L. Visscher, R. Bast, A. J. Thorvaldsen and K. Ruud;
J.Chem.Theor.Comp. 2010, DOI: 10.1021/ct100117s
XCFun Version 0.99 

================================================================================

----- Orbital basis set information -----
Your calculation utilizes the basis: def2-TZVPD
   F. Weigend and R. Ahlrichs, Phys. Chem. Chem. Phys. 7, 3297 (2005).
   D. Rappoport and F. Furche, J. Chem. Phys. 133 134105 (2010).

----- AuxJ basis set information -----
Your calculation utilizes the auxiliary basis: def2/J
   F. Weigend, Phys. Chem. Chem. Phys. 8, 1057 (2006).

================================================================================
                                        WARNINGS
                       Please study these warnings very carefully!
================================================================================


WARNING: Minnesota functionals are quite sensitive to the integration grid.
         see SE Wheeler, KN Houk, JCTC 2010, 6, 395,
             N Mardirossian, M Head-Gordon, JCTC 2016, 12, 4303.
         DEFGRID3 seems to be a minimum grid for reliable results with these functionals!
  ===> : Please increase the integration grid!


INFO   : the flag for use of the SHARK integral package has been found!

================================================================================
                                       INPUT FILE
================================================================================
NAME = 28Oct_TZVPD_M062X_D5_wb97.com
|  1> !M062X D3Zero RIJCOSX def2-TZVPD def2/J TightSCF xyzfile                                                                                         
|  2> 
|  3> *xyzfile 0 1 D5.xyz
|  4> 
|  5> %MaxCore 64000
|  6> 
|  7> %pal nprocs 4                                                                                                                                                  
|  8> end  
|  9> 
| 10> %scf
| 11>   MaxIter 150
| 12> end
| 13> 
| 14> 
| 15>                          ****END OF INPUT****
================================================================================

                       ****************************
                       * Single Point Calculation *
                       ****************************

---------------------------------
CARTESIAN COORDINATES (ANGSTROEM)
---------------------------------
  C      2.234473   -2.989754   -2.397622
  N      2.756799   -2.945553   -3.765029
  C     -1.104325    0.251374   -2.860056
  C     -0.711893    0.842517   -4.218344
  H      0.154626    1.499800   -4.130909
  H     -1.538134    1.459222   -4.582671
  C     -0.397624   -0.205875   -5.288018
  C      1.987208   -2.590451   -4.818975
  C      0.743221   -3.017493   -4.913524
  N      2.499636   -1.848598   -5.803241
  H      3.309780   -1.292818   -5.558947
  H      1.801025   -1.304298   -6.289129
  H      3.716116   -2.628797   -3.829533
  H      0.395828   -3.627747   -4.185024
  H      0.039201   -2.454383   -5.371367
  O      0.617165   -0.005348   -5.998273
  F     -1.133173   -1.221380   -5.341465
  C      2.191199   -1.619503   -1.715492
  H      2.872783   -3.666368   -1.828014
  H      1.246188   -3.447444   -2.407842
  C      1.298729   -0.554314   -2.359773
  H      1.872917   -1.787955   -0.681310
  H      3.216809   -1.238432   -1.654428
  C     -0.196255   -0.863365   -2.325763
  H      1.612531   -0.371346   -3.393065
  H      1.480944    0.388638   -1.834444
  H     -0.404105   -1.761825   -2.909448
  H     -0.490439   -1.087880   -1.294131
  H     -1.143842    1.066711   -2.129680
  H     -2.114401   -0.156834   -2.930323

----------------------------
CARTESIAN COORDINATES (A.U.)
----------------------------
  NO LB      ZA    FRAG     MASS         X           Y           Z
   0 C     6.0000    0    12.011    4.222543   -5.649816   -4.530848
   1 N     7.0000    0    14.007    5.209595   -5.566289   -7.114873
   2 C     6.0000    0    12.011   -2.086873    0.475028   -5.404722
   3 C     6.0000    0    12.011   -1.345283    1.592127   -7.971516
   4 H     1.0000    0     1.008    0.292200    2.834211   -7.806286
   5 H     1.0000    0     1.008   -2.906652    2.757530   -8.659992
   6 C     6.0000    0    12.011   -0.751401   -0.389047   -9.992907
   7 C     6.0000    0    12.011    3.755279   -4.895244   -9.106543
   8 C     6.0000    0    12.011    1.404485   -5.702235   -9.285215
   9 N     7.0000    0    14.007    4.723627   -3.493344  -10.966537
  10 H     1.0000    0     1.008    6.254578   -2.443072  -10.504887
  11 H     1.0000    0     1.008    3.403445   -2.464767  -11.884731
  12 H     1.0000    0     1.008    7.022441   -4.967706   -7.236769
  13 H     1.0000    0     1.008    0.748006   -6.855448   -7.908548
  14 H     1.0000    0     1.008    0.074080   -4.638111  -10.150413
  15 O     8.0000    0    15.999    1.166273   -0.010106  -11.335093
  16 F     9.0000    0    18.998   -2.141387   -2.308074  -10.093907
  17 C     6.0000    0    12.011    4.140767   -3.060418   -3.241811
  18 H     1.0000    0     1.008    5.428773   -6.928432   -3.454445
  19 H     1.0000    0     1.008    2.354955   -6.514725   -4.550162
  20 C     6.0000    0    12.011    2.454243   -1.047501   -4.459324
  21 H     1.0000    0     1.008    3.539301   -3.378746   -1.287489
  22 H     1.0000    0     1.008    6.078888   -2.340297   -3.126415
  23 C     6.0000    0    12.011   -0.370868   -1.631524   -4.395056
  24 H     1.0000    0     1.008    3.047241   -0.701741   -6.411963
  25 H     1.0000    0     1.008    2.798579    0.734420   -3.466597
  26 H     1.0000    0     1.008   -0.763647   -3.329367   -5.498059
  27 H     1.0000    0     1.008   -0.926795   -2.055796   -2.445553
  28 H     1.0000    0     1.008   -2.161548    2.015792   -4.024513
  29 H     1.0000    0     1.008   -3.995640   -0.296373   -5.537508

--------------------------------
INTERNAL COORDINATES (ANGSTROEM)
--------------------------------
 C      0   0   0     0.000000000000     0.00000000     0.00000000
 N      1   0   0     1.464438225876     0.00000000     0.00000000
 C      1   2   0     4.676145129276    98.12927291     0.00000000
 C      3   1   2     1.532449663024    99.91462131   348.31309700
 H      4   3   1     1.091109561698   111.39025959   283.89265125
 H      4   3   1     1.093495439559   108.62484397   166.67912614
 C      4   3   1     1.530389765639   114.06976040    46.19796968
 C      2   1   3     1.352468525377   122.18202950   332.12698446
 C      8   2   1     1.318638167115   120.50800772   318.92382051
 N      8   2   1     1.334806580019   120.13920908   141.74971933
 H     10   8   2     1.012375870590   115.74621574   337.06348414
 H     10   8   2     1.010151241361   112.87083799   206.24146608
 H      2   1   3     1.012316375193   114.01286739   115.96418648
 H      9   8   2     1.011832723100   117.87797810   358.89717874
 H      9   8   2     1.011116910562   120.59529148   149.18306403
 O      7   4   3     1.254778981721   116.88713641   223.97730908
 F      7   4   3     1.255045716386   117.62699891    40.66785663
 C      1   2   3     1.531261091561   113.51716415   306.50017999
 H      1   2   3     1.090733497968   107.31452929   184.97158571
 H      1   2   3     1.089170204566   109.12058142    70.56520786
 C     18   1   2     1.531740549402   116.83240064    61.84859762
 H     18   1   2     1.095086016226   106.93324123   184.96028215
 H     18   1   2     1.095819174782   108.03263762   298.48283650
 C     21  18   1     1.526973371423   114.85536009    65.69540509
 H     21  18   1     1.095281264436   110.24604822   301.31032456
 H     21  18   1     1.094683112767   107.46873106   187.23902369
 H     24  21  18     1.091383863395   109.94769458   296.45428662
 H     24  21  18     1.096000392918   108.97875853    52.80812729
 H      3   1   2     1.095346916976   118.40828837   231.18872133
 H      3   1   2     1.091707330182   114.06755658   104.31710724

---------------------------
INTERNAL COORDINATES (A.U.)
---------------------------
 C      0   0   0     0.000000000000     0.00000000     0.00000000
 N      1   0   0     2.767387186951     0.00000000     0.00000000
 C      1   2   0     8.836633656801    98.12927291     0.00000000
 C      3   1   2     2.895910177136    99.91462131   348.31309700
 H      4   3   1     2.061898253712   111.39025959   283.89265125
 H      4   3   1     2.066406909459   108.62484397   166.67912614
 C      4   3   1     2.892017535214   114.06976040    46.19796968
 C      2   1   3     2.555795117711   122.18202950   332.12698446
 C      8   2   1     2.491865005583   120.50800772   318.92382051
 N      8   2   1     2.522418877992   120.13920908   141.74971933
 H     10   8   2     1.913113140005   115.74621574   337.06348414
 H     10   8   2     1.908909200014   112.87083799   206.24146608
 H      2   1   3     1.913000709999   114.01286739   115.96418648
 H      9   8   2     1.912086739998   117.87797810   358.89717874
 H      9   8   2     1.910734050338   120.59529148   149.18306403
 O      7   4   3     2.371188634054   116.88713641   223.97730908
 F      7   4   3     2.371692689521   117.62699891    40.66785663
 C      1   2   3     2.893664102580   113.51716415   306.50017999
 H      1   2   3     2.061187596254   107.31452929   184.97158571
 H      1   2   3     2.058233399856   109.12058142    70.56520786
 C     18   1   2     2.894570146592   116.83240064    61.84859762
 H     18   1   2     2.069412663755   106.93324123   184.96028215
 H     18   1   2     2.070798132638   108.03263762   298.48283650
 C     21  18   1     2.885561485780   114.85536009    65.69540509
 H     21  18   1     2.069781629399   110.24604822   301.31032456
 H     21  18   1     2.068651286558   107.46873106   187.23902369
 H     24  21  18     2.062416608797   109.94769458   296.45428662
 H     24  21  18     2.071140585285   108.97875853    52.80812729
 H      3   1   2     2.069905694719   118.40828837   231.18872133
 H      3   1   2     2.063027872438   114.06755658   104.31710724

---------------------
BASIS SET INFORMATION
---------------------
There are 5 groups of distinct atoms

 Group   1 Type C   : 12s6p3d1f contracted to 6s3p3d1f pattern {621111/411/111/1}
 Group   2 Type N   : 12s6p3d1f contracted to 6s3p3d1f pattern {621111/411/111/1}
 Group   3 Type H   : 5s2p contracted to 3s2p pattern {311/11}
 Group   4 Type O   : 12s7p3d1f contracted to 6s4p3d1f pattern {621111/4111/111/1}
 Group   5 Type F   : 12s7p3d1f contracted to 6s4p3d1f pattern {621111/4111/111/1}

Atom   0C    basis set group =>   1
Atom   1N    basis set group =>   2
Atom   2C    basis set group =>   1
Atom   3C    basis set group =>   1
Atom   4H    basis set group =>   3
Atom   5H    basis set group =>   3
Atom   6C    basis set group =>   1
Atom   7C    basis set group =>   1
Atom   8C    basis set group =>   1
Atom   9N    basis set group =>   2
Atom  10H    basis set group =>   3
Atom  11H    basis set group =>   3
Atom  12H    basis set group =>   3
Atom  13H    basis set group =>   3
Atom  14H    basis set group =>   3
Atom  15O    basis set group =>   4
Atom  16F    basis set group =>   5
Atom  17C    basis set group =>   1
Atom  18H    basis set group =>   3
Atom  19H    basis set group =>   3
Atom  20C    basis set group =>   1
Atom  21H    basis set group =>   3
Atom  22H    basis set group =>   3
Atom  23C    basis set group =>   1
Atom  24H    basis set group =>   3
Atom  25H    basis set group =>   3
Atom  26H    basis set group =>   3
Atom  27H    basis set group =>   3
Atom  28H    basis set group =>   3
Atom  29H    basis set group =>   3
---------------------------------
AUXILIARY/J BASIS SET INFORMATION
---------------------------------
There are 5 groups of distinct atoms

 Group   1 Type C   : 12s5p4d2f1g contracted to 6s4p3d1f1g pattern {711111/2111/211/2/1}
 Group   2 Type N   : 12s5p4d2f1g contracted to 6s4p3d1f1g pattern {711111/2111/211/2/1}
 Group   3 Type H   : 5s2p1d contracted to 3s1p1d pattern {311/2/1}
 Group   4 Type O   : 12s5p4d2f1g contracted to 6s4p3d1f1g pattern {711111/2111/211/2/1}
 Group   5 Type F   : 12s5p4d2f1g contracted to 6s4p3d1f1g pattern {711111/2111/211/2/1}

Atom   0C    basis set group =>   1
Atom   1N    basis set group =>   2
Atom   2C    basis set group =>   1
Atom   3C    basis set group =>   1
Atom   4H    basis set group =>   3
Atom   5H    basis set group =>   3
Atom   6C    basis set group =>   1
Atom   7C    basis set group =>   1
Atom   8C    basis set group =>   1
Atom   9N    basis set group =>   2
Atom  10H    basis set group =>   3
Atom  11H    basis set group =>   3
Atom  12H    basis set group =>   3
Atom  13H    basis set group =>   3
Atom  14H    basis set group =>   3
Atom  15O    basis set group =>   4
Atom  16F    basis set group =>   5
Atom  17C    basis set group =>   1
Atom  18H    basis set group =>   3
Atom  19H    basis set group =>   3
Atom  20C    basis set group =>   1
Atom  21H    basis set group =>   3
Atom  22H    basis set group =>   3
Atom  23C    basis set group =>   1
Atom  24H    basis set group =>   3
Atom  25H    basis set group =>   3
Atom  26H    basis set group =>   3
Atom  27H    basis set group =>   3
Atom  28H    basis set group =>   3
Atom  29H    basis set group =>   3


           ************************************************************
           *        Program running with 4 parallel MPI-processes     *
           *              working on a common directory               *
           ************************************************************
------------------------------------------------------------------------------
                           ORCA GTO INTEGRAL CALCULATION
                           -- RI-GTO INTEGRALS CHOSEN --
------------------------------------------------------------------------------
------------------------------------------------------------------------------
                   ___                                                        
                  /   \      - P O W E R E D   B Y -                         
                 /     \                                                     
                 |  |  |   _    _      __       _____    __    __             
                 |  |  |  | |  | |    /  \     |  _  \  |  |  /  |          
                  \  \/   | |  | |   /    \    | | | |  |  | /  /          
                 / \  \   | |__| |  /  /\  \   | |_| |  |  |/  /          
                |  |  |   |  __  | /  /__\  \  |    /   |      \           
                |  |  |   | |  | | |   __   |  |    \   |  |\   \          
                \     /   | |  | | |  |  |  |  | |\  \  |  | \   \       
                 \___/    |_|  |_| |__|  |__|  |_| \__\ |__|  \__/        
                                                                              
                      - O R C A' S   B I G   F R I E N D -                    
                                      &                                       
                       - I N T E G R A L  F E E D E R -                       
                                                                              
 v1 FN, 2020, v2 2021                                                         
------------------------------------------------------------------------------


Reading SHARK input file 28Oct_TZVPD_M062X_D5_wb97.SHARKINP.tmp ... ok
----------------------
SHARK INTEGRAL PACKAGE
----------------------

Number of atoms                             ...     30
Number of basis functions                   ...    640
Number of shells                            ...    256
Maximum angular momentum                    ...      3
Integral batch strategy                     ... SHARK/LIBINT Hybrid
RI-J (if used) integral strategy            ... SPLIT-RIJ (Revised 2003 algorithm where possible)
Printlevel                                  ...      1
Contraction scheme used                     ... SEGMENTED contraction
Coulomb Range Separation                    ... NOT USED
Exchange Range Separation                   ... NOT USED
Finite Nucleus Model                        ... NOT USED
Auxiliary Coulomb fitting basis             ... AVAILABLE
   # of basis functions in Aux-J            ...    824
   # of shells in Aux-J                     ...    280
   Maximum angular momentum in Aux-J        ...      4
Auxiliary J/K fitting basis                 ... NOT available
Auxiliary Correlation fitting basis         ... NOT available
Auxiliary 'external' fitting basis          ... NOT available
Integral threshold                          ...     2.500000e-11
Primitive cut-off                           ...     2.500000e-12
Primitive pair pre-selection threshold      ...     2.500000e-12

Calculating pre-screening integrals         ... done (  0.2 sec) Dimension = 256
Organizing shell pair data                  ... done (  0.3 sec)
Shell pair information
Total number of shell pairs                 ...     32896
Shell pairs after pre-screening             ...     29900
Total number of primitive shell pairs       ...     83365
Primitive shell pairs kept                  ...     57867
          la=0 lb=0:   7307 shell pairs
          la=1 lb=0:   8873 shell pairs
          la=1 lb=1:   2707 shell pairs
          la=2 lb=0:   4617 shell pairs
          la=2 lb=1:   2781 shell pairs
          la=2 lb=2:    745 shell pairs
          la=3 lb=0:   1418 shell pairs
          la=3 lb=1:    899 shell pairs
          la=3 lb=2:    472 shell pairs
          la=3 lb=3:     81 shell pairs

Calculating one electron integrals          ... done (  0.1 sec)
Calculating RI/J V-Matrix + Cholesky decomp.... done (  0.1 sec)
Calculating Nuclear repulsion               ... done (  0.0 sec) ENN=    907.329727904902 Eh

SHARK setup successfully completed in   0.7 seconds

Maximum memory used throughout the entire GTOINT-calculation: 43.3 MB


           ************************************************************
           *        Program running with 4 parallel MPI-processes     *
           *              working on a common directory               *
           ************************************************************
-------------------------------------------------------------------------------
                                 ORCA SCF
-------------------------------------------------------------------------------

------------
SCF SETTINGS
------------
Hamiltonian:
 Density Functional     Method          .... DFT(GTOs)
 Exchange Functional    Exchange        .... M062X
 Correlation Functional Correlation     .... M062X
 Gradients option       PostSCFGGA      .... off
 Hybrid DFT is turned on
   Fraction HF Exchange ScalHFX         ....  0.540000
   Scaling of DF-GGA-X  ScalDFX         ....  0.460000
   Scaling of DF-GGA-C  ScalDFC         ....  1.000000
   Scaling of DF-LDA-C  ScalLDAC        ....  1.000000
   Perturbative correction              ....  0.000000
   Density functional embedding theory  .... OFF
 RI-approximation to the Coulomb term is turned on
   Number of AuxJ basis functions       .... 824
   RIJ-COSX (HFX calculated with COS-X)).... on


General Settings:
 Integral files         IntName         .... 28Oct_TZVPD_M062X_D5_wb97
 Hartree-Fock type      HFTyp           .... RHF
 Total Charge           Charge          ....    0
 Multiplicity           Mult            ....    1
 Number of Electrons    NEL             ....  102
 Basis Dimension        Dim             ....  640
 Nuclear Repulsion      ENuc            ....    907.3297279049 Eh

Convergence Acceleration:
 DIIS                   CNVDIIS         .... on
   Start iteration      DIISMaxIt       ....    12
   Startup error        DIISStart       ....  0.200000
   # of expansion vecs  DIISMaxEq       ....     5
   Bias factor          DIISBfac        ....   1.050
   Max. coefficient     DIISMaxC        ....  10.000
 Trust-Rad. Augm. Hess. CNVTRAH         .... auto
   Auto Start mean grad. ratio tolernc. ....  1.125000
   Auto Start start iteration           ....    20
   Auto Start num. interpolation iter.  ....    10
   Max. Number of Micro iterations      ....    16
   Max. Number of Macro iterations      .... Maxiter - #DIIS iter
   Number of Davidson start vectors     ....     2
   Converg. threshold I  (grad. norm)   ....   1.000e-05
   Converg. threshold II (energy diff.) ....   1.000e-08
   Grad. Scal. Fac. for Micro threshold ....   0.100
   Minimum threshold for Micro iter.    ....   0.010
   NR start threshold (gradient norm)   ....   0.001
   Initial trust radius                 ....   0.400
   Minimum AH scaling param. (alpha)    ....   1.000
   Maximum AH scaling param. (alpha)    .... 1000.000
   Orbital update algorithm             .... Taylor
   White noise on init. David. guess    .... on
   Maximum white noise                  ....   0.010
   Quad. conv. algorithm                .... NR
 SOSCF                  CNVSOSCF        .... on
   Start iteration      SOSCFMaxIt      ....   150
   Startup grad/error   SOSCFStart      ....  0.003300
 Level Shifting         CNVShift        .... on
   Level shift para.    LevelShift      ....    0.2500
   Turn off err/grad.   ShiftErr        ....    0.0010
 Zerner damping         CNVZerner       .... off
 Static damping         CNVDamp         .... on
   Fraction old density DampFac         ....    0.7000
   Max. Damping (<1)    DampMax         ....    0.9800
   Min. Damping (>=0)   DampMin         ....    0.0000
   Turn off err/grad.   DampErr         ....    0.1000
 Fernandez-Rico         CNVRico         .... off

SCF Procedure:
 Maximum # iterations   MaxIter         ....   150
 SCF integral mode      SCFMode         .... Direct
   Integral package                     .... SHARK and LIBINT hybrid scheme
 Reset frequency        DirectResetFreq ....    20
 Integral Threshold     Thresh          ....  2.500e-11 Eh
 Primitive CutOff       TCut            ....  2.500e-12 Eh

Convergence Tolerance:
 Convergence Check Mode ConvCheckMode   .... Total+1el-Energy
 Convergence forced     ConvForced      .... 0
 Energy Change          TolE            ....  1.000e-08 Eh
 1-El. energy change                    ....  1.000e-05 Eh
 Orbital Gradient       TolG            ....  1.000e-05
 Orbital Rotation angle TolX            ....  1.000e-05
 DIIS Error             TolErr          ....  5.000e-07


Diagonalization of the overlap matrix:
Smallest eigenvalue                        ... 1.716e-06
Time for diagonalization                   ...    0.114 sec
Threshold for overlap eigenvalues          ... 1.000e-08
Number of eigenvalues below threshold      ... 0
Time for construction of square roots      ...    0.106 sec
Total time needed                          ...    0.223 sec

Time for model grid setup =    0.384 sec

------------------------------
INITIAL GUESS: MODEL POTENTIAL
------------------------------
Loading Hartree-Fock densities                     ... done
Calculating cut-offs                               ... done
Initializing the effective Hamiltonian             ... done
Setting up the integral package (SHARK)            ... done
Starting the Coulomb interaction                   ... done (   0.7 sec)
Reading the grid                                   ... done
Mapping shells                                     ... done
Starting the XC term evaluation                    ... done (   0.9 sec)
  promolecular density results
     # of electrons  =    101.994381564
     EX              =    -82.415883790
     EC              =     -3.429258777
     EX+EC           =    -85.845142567
Transforming the Hamiltonian                       ... done (   0.1 sec)
Diagonalizing the Hamiltonian                      ... done (   0.1 sec)
Back transforming the eigenvectors                 ... done (   0.0 sec)
Now organizing SCF variables                       ... done
                      ------------------
                      INITIAL GUESS DONE (   2.2 sec)
                      ------------------
-------------------
DFT GRID GENERATION
-------------------

General Integration Accuracy     IntAcc      ... 4.388
Radial Grid Type                 RadialGrid  ... OptM3 with GC (2021)
Angular Grid (max. ang.)         AngularGrid ... 4 (Lebedev-302)
Angular grid pruning method      GridPruning ... 4 (adaptive)
Weight generation scheme         WeightScheme... Becke
Basis function cutoff            BFCut       ... 1.0000e-11
Integration weight cutoff        WCut        ... 1.0000e-14
Angular grids for H and He will be reduced by one unit
Partially contracted basis set               ... off
Rotationally invariant grid construction     ... off

Total number of grid points                  ...   137106
Total number of batches                      ...     2158
Average number of points per batch           ...       63
Average number of grid points per atom       ...     4570
Time for grid setup =    1.436 sec

--------------------
COSX GRID GENERATION
--------------------

GRIDX 1
-------
General Integration Accuracy     IntAcc      ... 3.816
Radial Grid Type                 RadialGrid  ... OptM3 with GC (2021)
Angular Grid (max. ang.)         AngularGrid ... 1 (Lebedev-50)
Angular grid pruning method      GridPruning ... 4 (adaptive)
Weight generation scheme         WeightScheme... Becke
Basis function cutoff            BFCut       ... 1.0000e-11
Integration weight cutoff        WCut        ... 1.0000e-14
Angular grids for H and He will be reduced by one unit
Partially contracted basis set               ... on
Rotationally invariant grid construction     ... off

Total number of grid points                  ...    17137
Total number of batches                      ...      285
Average number of points per batch           ...       60
Average number of grid points per atom       ...      571
UseSFitting                                  ... on

GRIDX 2
-------
General Integration Accuracy     IntAcc      ... 4.020
Radial Grid Type                 RadialGrid  ... OptM3 with GC (2021)
Angular Grid (max. ang.)         AngularGrid ... 2 (Lebedev-110)
Angular grid pruning method      GridPruning ... 4 (adaptive)
Weight generation scheme         WeightScheme... Becke
Basis function cutoff            BFCut       ... 1.0000e-11
Integration weight cutoff        WCut        ... 1.0000e-14
Angular grids for H and He will be reduced by one unit
Partially contracted basis set               ... on
Rotationally invariant grid construction     ... off

Total number of grid points                  ...    39675
Total number of batches                      ...      636
Average number of points per batch           ...       62
Average number of grid points per atom       ...     1322
UseSFitting                                  ... on

GRIDX 3
-------
General Integration Accuracy     IntAcc      ... 4.338
Radial Grid Type                 RadialGrid  ... OptM3 with GC (2021)
Angular Grid (max. ang.)         AngularGrid ... 3 (Lebedev-194)
Angular grid pruning method      GridPruning ... 4 (adaptive)
Weight generation scheme         WeightScheme... Becke
Basis function cutoff            BFCut       ... 1.0000e-11
Integration weight cutoff        WCut        ... 1.0000e-14
Angular grids for H and He will be reduced by one unit
Partially contracted basis set               ... on
Rotationally invariant grid construction     ... off

Total number of grid points                  ...    88014
Total number of batches                      ...     1389
Average number of points per batch           ...       63
Average number of grid points per atom       ...     2934
UseSFitting                                  ... on

Time for X-Grid setup             =    2.584 sec

--------------
SCF ITERATIONS
--------------
ITER       Energy         Delta-E        Max-DP      RMS-DP      [F,P]     Damp
               ***  Starting incremental Fock matrix formation  ***
  0   -637.1362943150   0.000000000000 1.43762699  0.00470782  0.2636098 0.7000
  1   -637.3758781500  -0.239583834940 0.82622438  0.00355106  0.1396410 0.7000
                               ***Turning on DIIS***
  2   -637.4836864350  -0.107808285040 0.88022184  0.00625028  0.0629963 0.0000
  3   -637.6487004863  -0.165014051254 0.85157547  0.00303999  0.0691037 0.0000
  4   -637.6832355672  -0.034535080966 0.17144496  0.00086144  0.0130029 0.0000
  5   -637.6842486075  -0.001013040231 0.08561845  0.00033623  0.0132247 0.0000
                      *** Initiating the SOSCF procedure ***
                           *** Shutting down DIIS ***
                      *** Re-Reading the Fockian *** 
                      *** Removing any level shift *** 
ITER      Energy       Delta-E        Grad      Rot      Max-DP    RMS-DP
  6   -637.68452062  -0.0002720168  0.000457  0.000457  0.097660  0.000395
               *** Restarting incremental Fock matrix formation ***
  7   -637.68454215  -0.0000215244  0.000071  0.000206  0.034440  0.000190
  8   -637.68454346  -0.0000013072  0.000165  0.000284  0.016197  0.000057
  9   -637.68454551  -0.0000020527  0.000025  0.000042  0.002384  0.000022
 10   -637.68454552  -0.0000000082  0.000049  0.000051  0.000562  0.000004
 11   -637.68454559  -0.0000000685  0.000007  0.000020  0.001148  0.000004
                 **** Energy Check signals convergence ****
              ***Rediagonalizing the Fockian in SOSCF/NRSCF***

               *****************************************************
               *                     SUCCESS                       *
               *           SCF CONVERGED AFTER  12 CYCLES          *
               *****************************************************

Old exchange energy                            =    -45.590079789 Eh
New exchange energy                            =    -45.590095499 Eh
Exchange energy change after final integration =     -0.000015711 Eh
Total energy after final integration           =   -637.684561300 Eh
Final COS-X integration done in                =    47.008 sec

----------------
TOTAL SCF ENERGY
----------------

Total Energy       :         -637.68456130 Eh          -17352.27909 eV

Components:
Nuclear Repulsion  :          907.32972790 Eh           24689.69710 eV
Electronic Energy  :        -1545.01428921 Eh          -42041.97618 eV
One Electron Energy:        -2669.05340819 Eh          -72628.63561 eV
Two Electron Energy:         1124.03911899 Eh           30586.65942 eV
Max COSX asymmetry :            0.00000685 Eh               0.00019 eV

Virial components:
Potential Energy   :        -1272.96419260 Eh          -34639.11670 eV
Kinetic Energy     :          635.27963130 Eh           17286.83761 eV
Virial Ratio       :            2.00378562


DFT components:
N(Alpha)           :       50.999917705837 electrons
N(Beta)            :       50.999917705837 electrons
N(Total)           :      101.999835411675 electrons
E(XC)              :      -42.508405794494 Eh       
DFET-embed. en.    :        0.000000000000 Eh       

---------------
SCF CONVERGENCE
---------------

  Last Energy change         ...   -4.2328e-09  Tolerance :   1.0000e-08
  Last MAX-Density change    ...    1.3323e-15  Tolerance :   1.0000e-07
  Last RMS-Density change    ...    1.3628e-17  Tolerance :   5.0000e-09
  Last Orbital Gradient      ...    5.9528e-06  Tolerance :   1.0000e-05
  Last Orbital Rotation      ...    7.6479e-06  Tolerance :   1.0000e-05

             **** THE GBW FILE WAS UPDATED (28Oct_TZVPD_M062X_D5_wb97.gbw) ****
             **** DENSITY 28Oct_TZVPD_M062X_D5_wb97.scfp WAS UPDATED ****
             **** ENERGY FILE WAS UPDATED (28Oct_TZVPD_M062X_D5_wb97.en.tmp) ****
             **** THE GBW FILE WAS UPDATED (28Oct_TZVPD_M062X_D5_wb97.gbw) ****
             **** DENSITY 28Oct_TZVPD_M062X_D5_wb97.scfp WAS UPDATED ****
----------------
ORBITAL ENERGIES
----------------

  NO   OCC          E(Eh)            E(eV) 
   0   2.0000     -25.323196      -689.0792 
   1   2.0000     -19.649555      -534.6916 
   2   2.0000     -14.741091      -401.1255 
   3   2.0000     -14.720721      -400.5712 
   4   2.0000     -10.734270      -292.0943 
   5   2.0000     -10.572327      -287.6876 
   6   2.0000     -10.571242      -287.6581 
   7   2.0000     -10.565272      -287.4957 
   8   2.0000     -10.553317      -287.1704 
   9   2.0000     -10.536471      -286.7120 
  10   2.0000     -10.536140      -286.7030 
  11   2.0000     -10.535753      -286.6924 
  12   2.0000     -10.439610      -284.0762 
  13   2.0000      -1.477698       -40.2102 
  14   2.0000      -1.176122       -32.0039 
  15   2.0000      -1.066514       -29.0213 
  16   2.0000      -0.980091       -26.6696 
  17   2.0000      -0.929199       -25.2848 
  18   2.0000      -0.884631       -24.0720 
  19   2.0000      -0.831957       -22.6387 
  20   2.0000      -0.801650       -21.8140 
  21   2.0000      -0.783294       -21.3145 
  22   2.0000      -0.756652       -20.5895 
  23   2.0000      -0.705723       -19.2037 
  24   2.0000      -0.675046       -18.3689 
  25   2.0000      -0.662047       -18.0152 
  26   2.0000      -0.649029       -17.6610 
  27   2.0000      -0.625135       -17.0108 
  28   2.0000      -0.604028       -16.4364 
  29   2.0000      -0.598686       -16.2911 
  30   2.0000      -0.563544       -15.3348 
  31   2.0000      -0.554935       -15.1005 
  32   2.0000      -0.546096       -14.8600 
  33   2.0000      -0.522426       -14.2159 
  34   2.0000      -0.514746       -14.0069 
  35   2.0000      -0.495846       -13.4926 
  36   2.0000      -0.481626       -13.1057 
  37   2.0000      -0.477449       -12.9920 
  38   2.0000      -0.462600       -12.5880 
  39   2.0000      -0.459782       -12.5113 
  40   2.0000      -0.443708       -12.0739 
  41   2.0000      -0.436069       -11.8660 
  42   2.0000      -0.423711       -11.5298 
  43   2.0000      -0.421587       -11.4720 
  44   2.0000      -0.411122       -11.1872 
  45   2.0000      -0.394585       -10.7372 
  46   2.0000      -0.390087       -10.6148 
  47   2.0000      -0.380791       -10.3618 
  48   2.0000      -0.372995       -10.1497 
  49   2.0000      -0.302708        -8.2371 
  50   2.0000      -0.220606        -6.0030 
  51   0.0000      -0.000941        -0.0256 
  52   0.0000       0.007668         0.2087 
  53   0.0000       0.017960         0.4887 
  54   0.0000       0.021268         0.5787 
  55   0.0000       0.030221         0.8223 
  56   0.0000       0.042042         1.1440 
  57   0.0000       0.045037         1.2255 
  58   0.0000       0.047142         1.2828 
  59   0.0000       0.055647         1.5142 
  60   0.0000       0.063078         1.7164 
  61   0.0000       0.073671         2.0047 
  62   0.0000       0.077125         2.0987 
  63   0.0000       0.082019         2.2319 
  64   0.0000       0.089934         2.4472 
  65   0.0000       0.092318         2.5121 
  66   0.0000       0.103658         2.8207 
  67   0.0000       0.105478         2.8702 
  68   0.0000       0.115056         3.1308 
  69   0.0000       0.119724         3.2579 
  70   0.0000       0.122435         3.3316 
  71   0.0000       0.126392         3.4393 
  72   0.0000       0.131308         3.5731 
  73   0.0000       0.136648         3.7184 
  74   0.0000       0.146093         3.9754 
  75   0.0000       0.148283         4.0350 
  76   0.0000       0.156420         4.2564 
  77   0.0000       0.162830         4.4308 
  78   0.0000       0.165497         4.5034 
  79   0.0000       0.172587         4.6963 
  80   0.0000       0.174869         4.7584 
  81   0.0000       0.182182         4.9574 
  82   0.0000       0.184852         5.0301 
  83   0.0000       0.185977         5.0607 
  84   0.0000       0.195322         5.3150 
  85   0.0000       0.196051         5.3348 
  86   0.0000       0.200756         5.4629 
  87   0.0000       0.208785         5.6813 
  88   0.0000       0.214061         5.8249 
  89   0.0000       0.219076         5.9614 
  90   0.0000       0.221899         6.0382 
  91   0.0000       0.225698         6.1416 
  92   0.0000       0.228535         6.2187 
  93   0.0000       0.229360         6.2412 
  94   0.0000       0.235279         6.4023 
  95   0.0000       0.238065         6.4781 
  96   0.0000       0.240893         6.5550 
  97   0.0000       0.244413         6.6508 
  98   0.0000       0.250394         6.8136 
  99   0.0000       0.254225         6.9178 
 100   0.0000       0.256706         6.9853 
 101   0.0000       0.261667         7.1203 
 102   0.0000       0.265029         7.2118 
 103   0.0000       0.266706         7.2574 
 104   0.0000       0.271619         7.3911 
 105   0.0000       0.273991         7.4557 
 106   0.0000       0.279193         7.5972 
 107   0.0000       0.282399         7.6845 
 108   0.0000       0.285179         7.7601 
 109   0.0000       0.290412         7.9025 
 110   0.0000       0.292527         7.9601 
 111   0.0000       0.294179         8.0050 
 112   0.0000       0.300427         8.1750 
 113   0.0000       0.304310         8.2807 
 114   0.0000       0.308076         8.3832 
 115   0.0000       0.309865         8.4319 
 116   0.0000       0.313990         8.5441 
 117   0.0000       0.317760         8.6467 
 118   0.0000       0.322860         8.7855 
 119   0.0000       0.326295         8.8790 
 120   0.0000       0.328842         8.9483 
 121   0.0000       0.333016         9.0618 
 122   0.0000       0.335316         9.1244 
 123   0.0000       0.338211         9.2032 
 124   0.0000       0.341866         9.3026 
 125   0.0000       0.343767         9.3544 
 126   0.0000       0.351425         9.5628 
 127   0.0000       0.354773         9.6539 
 128   0.0000       0.358694         9.7605 
 129   0.0000       0.362701         9.8696 
 130   0.0000       0.364508         9.9188 
 131   0.0000       0.368353        10.0234 
 132   0.0000       0.372552        10.1376 
 133   0.0000       0.374999        10.2042 
 134   0.0000       0.380382        10.3507 
 135   0.0000       0.384040        10.4503 
 136   0.0000       0.388058        10.5596 
 137   0.0000       0.390115        10.6156 
 138   0.0000       0.395353        10.7581 
 139   0.0000       0.402478        10.9520 
 140   0.0000       0.405148        11.0246 
 141   0.0000       0.406957        11.0739 
 142   0.0000       0.408453        11.1146 
 143   0.0000       0.412790        11.2326 
 144   0.0000       0.421915        11.4809 
 145   0.0000       0.424224        11.5437 
 146   0.0000       0.428350        11.6560 
 147   0.0000       0.429806        11.6956 
 148   0.0000       0.435822        11.8593 
 149   0.0000       0.440093        11.9755 
 150   0.0000       0.442605        12.0439 
 151   0.0000       0.443540        12.0693 
 152   0.0000       0.448260        12.1978 
 153   0.0000       0.453426        12.3384 
 154   0.0000       0.459608        12.5066 
 155   0.0000       0.460795        12.5389 
 156   0.0000       0.464485        12.6393 
 157   0.0000       0.471697        12.8355 
 158   0.0000       0.474673        12.9165 
 159   0.0000       0.476098        12.9553 
 160   0.0000       0.479158        13.0385 
 161   0.0000       0.485448        13.2097 
 162   0.0000       0.488228        13.2854 
 163   0.0000       0.499475        13.5914 
 164   0.0000       0.500459        13.6182 
 165   0.0000       0.504521        13.7287 
 166   0.0000       0.508474        13.8363 
 167   0.0000       0.510749        13.8982 
 168   0.0000       0.512767        13.9531 
 169   0.0000       0.515056        14.0154 
 170   0.0000       0.518038        14.0965 
 171   0.0000       0.522469        14.2171 
 172   0.0000       0.525643        14.3035 
 173   0.0000       0.528559        14.3828 
 174   0.0000       0.534684        14.5495 
 175   0.0000       0.542265        14.7558 
 176   0.0000       0.543737        14.7958 
 177   0.0000       0.550206        14.9719 
 178   0.0000       0.560349        15.2479 
 179   0.0000       0.563866        15.3436 
 180   0.0000       0.567913        15.4537 
 181   0.0000       0.575353        15.6562 
 182   0.0000       0.578303        15.7364 
 183   0.0000       0.582538        15.8517 
 184   0.0000       0.585763        15.9394 
 185   0.0000       0.589468        16.0402 
 186   0.0000       0.593408        16.1475 
 187   0.0000       0.597789        16.2667 
 188   0.0000       0.604352        16.4452 
 189   0.0000       0.607271        16.5247 
 190   0.0000       0.613362        16.6904 
 191   0.0000       0.615881        16.7590 
 192   0.0000       0.617365        16.7994 
 193   0.0000       0.620703        16.8902 
 194   0.0000       0.627711        17.0809 
 195   0.0000       0.637295        17.3417 
 196   0.0000       0.641806        17.4644 
 197   0.0000       0.643406        17.5080 
 198   0.0000       0.647338        17.6150 
 199   0.0000       0.652341        17.7511 
 200   0.0000       0.658587        17.9211 
 201   0.0000       0.660128        17.9630 
 202   0.0000       0.661666        18.0049 
 203   0.0000       0.675308        18.3761 
 204   0.0000       0.676866        18.4185 
 205   0.0000       0.680983        18.5305 
 206   0.0000       0.685334        18.6489 
 207   0.0000       0.692034        18.8312 
 208   0.0000       0.694134        18.8884 
 209   0.0000       0.702634        19.1196 
 210   0.0000       0.707712        19.2578 
 211   0.0000       0.708932        19.2910 
 212   0.0000       0.710082        19.3223 
 213   0.0000       0.716032        19.4842 
 214   0.0000       0.718832        19.5604 
 215   0.0000       0.721985        19.6462 
 216   0.0000       0.724316        19.7096 
 217   0.0000       0.730773        19.8853 
 218   0.0000       0.733210        19.9516 
 219   0.0000       0.739922        20.1343 
 220   0.0000       0.744151        20.2494 
 221   0.0000       0.749553        20.3964 
 222   0.0000       0.751322        20.4445 
 223   0.0000       0.755287        20.5524 
 224   0.0000       0.760636        20.6980 
 225   0.0000       0.772849        21.0303 
 226   0.0000       0.775900        21.1133 
 227   0.0000       0.780223        21.2310 
 228   0.0000       0.782854        21.3025 
 229   0.0000       0.791829        21.5468 
 230   0.0000       0.798026        21.7154 
 231   0.0000       0.801452        21.8086 
 232   0.0000       0.806487        21.9456 
 233   0.0000       0.808230        21.9930 
 234   0.0000       0.812009        22.0959 
 235   0.0000       0.820438        22.3252 
 236   0.0000       0.825286        22.4572 
 237   0.0000       0.830783        22.6068 
 238   0.0000       0.831502        22.6263 
 239   0.0000       0.836631        22.7659 
 240   0.0000       0.842832        22.9346 
 241   0.0000       0.848858        23.0986 
 242   0.0000       0.853230        23.2176 
 243   0.0000       0.862029        23.4570 
 244   0.0000       0.873034        23.7565 
 245   0.0000       0.875932        23.8353 
 246   0.0000       0.881162        23.9776 
 247   0.0000       0.888012        24.1640 
 248   0.0000       0.893464        24.3124 
 249   0.0000       0.899476        24.4760 
 250   0.0000       0.901876        24.5413 
 251   0.0000       0.912178        24.8216 
 252   0.0000       0.921530        25.0761 
 253   0.0000       0.924584        25.1592 
 254   0.0000       0.928822        25.2745 
 255   0.0000       0.934537        25.4300 
 256   0.0000       0.949979        25.8502 
 257   0.0000       0.951801        25.8998 
 258   0.0000       0.963414        26.2158 
 259   0.0000       0.973884        26.5007 
 260   0.0000       0.979322        26.6487 
 261   0.0000       0.981931        26.7197 
 262   0.0000       0.990881        26.9632 
 263   0.0000       0.995922        27.1004 
 264   0.0000       1.004137        27.3240 
 265   0.0000       1.008387        27.4396 
 266   0.0000       1.015911        27.6443 
 267   0.0000       1.025685        27.9103 
 268   0.0000       1.028934        27.9987 
 269   0.0000       1.039890        28.2969 
 270   0.0000       1.045502        28.4496 
 271   0.0000       1.052165        28.6309 
 272   0.0000       1.063725        28.9454 
 273   0.0000       1.070099        29.1189 
 274   0.0000       1.076995        29.3065 
 275   0.0000       1.085572        29.5399 
 276   0.0000       1.093960        29.7682 
 277   0.0000       1.095828        29.8190 
 278   0.0000       1.109982        30.2041 
 279   0.0000       1.123427        30.5700 
 280   0.0000       1.127551        30.6822 
 281   0.0000       1.141455        31.0606 
 282   0.0000       1.146534        31.1988 
 283   0.0000       1.166181        31.7334 
 284   0.0000       1.174411        31.9573 
 285   0.0000       1.187233        32.3063 
 286   0.0000       1.194527        32.5047 
 287   0.0000       1.201239        32.6874 
 288   0.0000       1.218536        33.1581 
 289   0.0000       1.224787        33.3282 
 290   0.0000       1.226852        33.3843 
 291   0.0000       1.240128        33.7456 
 292   0.0000       1.259061        34.2608 
 293   0.0000       1.262678        34.3592 
 294   0.0000       1.269203        34.5368 
 295   0.0000       1.275198        34.6999 
 296   0.0000       1.278178        34.7810 
 297   0.0000       1.299151        35.3517 
 298   0.0000       1.306834        35.5608 
 299   0.0000       1.314214        35.7616 
 300   0.0000       1.326962        36.1085 
 301   0.0000       1.344614        36.5888 
 302   0.0000       1.359209        36.9859 
 303   0.0000       1.372640        37.3514 
 304   0.0000       1.376728        37.4627 
 305   0.0000       1.383331        37.6423 
 306   0.0000       1.388251        37.7762 
 307   0.0000       1.394709        37.9520 
 308   0.0000       1.420704        38.6593 
 309   0.0000       1.429113        38.8881 
 310   0.0000       1.435621        39.0652 
 311   0.0000       1.443000        39.2660 
 312   0.0000       1.452741        39.5311 
 313   0.0000       1.455383        39.6030 
 314   0.0000       1.471849        40.0511 
 315   0.0000       1.479792        40.2672 
 316   0.0000       1.481021        40.3006 
 317   0.0000       1.514416        41.2094 
 318   0.0000       1.518804        41.3288 
 319   0.0000       1.533592        41.7312 
 320   0.0000       1.540072        41.9075 
 321   0.0000       1.541462        41.9453 
 322   0.0000       1.553257        42.2663 
 323   0.0000       1.566361        42.6229 
 324   0.0000       1.584746        43.1231 
 325   0.0000       1.596616        43.4461 
 326   0.0000       1.599538        43.5257 
 327   0.0000       1.632033        44.4099 
 328   0.0000       1.634590        44.4795 
 329   0.0000       1.645932        44.7881 
 330   0.0000       1.665795        45.3286 
 331   0.0000       1.692805        46.0636 
 332   0.0000       1.705650        46.4131 
 333   0.0000       1.708620        46.4939 
 334   0.0000       1.742475        47.4152 
 335   0.0000       1.803628        49.0792 
 336   0.0000       1.830852        49.8200 
 337   0.0000       1.836196        49.9654 
 338   0.0000       1.855725        50.4968 
 339   0.0000       1.862843        50.6905 
 340   0.0000       1.868719        50.8504 
 341   0.0000       1.874549        51.0091 
 342   0.0000       1.885509        51.3073 
 343   0.0000       1.889595        51.4185 
 344   0.0000       1.897026        51.6207 
 345   0.0000       1.906439        51.8769 
 346   0.0000       1.915553        52.1249 
 347   0.0000       1.919336        52.2278 
 348   0.0000       1.921314        52.2816 
 349   0.0000       1.929990        52.5177 
 350   0.0000       1.933648        52.6172 
 351   0.0000       1.940410        52.8013 
 352   0.0000       1.955823        53.2206 
 353   0.0000       1.963883        53.4400 
 354   0.0000       1.978024        53.8248 
 355   0.0000       1.981851        53.9289 
 356   0.0000       1.988986        54.1231 
 357   0.0000       1.993066        54.2341 
 358   0.0000       1.995532        54.3012 
 359   0.0000       2.006048        54.5873 
 360   0.0000       2.019226        54.9459 
 361   0.0000       2.032785        55.3149 
 362   0.0000       2.047061        55.7034 
 363   0.0000       2.052502        55.8514 
 364   0.0000       2.070122        56.3309 
 365   0.0000       2.077749        56.5384 
 366   0.0000       2.086237        56.7694 
 367   0.0000       2.093594        56.9696 
 368   0.0000       2.102734        57.2183 
 369   0.0000       2.116994        57.6063 
 370   0.0000       2.128285        57.9136 
 371   0.0000       2.150572        58.5200 
 372   0.0000       2.153164        58.5906 
 373   0.0000       2.163686        58.8769 
 374   0.0000       2.181446        59.3602 
 375   0.0000       2.189434        59.5775 
 376   0.0000       2.194979        59.7284 
 377   0.0000       2.215094        60.2758 
 378   0.0000       2.218435        60.3667 
 379   0.0000       2.236033        60.8455 
 380   0.0000       2.243844        61.0581 
 381   0.0000       2.260501        61.5114 
 382   0.0000       2.264499        61.6201 
 383   0.0000       2.285299        62.1861 
 384   0.0000       2.297946        62.5303 
 385   0.0000       2.305967        62.7486 
 386   0.0000       2.314137        62.9709 
 387   0.0000       2.326807        63.3156 
 388   0.0000       2.334179        63.5162 
 389   0.0000       2.346024        63.8386 
 390   0.0000       2.367501        64.4230 
 391   0.0000       2.369590        64.4798 
 392   0.0000       2.385252        64.9060 
 393   0.0000       2.400646        65.3249 
 394   0.0000       2.406944        65.4963 
 395   0.0000       2.418267        65.8044 
 396   0.0000       2.436383        66.2973 
 397   0.0000       2.450434        66.6797 
 398   0.0000       2.459660        66.9307 
 399   0.0000       2.467206        67.1361 
 400   0.0000       2.475848        67.3712 
 401   0.0000       2.506260        68.1988 
 402   0.0000       2.515443        68.4487 
 403   0.0000       2.522939        68.6527 
 404   0.0000       2.531733        68.8920 
 405   0.0000       2.544772        69.2468 
 406   0.0000       2.557060        69.5811 
 407   0.0000       2.574199        70.0475 
 408   0.0000       2.586439        70.3806 
 409   0.0000       2.600943        70.7753 
 410   0.0000       2.613031        71.1042 
 411   0.0000       2.623161        71.3799 
 412   0.0000       2.629626        71.5558 
 413   0.0000       2.641195        71.8706 
 414   0.0000       2.656114        72.2765 
 415   0.0000       2.663942        72.4895 
 416   0.0000       2.679384        72.9097 
 417   0.0000       2.680872        72.9502 
 418   0.0000       2.684910        73.0601 
 419   0.0000       2.692308        73.2614 
 420   0.0000       2.714480        73.8648 
 421   0.0000       2.722785        74.0907 
 422   0.0000       2.726560        74.1935 
 423   0.0000       2.738722        74.5244 
 424   0.0000       2.744019        74.6685 
 425   0.0000       2.756292        75.0025 
 426   0.0000       2.762791        75.1794 
 427   0.0000       2.783576        75.7450 
 428   0.0000       2.786238        75.8174 
 429   0.0000       2.796818        76.1053 
 430   0.0000       2.806772        76.3762 
 431   0.0000       2.807562        76.3977 
 432   0.0000       2.821809        76.7853 
 433   0.0000       2.826036        76.9004 
 434   0.0000       2.845139        77.4202 
 435   0.0000       2.856545        77.7306 
 436   0.0000       2.861498        77.8653 
 437   0.0000       2.873285        78.1861 
 438   0.0000       2.879476        78.3545 
 439   0.0000       2.892556        78.7105 
 440   0.0000       2.899175        78.8906 
 441   0.0000       2.915121        79.3245 
 442   0.0000       2.926203        79.6260 
 443   0.0000       2.937385        79.9303 
 444   0.0000       2.948119        80.2224 
 445   0.0000       2.957125        80.4675 
 446   0.0000       2.969111        80.7936 
 447   0.0000       2.984238        81.2053 
 448   0.0000       2.985726        81.2457 
 449   0.0000       2.993654        81.4615 
 450   0.0000       3.018353        82.1336 
 451   0.0000       3.030522        82.4647 
 452   0.0000       3.040545        82.7374 
 453   0.0000       3.058550        83.2274 
 454   0.0000       3.072153        83.5975 
 455   0.0000       3.083712        83.9121 
 456   0.0000       3.097866        84.2972 
 457   0.0000       3.103123        84.4403 
 458   0.0000       3.124263        85.0155 
 459   0.0000       3.135466        85.3204 
 460   0.0000       3.149296        85.6967 
 461   0.0000       3.151189        85.7482 
 462   0.0000       3.176860        86.4468 
 463   0.0000       3.201011        87.1039 
 464   0.0000       3.213890        87.4544 
 465   0.0000       3.216256        87.5188 
 466   0.0000       3.225076        87.7588 
 467   0.0000       3.243430        88.2582 
 468   0.0000       3.269841        88.9769 
 469   0.0000       3.281635        89.2978 
 470   0.0000       3.289820        89.5205 
 471   0.0000       3.296863        89.7122 
 472   0.0000       3.308365        90.0252 
 473   0.0000       3.317262        90.2673 
 474   0.0000       3.330678        90.6324 
 475   0.0000       3.339169        90.8634 
 476   0.0000       3.353206        91.2454 
 477   0.0000       3.353850        91.2629 
 478   0.0000       3.355886        91.3183 
 479   0.0000       3.376916        91.8905 
 480   0.0000       3.380792        91.9960 
 481   0.0000       3.389256        92.2263 
 482   0.0000       3.399041        92.4926 
 483   0.0000       3.406133        92.6856 
 484   0.0000       3.413676        92.8909 
 485   0.0000       3.417656        92.9992 
 486   0.0000       3.427451        93.2657 
 487   0.0000       3.431089        93.3647 
 488   0.0000       3.444365        93.7259 
 489   0.0000       3.448640        93.8423 
 490   0.0000       3.464358        94.2700 
 491   0.0000       3.468628        94.3862 
 492   0.0000       3.484927        94.8297 
 493   0.0000       3.492013        95.0225 
 494   0.0000       3.496959        95.1571 
 495   0.0000       3.506062        95.4048 
 496   0.0000       3.524089        95.8953 
 497   0.0000       3.535347        96.2017 
 498   0.0000       3.537936        96.2721 
 499   0.0000       3.546374        96.5018 
 500   0.0000       3.550225        96.6065 
 501   0.0000       3.576722        97.3276 
 502   0.0000       3.586855        97.6033 
 503   0.0000       3.591611        97.7327 
 504   0.0000       3.603265        98.0498 
 505   0.0000       3.611352        98.2699 
 506   0.0000       3.621062        98.5341 
 507   0.0000       3.625720        98.6608 
 508   0.0000       3.630126        98.7808 
 509   0.0000       3.646515        99.2267 
 510   0.0000       3.658383        99.5497 
 511   0.0000       3.670021        99.8663 
 512   0.0000       3.676954       100.0550 
 513   0.0000       3.689883       100.4068 
 514   0.0000       3.701047       100.7106 
 515   0.0000       3.708826       100.9223 
 516   0.0000       3.719090       101.2016 
 517   0.0000       3.725959       101.3885 
 518   0.0000       3.752327       102.1060 
 519   0.0000       3.758614       102.2771 
 520   0.0000       3.787864       103.0730 
 521   0.0000       3.793823       103.2352 
 522   0.0000       3.818284       103.9008 
 523   0.0000       3.829759       104.2130 
 524   0.0000       3.859799       105.0305 
 525   0.0000       3.890145       105.8562 
 526   0.0000       3.919283       106.6491 
 527   0.0000       3.936344       107.1134 
 528   0.0000       3.945896       107.3733 
 529   0.0000       3.971710       108.0757 
 530   0.0000       3.977497       108.2332 
 531   0.0000       4.004865       108.9779 
 532   0.0000       4.011607       109.1614 
 533   0.0000       4.022982       109.4709 
 534   0.0000       4.025180       109.5307 
 535   0.0000       4.057827       110.4191 
 536   0.0000       4.066072       110.6435 
 537   0.0000       4.089018       111.2678 
 538   0.0000       4.106337       111.7391 
 539   0.0000       4.115613       111.9915 
 540   0.0000       4.121629       112.1552 
 541   0.0000       4.141552       112.6974 
 542   0.0000       4.148668       112.8910 
 543   0.0000       4.169059       113.4459 
 544   0.0000       4.174227       113.5865 
 545   0.0000       4.227987       115.0494 
 546   0.0000       4.237388       115.3052 
 547   0.0000       4.248222       115.6000 
 548   0.0000       4.271527       116.2342 
 549   0.0000       4.317391       117.4822 
 550   0.0000       4.332783       117.9010 
 551   0.0000       4.356275       118.5403 
 552   0.0000       4.383733       119.2874 
 553   0.0000       4.398655       119.6935 
 554   0.0000       4.446768       121.0027 
 555   0.0000       4.457388       121.2917 
 556   0.0000       4.473966       121.7428 
 557   0.0000       4.478356       121.8623 
 558   0.0000       4.488517       122.1388 
 559   0.0000       4.537016       123.4585 
 560   0.0000       4.553401       123.9043 
 561   0.0000       4.578827       124.5962 
 562   0.0000       4.627855       125.9303 
 563   0.0000       4.633556       126.0855 
 564   0.0000       4.650063       126.5346 
 565   0.0000       4.651143       126.5640 
 566   0.0000       4.672329       127.1405 
 567   0.0000       4.695622       127.7744 
 568   0.0000       4.733475       128.8044 
 569   0.0000       4.768999       129.7711 
 570   0.0000       4.783479       130.1651 
 571   0.0000       4.797102       130.5358 
 572   0.0000       4.813288       130.9762 
 573   0.0000       4.848010       131.9211 
 574   0.0000       4.872312       132.5824 
 575   0.0000       4.907961       133.5524 
 576   0.0000       4.933651       134.2515 
 577   0.0000       4.950002       134.6964 
 578   0.0000       4.978453       135.4706 
 579   0.0000       4.996612       135.9647 
 580   0.0000       5.017958       136.5456 
 581   0.0000       5.033841       136.9778 
 582   0.0000       5.059100       137.6651 
 583   0.0000       5.097375       138.7066 
 584   0.0000       5.125272       139.4657 
 585   0.0000       5.158169       140.3609 
 586   0.0000       5.173927       140.7897 
 587   0.0000       5.192600       141.2978 
 588   0.0000       5.219616       142.0330 
 589   0.0000       5.260506       143.1457 
 590   0.0000       5.269934       143.4022 
 591   0.0000       5.321180       144.7967 
 592   0.0000       5.339122       145.2849 
 593   0.0000       5.380016       146.3977 
 594   0.0000       5.420196       147.4910 
 595   0.0000       5.478408       149.0751 
 596   0.0000       5.526527       150.3844 
 597   0.0000       5.540911       150.7759 
 598   0.0000       5.568183       151.5180 
 599   0.0000       5.598479       152.3424 
 600   0.0000       5.630544       153.2149 
 601   0.0000       5.737704       156.1309 
 602   0.0000       5.781044       157.3102 
 603   0.0000       5.847332       159.1140 
 604   0.0000       5.996863       163.1829 
 605   0.0000       6.006845       163.4546 
 606   0.0000       6.035481       164.2338 
 607   0.0000       6.181107       168.1965 
 608   0.0000       6.212213       169.0429 
 609   0.0000       6.285757       171.0441 
 610   0.0000       6.594892       179.4561 
 611   0.0000       6.624757       180.2688 
 612   0.0000       6.843841       186.2304 
 613   0.0000       6.882997       187.2959 
 614   0.0000       6.921506       188.3438 
 615   0.0000       6.942235       188.9078 
 616   0.0000       7.112202       193.5329 
 617   0.0000       7.150262       194.5685 
 618   0.0000       7.239054       196.9847 
 619   0.0000       7.430669       202.1988 
 620   0.0000       7.578844       206.2308 
 621   0.0000       7.833071       213.1487 
 622   0.0000       8.621677       234.6078 
 623   0.0000       8.638965       235.0782 
 624   0.0000       8.890376       241.9194 
 625   0.0000       9.037910       245.9340 
 626   0.0000       9.272162       252.3084 
 627   0.0000      22.803403       620.5121 
 628   0.0000      22.860978       622.0788 
 629   0.0000      22.869958       622.3232 
 630   0.0000      22.924247       623.8005 
 631   0.0000      22.965722       624.9291 
 632   0.0000      23.034870       626.8107 
 633   0.0000      23.159824       630.2108 
 634   0.0000      23.583026       641.7267 
 635   0.0000      23.702206       644.9698 
 636   0.0000      32.770156       891.7213 
 637   0.0000      33.010801       898.2696 
 638   0.0000      44.555906      1212.4279 
 639   0.0000      58.090775      1580.7304 

                    ********************************
                    * MULLIKEN POPULATION ANALYSIS *
                    ********************************

-----------------------
MULLIKEN ATOMIC CHARGES
-----------------------
   0 C :   -0.846087
   1 N :   -0.415738
   2 C :   -0.953189
   3 C :   -0.659447
   4 H :    0.319881
   5 H :    0.411583
   6 C :    0.863480
   7 C :    0.523291
   8 C :   -1.230507
   9 N :   -0.793334
  10 H :    0.265389
  11 H :    0.408493
  12 H :    0.333487
  13 H :    0.523650
  14 H :    0.467094
  15 O :   -0.717403
  16 F :   -0.314693
  17 C :   -0.745412
  18 H :    0.342501
  19 H :    0.284999
  20 C :   -0.419122
  21 H :    0.387654
  22 H :    0.341185
  23 C :   -0.233784
  24 H :    0.160029
  25 H :    0.450219
  26 H :    0.071195
  27 H :    0.442730
  28 H :    0.382416
  29 H :    0.349439
Sum of atomic charges:   -0.0000000

--------------------------------
MULLIKEN REDUCED ORBITAL CHARGES
--------------------------------
  0 C s       :     3.631250  s :     3.631250
      pz      :     0.847985  p :     3.137718
      px      :     1.202166
      py      :     1.087567
      dz2     :     0.013765  d :     0.069799
      dxz     :     0.039472
      dyz     :     0.045288
      dx2y2   :    -0.009908
      dxy     :    -0.018817
      f0      :     0.001176  f :     0.007318
      f+1     :     0.000912
      f-1     :     0.002200
      f+2     :     0.000651
      f-2     :     0.001172
      f+3     :     0.000571
      f-3     :     0.000638
  1 N s       :     3.656161  s :     3.656161
      pz      :     0.985686  p :     3.703255
      px      :     1.074285
      py      :     1.643284
      dz2     :     0.020956  d :     0.052512
      dxz     :     0.009436
      dyz     :     0.004490
      dx2y2   :     0.001638
      dxy     :     0.015993
      f0      :     0.000811  f :     0.003809
      f+1     :     0.000645
      f-1     :     0.000579
      f+2     :     0.000572
      f-2     :     0.000300
      f+3     :     0.000366
      f-3     :     0.000537
  2 C s       :     3.505230  s :     3.505230
      pz      :     1.060492  p :     3.482159
      px      :     1.256545
      py      :     1.165122
      dz2     :    -0.042235  d :    -0.039197
      dxz     :    -0.024515
      dyz     :     0.012291
      dx2y2   :     0.020525
      dxy     :    -0.005263
      f0      :     0.000750  f :     0.004996
      f+1     :     0.000756
      f-1     :     0.000968
      f+2     :     0.000637
      f-2     :     0.000644
      f+3     :     0.000411
      f-3     :     0.000830
  3 C s       :     3.409507  s :     3.409507
      pz      :     0.969222  p :     3.226973
      px      :     1.313755
      py      :     0.943996
      dz2     :    -0.012628  d :     0.018189
      dxz     :     0.006042
      dyz     :     0.003318
      dx2y2   :    -0.025182
      dxy     :     0.046640
      f0      :     0.000929  f :     0.004778
      f+1     :     0.000584
      f-1     :     0.000882
      f+2     :     0.000918
      f-2     :     0.000713
      f+3     :     0.000185
      f-3     :     0.000567
  4 H s       :     0.628371  s :     0.628371
      pz      :     0.011771  p :     0.051748
      px      :     0.026160
      py      :     0.013818
  5 H s       :     0.553371  s :     0.553371
      pz      :     0.012600  p :     0.035046
      px      :     0.019838
      py      :     0.002608
  6 C s       :     3.133999  s :     3.133999
      pz      :     0.672758  p :     1.719111
      px      :     0.529780
      py      :     0.516573
      dz2     :     0.070539  d :     0.255490
      dxz     :     0.040279
      dyz     :     0.057077
      dx2y2   :     0.062503
      dxy     :     0.025092
      f0      :     0.003546  f :     0.027920
      f+1     :     0.003965
      f-1     :     0.001403
      f+2     :     0.002245
      f-2     :     0.006220
      f+3     :     0.003254
      f-3     :     0.007288
  7 C s       :     3.074056  s :     3.074056
      pz      :     0.611628  p :     2.034181
      px      :     0.607194
      py      :     0.815359
      dz2     :     0.043296  d :     0.352043
      dxz     :     0.220309
      dyz     :     0.067856
      dx2y2   :    -0.049721
      dxy     :     0.070302
      f0      :     0.002966  f :     0.016430
      f+1     :     0.001750
      f-1     :     0.002372
      f+2     :     0.003402
      f-2     :     0.002576
      f+3     :     0.001861
      f-3     :     0.001502
  8 C s       :     3.621946  s :     3.621946
      pz      :     1.442865  p :     3.506426
      px      :     0.806876
      py      :     1.256685
      dz2     :    -0.000840  d :     0.097338
      dxz     :     0.067411
      dyz     :    -0.006474
      dx2y2   :     0.007816
      dxy     :     0.029425
      f0      :     0.000640  f :     0.004797
      f+1     :     0.000250
      f-1     :     0.000587
      f+2     :     0.000730
      f-2     :     0.000857
      f+3     :     0.000970
      f-3     :     0.000762
  9 N s       :     3.824480  s :     3.824480
      pz      :     1.344822  p :     3.942948
      px      :     1.229941
      py      :     1.368184
      dz2     :     0.002329  d :     0.023035
      dxz     :     0.000936
      dyz     :     0.009870
      dx2y2   :     0.003727
      dxy     :     0.006173
      f0      :     0.000479  f :     0.002871
      f+1     :     0.000090
      f-1     :     0.000573
      f+2     :     0.000482
      f-2     :     0.000721
      f+3     :     0.000101
      f-3     :     0.000423
 10 H s       :     0.693056  s :     0.693056
      pz      :     0.003997  p :     0.041555
      px      :     0.020392
      py      :     0.017166
 11 H s       :     0.596352  s :     0.596352
      pz      :     0.020798  p :    -0.004846
      px      :    -0.007089
      py      :    -0.018554
 12 H s       :     0.652438  s :     0.652438
      pz      :    -0.001709  p :     0.014075
      px      :     0.010686
      py      :     0.005098
 13 H s       :     0.450696  s :     0.450696
      pz      :     0.047915  p :     0.025654
      px      :     0.017139
      py      :    -0.039400
 14 H s       :     0.681873  s :     0.681873
      pz      :    -0.034851  p :    -0.148967
      px      :    -0.030747
      py      :    -0.083368
 15 O s       :     4.099707  s :     4.099707
      pz      :     1.486818  p :     4.589137
      px      :     1.354597
      py      :     1.747722
      dz2     :     0.004500  d :     0.026654
      dxz     :     0.006144
      dyz     :     0.005550
      dx2y2   :     0.007746
      dxy     :     0.002714
      f0      :     0.000174  f :     0.001906
      f+1     :     0.000449
      f-1     :     0.000074
      f+2     :     0.000389
      f-2     :     0.000302
      f+3     :     0.000277
      f-3     :     0.000241
 16 F s       :     4.054486  s :     4.054486
      pz      :     1.900277  p :     5.239268
      px      :     1.737249
      py      :     1.601742
      dz2     :     0.003529  d :     0.019973
      dxz     :     0.003487
      dyz     :     0.003404
      dx2y2   :     0.003154
      dxy     :     0.006399
      f0      :     0.000089  f :     0.000966
      f+1     :     0.000082
      f-1     :     0.000135
      f+2     :     0.000016
      f-2     :     0.000124
      f+3     :     0.000298
      f-3     :     0.000222
 17 C s       :     3.406296  s :     3.406296
      pz      :     1.149211  p :     3.360569
      px      :     1.285248
      py      :     0.926110
      dz2     :     0.014653  d :    -0.026450
      dxz     :    -0.026003
      dyz     :     0.011472
      dx2y2   :     0.002758
      dxy     :    -0.029330
      f0      :     0.000420  f :     0.004997
      f+1     :     0.000521
      f-1     :     0.001039
      f+2     :     0.000615
      f-2     :     0.000642
      f+3     :     0.000883
      f-3     :     0.000877
 18 H s       :     0.580813  s :     0.580813
      pz      :     0.025528  p :     0.076686
      px      :     0.025886
      py      :     0.025272
 19 H s       :     0.694750  s :     0.694750
      pz      :     0.009911  p :     0.020251
      px      :     0.008932
      py      :     0.001408
 20 C s       :     3.316646  s :     3.316646
      pz      :     1.212862  p :     3.137479
      px      :     0.865767
      py      :     1.058850
      dz2     :     0.000325  d :    -0.040123
      dxz     :    -0.019216
      dyz     :     0.037132
      dx2y2   :    -0.002908
      dxy     :    -0.055456
      f0      :     0.000736  f :     0.005119
      f+1     :     0.000599
      f-1     :     0.000484
      f+2     :     0.000857
      f-2     :     0.000471
      f+3     :     0.000890
      f-3     :     0.001082
 21 H s       :     0.559777  s :     0.559777
      pz      :     0.027255  p :     0.052569
      px      :     0.008811
      py      :     0.016503
 22 H s       :     0.601452  s :     0.601452
      pz      :     0.013406  p :     0.057363
      px      :     0.026654
      py      :     0.017304
 23 C s       :     3.272723  s :     3.272723
      pz      :     1.235727  p :     3.052717
      px      :     0.833593
      py      :     0.983398
      dz2     :     0.047400  d :    -0.096720
      dxz     :    -0.085125
      dyz     :    -0.027417
      dx2y2   :    -0.003749
      dxy     :    -0.027829
      f0      :     0.000709  f :     0.005063
      f+1     :     0.000521
      f-1     :     0.000457
      f+2     :     0.000824
      f-2     :     0.000488
      f+3     :     0.000973
      f-3     :     0.001091
 24 H s       :     0.860366  s :     0.860366
      pz      :     0.015608  p :    -0.020395
      px      :    -0.011675
      py      :    -0.024328
 25 H s       :     0.515152  s :     0.515152
      pz      :     0.014897  p :     0.034629
      px      :     0.002271
      py      :     0.017461
 26 H s       :     0.831462  s :     0.831462
      pz      :     0.054713  p :     0.097342
      px      :     0.018575
      py      :     0.024054
 27 H s       :     0.522553  s :     0.522553
      pz      :     0.024773  p :     0.034717
      px      :     0.004538
      py      :     0.005407
 28 H s       :     0.562490  s :     0.562490
      pz      :     0.023170  p :     0.055094
      px      :     0.007243
      py      :     0.024681
 29 H s       :     0.594759  s :     0.594759
      pz      :     0.015862  p :     0.055802
      px      :     0.025852
      py      :     0.014088


                     *******************************
                     * LOEWDIN POPULATION ANALYSIS *
                     *******************************

----------------------
LOEWDIN ATOMIC CHARGES
----------------------
   0 C :   -0.191907
   1 N :    0.024071
   2 C :   -0.196670
   3 C :   -0.092080
   4 H :    0.124887
   5 H :    0.127656
   6 C :   -0.449424
   7 C :   -0.557378
   8 C :    0.019981
   9 N :    0.118006
  10 H :    0.103819
  11 H :    0.064543
  12 H :    0.132618
  13 H :    0.026293
  14 H :    0.000403
  15 O :    0.060236
  16 F :    0.175784
  17 C :   -0.187805
  18 H :    0.114952
  19 H :    0.105761
  20 C :   -0.204804
  21 H :    0.112614
  22 H :    0.110281
  23 C :   -0.208463
  24 H :    0.102150
  25 H :    0.119107
  26 H :    0.094300
  27 H :    0.120767
  28 H :    0.116877
  29 H :    0.113427

-------------------------------
LOEWDIN REDUCED ORBITAL CHARGES
-------------------------------
  0 C s       :     2.663408  s :     2.663408
      pz      :     0.818857  p :     2.667342
      px      :     0.920519
      py      :     0.927966
      dz2     :     0.178976  d :     0.806903
      dxz     :     0.140737
      dyz     :     0.235771
      dx2y2   :     0.096339
      dxy     :     0.155079
      f0      :     0.009518  f :     0.054253
      f+1     :     0.008761
      f-1     :     0.012990
      f+2     :     0.005564
      f-2     :     0.008693
      f+3     :     0.003953
      f-3     :     0.004775
  1 N s       :     2.853403  s :     2.853403
      pz      :     1.071414  p :     3.457719
      px      :     1.056760
      py      :     1.329546
      dz2     :     0.199204  d :     0.648724
      dxz     :     0.162347
      dyz     :     0.138761
      dx2y2   :     0.079704
      dxy     :     0.068709
      f0      :     0.003321  f :     0.016083
      f+1     :     0.002885
      f-1     :     0.002841
      f+2     :     0.002692
      f-2     :     0.002176
      f+3     :     0.000732
      f-3     :     0.001437
  2 C s       :     2.668973  s :     2.668973
      pz      :     0.901879  p :     2.757226
      px      :     0.927360
      py      :     0.927987
      dz2     :     0.151768  d :     0.731524
      dxz     :     0.106482
      dyz     :     0.209332
      dx2y2   :     0.150432
      dxy     :     0.113510
      f0      :     0.005541  f :     0.038948
      f+1     :     0.006878
      f-1     :     0.006329
      f+2     :     0.005699
      f-2     :     0.004861
      f+3     :     0.003402
      f-3     :     0.006239
  3 C s       :     2.665688  s :     2.665688
      pz      :     0.895611  p :     2.730868
      px      :     0.938695
      py      :     0.896562
      dz2     :     0.170898  d :     0.658759
      dxz     :     0.131260
      dyz     :     0.166220
      dx2y2   :     0.054400
      dxy     :     0.135980
      f0      :     0.007062  f :     0.036765
      f+1     :     0.005293
      f-1     :     0.006158
      f+2     :     0.007370
      f-2     :     0.004821
      f+3     :     0.001692
      f-3     :     0.004370
  4 H s       :     0.663988  s :     0.663988
      pz      :     0.055782  p :     0.211125
      px      :     0.088999
      py      :     0.066343
  5 H s       :     0.673489  s :     0.673489
      pz      :     0.055286  p :     0.198855
      px      :     0.080192
      py      :     0.063377
  6 C s       :     2.627281  s :     2.627281
      pz      :     0.762518  p :     2.271634
      px      :     0.758347
      py      :     0.750769
      dz2     :     0.242534  d :     1.366308
      dxz     :     0.240098
      dyz     :     0.248142
      dx2y2   :     0.296303
      dxy     :     0.339232
      f0      :     0.021489  f :     0.184201
      f+1     :     0.023933
      f-1     :     0.013689
      f+2     :     0.018015
      f-2     :     0.034440
      f+3     :     0.028117
      f-3     :     0.044517
  7 C s       :     2.591330  s :     2.591330
      pz      :     0.810536  p :     2.506311
      px      :     0.945153
      py      :     0.750622
      dz2     :     0.268258  d :     1.342102
      dxz     :     0.354020
      dyz     :     0.226824
      dx2y2   :     0.226425
      dxy     :     0.266575
      f0      :     0.023484  f :     0.117635
      f+1     :     0.017258
      f-1     :     0.015136
      f+2     :     0.019813
      f-2     :     0.017058
      f+3     :     0.012894
      f-3     :     0.011991
  8 C s       :     2.692598  s :     2.692598
      pz      :     0.923935  p :     2.814075
      px      :     0.965004
      py      :     0.925137
      dz2     :     0.053900  d :     0.441177
      dxz     :     0.120434
      dyz     :     0.055621
      dx2y2   :     0.087783
      dxy     :     0.123439
      f0      :     0.003905  f :     0.032169
      f+1     :     0.003719
      f-1     :     0.002596
      f+2     :     0.004086
      f-2     :     0.004587
      f+3     :     0.006420
      f-3     :     0.006856
  9 N s       :     2.918950  s :     2.918950
      pz      :     1.239045  p :     3.544715
      px      :     1.111018
      py      :     1.194653
      dz2     :     0.095695  d :     0.405723
      dxz     :     0.076166
      dyz     :     0.069242
      dx2y2   :     0.047327
      dxy     :     0.117292
      f0      :     0.002872  f :     0.012606
      f+1     :     0.001147
      f-1     :     0.001971
      f+2     :     0.002107
      f-2     :     0.002162
      f+3     :     0.000678
      f-3     :     0.001668
 10 H s       :     0.630986  s :     0.630986
      pz      :     0.078245  p :     0.265195
      px      :     0.096180
      py      :     0.090770
 11 H s       :     0.581280  s :     0.581280
      pz      :     0.089403  p :     0.354177
      px      :     0.137788
      py      :     0.126986
 12 H s       :     0.610076  s :     0.610076
      pz      :     0.063011  p :     0.257307
      px      :     0.102699
      py      :     0.091597
 13 H s       :     0.705604  s :     0.705604
      pz      :     0.119611  p :     0.268103
      px      :     0.062414
      py      :     0.086078
 14 H s       :     0.664895  s :     0.664895
      pz      :     0.094941  p :     0.334703
      px      :     0.104963
      py      :     0.134798
 15 O s       :     3.336859  s :     3.336859
      pz      :     1.423495  p :     4.328061
      px      :     1.378618
      py      :     1.525948
      dz2     :     0.047488  d :     0.269567
      dxz     :     0.072163
      dyz     :     0.032507
      dx2y2   :     0.043073
      dxy     :     0.074336
      f0      :     0.000535  f :     0.005278
      f+1     :     0.001032
      f-1     :     0.000113
      f+2     :     0.001304
      f-2     :     0.000854
      f+3     :     0.000697
      f-3     :     0.000742
 16 F s       :     3.473872  s :     3.473872
      pz      :     1.741920  p :     5.070574
      px      :     1.689326
      py      :     1.639327
      dz2     :     0.036407  d :     0.277562
      dxz     :     0.028542
      dyz     :     0.049086
      dx2y2   :     0.065926
      dxy     :     0.097601
      f0      :     0.000238  f :     0.002208
      f+1     :     0.000173
      f-1     :     0.000244
      f+2     :     0.000046
      f-2     :     0.000344
      f+3     :     0.000613
      f-3     :     0.000550
 17 C s       :     2.678370  s :     2.678370
      pz      :     0.913110  p :     2.749088
      px      :     0.917829
      py      :     0.918149
      dz2     :     0.173097  d :     0.722051
      dxz     :     0.067587
      dyz     :     0.131705
      dx2y2   :     0.186037
      dxy     :     0.163624
      f0      :     0.003408  f :     0.038296
      f+1     :     0.004582
      f-1     :     0.006488
      f+2     :     0.005168
      f-2     :     0.005486
      f+3     :     0.006125
      f-3     :     0.007040
 18 H s       :     0.689822  s :     0.689822
      pz      :     0.058928  p :     0.195226
      px      :     0.068433
      py      :     0.067866
 19 H s       :     0.663243  s :     0.663243
      pz      :     0.066112  p :     0.230996
      px      :     0.103835
      py      :     0.061049
 20 C s       :     2.662914  s :     2.662914
      pz      :     0.916032  p :     2.736958
      px      :     0.911857
      py      :     0.909069
      dz2     :     0.129215  d :     0.765603
      dxz     :     0.151902
      dyz     :     0.122150
      dx2y2   :     0.196141
      dxy     :     0.166195
      f0      :     0.004954  f :     0.039329
      f+1     :     0.005048
      f-1     :     0.002961
      f+2     :     0.007292
      f-2     :     0.004606
      f+3     :     0.006199
      f-3     :     0.008269
 21 H s       :     0.680961  s :     0.680961
      pz      :     0.092662  p :     0.206425
      px      :     0.062632
      py      :     0.051132
 22 H s       :     0.686172  s :     0.686172
      pz      :     0.052619  p :     0.203547
      px      :     0.094510
      py      :     0.056418
 23 C s       :     2.663442  s :     2.663442
      pz      :     0.915450  p :     2.743783
      px      :     0.911236
      py      :     0.917097
      dz2     :     0.128652  d :     0.761955
      dxz     :     0.144910
      dyz     :     0.113647
      dx2y2   :     0.192625
      dxy     :     0.182120
      f0      :     0.005216  f :     0.039283
      f+1     :     0.004624
      f-1     :     0.002819
      f+2     :     0.006682
      f-2     :     0.004790
      f+3     :     0.006896
      f-3     :     0.008258
 24 H s       :     0.652887  s :     0.652887
      pz      :     0.116531  p :     0.244964
      px      :     0.062613
      py      :     0.065819
 25 H s       :     0.678910  s :     0.678910
      pz      :     0.062527  p :     0.201982
      px      :     0.052390
      py      :     0.087065
 26 H s       :     0.654218  s :     0.654218
      pz      :     0.093496  p :     0.251482
      px      :     0.060760
      py      :     0.097225
 27 H s       :     0.679141  s :     0.679141
      pz      :     0.093700  p :     0.200092
      px      :     0.053896
      py      :     0.052496
 28 H s       :     0.681536  s :     0.681536
      pz      :     0.071210  p :     0.201587
      px      :     0.052781
      py      :     0.077596
 29 H s       :     0.680808  s :     0.680808
      pz      :     0.053364  p :     0.205766
      px      :     0.092010
      py      :     0.060392


                      *****************************
                      * MAYER POPULATION ANALYSIS *
                      *****************************

  NA   - Mulliken gross atomic population
  ZA   - Total nuclear charge
  QA   - Mulliken gross atomic charge
  VA   - Mayer's total valence
  BVA  - Mayer's bonded valence
  FA   - Mayer's free valence

  ATOM       NA         ZA         QA         VA         BVA        FA
  0 C      6.8461     6.0000    -0.8461     3.4083     3.4083    -0.0000
  1 N      7.4157     7.0000    -0.4157     2.4238     2.4238     0.0000
  2 C      6.9532     6.0000    -0.9532     3.1639     3.1639    -0.0000
  3 C      6.6594     6.0000    -0.6594     3.2965     3.2965    -0.0000
  4 H      0.6801     1.0000     0.3199     0.9255     0.9255     0.0000
  5 H      0.5884     1.0000     0.4116     0.8367     0.8367     0.0000
  6 C      5.1365     6.0000     0.8635     3.2396     3.2396    -0.0000
  7 C      5.4767     6.0000     0.5233     3.0289     3.0289     0.0000
  8 C      7.2305     6.0000    -1.2305     3.1771     3.1771     0.0000
  9 N      7.7933     7.0000    -0.7933     2.3560     2.3560    -0.0000
 10 H      0.7346     1.0000     0.2654     0.9343     0.9343    -0.0000
 11 H      0.5915     1.0000     0.4085     0.7112     0.7112     0.0000
 12 H      0.6665     1.0000     0.3335     0.7954     0.7954     0.0000
 13 H      0.4763     1.0000     0.5237     0.9196     0.9196     0.0000
 14 H      0.5329     1.0000     0.4671     0.7007     0.7007    -0.0000
 15 O      8.7174     8.0000    -0.7174     1.4482     1.4482    -0.0000
 16 F      9.3147     9.0000    -0.3147     0.7668     0.7668    -0.0000
 17 C      6.7454     6.0000    -0.7454     3.0533     3.0533    -0.0000
 18 H      0.6575     1.0000     0.3425     0.9466     0.9466     0.0000
 19 H      0.7150     1.0000     0.2850     0.9396     0.9396    -0.0000
 20 C      6.4191     6.0000    -0.4191     3.0583     3.0583    -0.0000
 21 H      0.6123     1.0000     0.3877     0.8776     0.8776    -0.0000
 22 H      0.6588     1.0000     0.3412     0.9263     0.9263    -0.0000
 23 C      6.2338     6.0000    -0.2338     2.6301     2.6301    -0.0000
 24 H      0.8400     1.0000     0.1600     0.9954     0.9954    -0.0000
 25 H      0.5498     1.0000     0.4502     0.7140     0.7140     0.0000
 26 H      0.9288     1.0000     0.0712     1.1858     1.1858    -0.0000
 27 H      0.5573     1.0000     0.4427     0.7514     0.7514    -0.0000
 28 H      0.6176     1.0000     0.3824     0.9160     0.9160    -0.0000
 29 H      0.6506     1.0000     0.3494     0.9404     0.9404    -0.0000

  Mayer bond orders larger than 0.100000
B(  0-C ,  1-N ) :   0.7649 B(  0-C , 17-C ) :   0.5846 B(  0-C , 18-H ) :   0.9657 
B(  0-C , 19-H ) :   0.9699 B(  1-N ,  7-C ) :   0.7635 B(  1-N , 12-H ) :   0.8404 
B(  2-C ,  3-C ) :   0.5912 B(  2-C , 20-C ) :   0.1800 B(  2-C , 23-C ) :   0.5586 
B(  2-C , 28-H ) :   0.9524 B(  2-C , 29-H ) :   0.9675 B(  3-C ,  4-H ) :   1.0287 
B(  3-C ,  5-H ) :   0.8837 B(  3-C ,  6-C ) :   0.8730 B(  3-C , 20-C ) :   0.1455 
B(  3-C , 23-C ) :  -0.1959 B(  6-C , 15-O ) :   1.2960 B(  6-C , 16-F ) :   0.7628 
B(  7-C ,  8-C ) :   1.6828 B(  7-C ,  9-N ) :   0.6234 B(  7-C , 14-H ) :  -0.1980 
B(  7-C , 15-O ) :   0.1088 B(  8-C , 13-H ) :   0.8756 B(  8-C , 14-H ) :   0.6081 
B(  8-C , 20-C ) :   0.1251 B(  8-C , 23-C ) :  -0.1533 B(  9-N , 10-H ) :   0.9104 
B(  9-N , 11-H ) :   0.7125 B( 13-H , 14-H ) :   0.1449 B( 17-C , 20-C ) :   0.6286 
B( 17-C , 21-H ) :   0.9566 B( 17-C , 22-H ) :   0.9748 B( 17-C , 23-C ) :   0.1894 
B( 20-C , 23-C ) :   0.2409 B( 20-C , 24-H ) :   1.1362 B( 20-C , 25-H ) :   0.7467 
B( 20-C , 26-H ) :  -0.1602 B( 23-C , 24-H ) :  -0.1397 B( 23-C , 26-H ) :   1.2449 
B( 23-C , 27-H ) :   0.7781 

-------
TIMINGS
-------

Total SCF time: 0 days 0 hours 5 min 50 sec 

Total time                  ....     350.548 sec
Sum of individual times     ....     349.329 sec  ( 99.7%)

Fock matrix formation       ....     340.342 sec  ( 97.1%)
  Split-RI-J                ....      18.690 sec  (  5.5% of F)
  Chain of spheres X        ....     237.025 sec  ( 69.6% of F)
  XC integration            ....      84.244 sec  ( 24.8% of F)
    Basis function eval.    ....       7.440 sec  (  8.8% of XC)
    Density eval.           ....      34.197 sec  ( 40.6% of XC)
    XC-Functional eval.     ....       1.089 sec  (  1.3% of XC)
    XC-Potential eval.      ....      40.369 sec  ( 47.9% of XC)
Diagonalization             ....       1.157 sec  (  0.3%)
Density matrix formation    ....       0.077 sec  (  0.0%)
Population analysis         ....       0.146 sec  (  0.0%)
Initial guess               ....       1.818 sec  (  0.5%)
Orbital Transformation      ....       0.000 sec  (  0.0%)
Orbital Orthonormalization  ....       0.000 sec  (  0.0%)
DIIS solution               ....       0.658 sec  (  0.2%)
SOSCF solution              ....       0.727 sec  (  0.2%)
Grid generation             ....       4.404 sec  (  1.3%)

Maximum memory used throughout the entire SCF-calculation: 144.5 MB


-------------------------------------------------------------------------------
                          DFT DISPERSION CORRECTION                            
                                                                               
                              DFTD3 V3.1  Rev 1                                
                              USING zero damping                               
-------------------------------------------------------------------------------
The M062X functional is recognized
Active option DFTDOPT                   ...         3   

molecular C6(AA) [au] = 7126.540385 


            DFT-D V3
 parameters
 s6 scaling factor         :     1.0000 
 rs6 scaling factor        :     1.6190 
 s8 scaling factor         :     0.0000 
 rs8 scaling factor        :     1.0000 
 Damping factor alpha6     :    14.0000 
 Damping factor alpha8     :    16.0000 
 ad hoc parameters k1-k3   :    16.0000     1.3333    -4.0000 

 Edisp/kcal,au: -1.059252110504  -0.001688025506 
 E6   /kcal   :  -1.059252111 
 E8   /kcal   :  -0.000000000 
 % E8         :   0.000000000 

-------------------------   ----------------
Dispersion correction           -0.001688026
-------------------------   ----------------


-------------------------   --------------------
FINAL SINGLE POINT ENERGY      -637.686249325742
-------------------------   --------------------


                            ***************************************
                            *     ORCA property calculations      *
                            ***************************************

                                    ---------------------
                                    Active property flags
                                    ---------------------
   (+) Dipole Moment


------------------------------------------------------------------------------
                       ORCA ELECTRIC PROPERTIES CALCULATION
------------------------------------------------------------------------------

Dipole Moment Calculation                       ... on
Quadrupole Moment Calculation                   ... off
Polarizability Calculation                      ... off
GBWName                                         ... 28Oct_TZVPD_M062X_D5_wb97.gbw
Electron density file                           ... 28Oct_TZVPD_M062X_D5_wb97.scfp
The origin for moment calculation is the CENTER OF MASS  = ( 1.513141, -2.410234 -7.609532)

-------------
DIPOLE MOMENT
-------------
                                X             Y             Z
Electronic contribution:     -4.40223       0.19642     -12.38407
Nuclear contribution   :      4.07548       1.14852      13.79455
                        -----------------------------------------
Total Dipole Moment    :     -0.32674       1.34494       1.41048
                        -----------------------------------------
Magnitude (a.u.)       :      1.97613
Magnitude (Debye)      :      5.02291



--------------------
Rotational spectrum 
--------------------
 
Rotational constants in cm-1:     0.033274     0.023559     0.016968 
Rotational constants in MHz :   997.539108   706.293545   508.690532 

 Dipole components along the rotational axes: 
x,y,z [a.u.] :     0.623459     1.745826    -0.684446 
x,y,z [Debye]:     1.584706     4.437537    -1.739724 

 

Timings for individual modules:

Sum of individual times         ...      352.060 sec (=   5.868 min)
GTO integral calculation        ...        1.102 sec (=   0.018 min)   0.3 %
SCF iterations                  ...      350.957 sec (=   5.849 min)  99.7 %
                             ****ORCA TERMINATED NORMALLY****
TOTAL RUN TIME: 0 days 0 hours 5 minutes 52 seconds 763 msec
