
                                        *****************
                                        * O   R   C   A *
                                        *****************

                                            #,                                       
                                            ###                                      
                                            ####                                     
                                            #####                                    
                                            ######                                   
                                           ########,                                 
                                     ,,################,,,,,                         
                               ,,#################################,,                 
                          ,,##########################################,,             
                       ,#########################################, ''#####,          
                    ,#############################################,,   '####,        
                  ,##################################################,,,,####,       
                ,###########''''           ''''###############################       
              ,#####''   ,,,,##########,,,,          '''####'''          '####       
            ,##' ,,,,###########################,,,                        '##       
           ' ,,###''''                  '''############,,,                           
         ,,##''                                '''############,,,,        ,,,,,,###''
      ,#''                                            '''#######################'''  
     '                                                          ''''####''''         
             ,#######,   #######,   ,#######,      ##                                
            ,#'     '#,  ##    ##  ,#'     '#,    #''#        ######   ,####,        
            ##       ##  ##   ,#'  ##            #'  '#       #        #'  '#        
            ##       ##  #######   ##           ,######,      #####,   #    #        
            '#,     ,#'  ##    ##  '#,     ,#' ,#      #,         ##   #,  ,#        
             '#######'   ##     ##  '#######'  #'      '#     #####' # '####'        



                  #######################################################
                  #                        -***-                        #
                  #          Department of theory and spectroscopy      #
                  #    Directorship and core code : Frank Neese         #
                  #        Max Planck Institute fuer Kohlenforschung    #
                  #                Kaiser Wilhelm Platz 1               #
                  #                 D-45470 Muelheim/Ruhr               #
                  #                      Germany                        #
                  #                                                     #
                  #                  All rights reserved                #
                  #                        -***-                        #
                  #######################################################


                         Program Version 5.0.0 -  RELEASE  -
                                (SVN: $Rev: 19529$)
                ($Date: 2021-06-28 11:36:33 +0200 (Mo, 28 Jun 2021) $)


 With contributions from (in alphabetic order):
   Daniel Aravena         : Magnetic Suceptibility
   Michael Atanasov       : Ab Initio Ligand Field Theory (pilot matlab implementation)
   Alexander A. Auer      : GIAO ZORA, VPT2 properties, NMR spectrum
   Ute Becker             : Parallelization
   Giovanni Bistoni       : ED, misc. LED, open-shell LED, HFLD
   Martin Brehm           : Molecular dynamics
   Dmytro Bykov           : SCF Hessian
   Vijay G. Chilkuri      : MRCI spin determinant printing, contributions to CSF-ICE
   Dipayan Datta          : RHF DLPNO-CCSD density
   Achintya Kumar Dutta   : EOM-CC, STEOM-CC
   Dmitry Ganyushin       : Spin-Orbit,Spin-Spin,Magnetic field MRCI
   Miquel Garcia          : C-PCM Hessian, Gaussian charge scheme
   Yang Guo               : DLPNO-NEVPT2, F12-NEVPT2, CIM, IAO-localization
   Andreas Hansen         : Spin unrestricted coupled pair/coupled cluster methods
   Benjamin Helmich-Paris : MC-RPA, TRAH-SCF, COSX integrals
   Lee Huntington         : MR-EOM, pCC
   Robert Izsak           : Overlap fitted RIJCOSX, COSX-SCS-MP3, EOM
   Marcus Kettner         : VPT2
   Christian Kollmar      : KDIIS, OOCD, Brueckner-CCSD(T), CCSD density, CASPT2, CASPT2-K
   Simone Kossmann        : Meta GGA functionals, TD-DFT gradient, OOMP2, MP2 Hessian
   Martin Krupicka        : Initial AUTO-CI
   Lucas Lang             : DCDCAS
   Marvin Lechner         : AUTO-CI (C++ implementation), FIC-MRCC
   Dagmar Lenk            : GEPOL surface, SMD
   Dimitrios Liakos       : Extrapolation schemes; Compound Job, initial MDCI parallelization
   Dimitrios Manganas     : Further ROCIS development; embedding schemes
   Dimitrios Pantazis     : SARC Basis sets
   Anastasios Papadopoulos: AUTO-CI, single reference methods and gradients
   Taras Petrenko         : DFT Hessian,TD-DFT gradient, ASA, ECA, R-Raman, ABS, FL, XAS/XES, NRVS
   Peter Pinski           : DLPNO-MP2, DLPNO-MP2 Gradient
   Christoph Reimann      : Effective Core Potentials
   Marius Retegan         : Local ZFS, SOC
   Christoph Riplinger    : Optimizer, TS searches, QM/MM, DLPNO-CCSD(T), (RO)-DLPNO pert. Triples
   Tobias Risthaus        : Range-separated hybrids, TD-DFT gradient, RPA, STAB
   Michael Roemelt        : Original ROCIS implementation
   Masaaki Saitow         : Open-shell DLPNO-CCSD energy and density
   Barbara Sandhoefer     : DKH picture change effects
   Avijit Sen             : IP-ROCIS
   Kantharuban Sivalingam : CASSCF convergence, NEVPT2, FIC-MRCI
   Bernardo de Souza      : ESD, SOC TD-DFT
   Georgi Stoychev        : AutoAux, RI-MP2 NMR
   Willem Van den Heuvel  : Paramagnetic NMR
   Boris Wezisla          : Elementary symmetry handling
   Frank Wennmohs         : Technical directorship


 We gratefully acknowledge several colleagues who have allowed us to
 interface, adapt or use parts of their codes:
   Stefan Grimme, W. Hujo, H. Kruse, P. Pracht,  : VdW corrections, initial TS optimization,
                  C. Bannwarth, S. Ehlert          DFT functionals, gCP, sTDA/sTD-DF
   Ed Valeev, F. Pavosevic, A. Kumar             : LibInt (2-el integral package), F12 methods
   Garnet Chan, S. Sharma, J. Yang, R. Olivares  : DMRG
   Ulf Ekstrom                                   : XCFun DFT Library
   Mihaly Kallay                                 : mrcc  (arbitrary order and MRCC methods)
   Jiri Pittner, Ondrej Demel                    : Mk-CCSD
   Frank Weinhold                                : gennbo (NPA and NBO analysis)
   Christopher J. Cramer and Donald G. Truhlar   : smd solvation model
   Lars Goerigk                                  : TD-DFT with DH, B97 family of functionals
   V. Asgeirsson, H. Jonsson                     : NEB implementation
   FAccTs GmbH                                   : IRC, NEB, NEB-TS, DLPNO-Multilevel, CI-OPT
                                                   MM, QMMM, 2- and 3-layer-ONIOM, Crystal-QMMM,
                                                   LR-CPCM, SF, NACMEs, symmetry and pop. for TD-DFT,
                                                   nearIR, NL-DFT gradient (VV10), updates on ESD,
                                                   ML-optimized integration grids
   S Lehtola, MJT Oliveira, MAL Marques          : LibXC Library
   Liviu Ungur et al                             : ANISO software


 Your calculation uses the libint2 library for the computation of 2-el integrals
 For citations please refer to: http://libint.valeyev.net

 Your ORCA version has been built with support for libXC version: 5.1.0
 For citations please refer to: https://tddft.org/programs/libxc/

 This ORCA versions uses:
   CBLAS   interface :  Fast vector & matrix operations
   LAPACKE interface :  Fast linear algebra routines
   SCALAPACK package :  Parallel linear algebra routines
   Shared memory     :  Shared parallel matrices
   BLAS/LAPACK       :  OpenBLAS 0.3.15  USE64BITINT DYNAMIC_ARCH NO_AFFINITY Haswell SINGLE_THREADED
        Core in use  :  Haswell
   Copyright (c) 2011-2014, The OpenBLAS Project


================================================================================

----- Orbital basis set information -----
Your calculation utilizes the basis: def2-SVPD
   F. Weigend and R. Ahlrichs, Phys. Chem. Chem. Phys. 7, 3297 (2005).
   D. Rappoport and F. Furche, J. Chem. Phys. 133 134105 (2010).

----- AuxJ basis set information -----
Your calculation utilizes the auxiliary basis: def2/J
   F. Weigend, Phys. Chem. Chem. Phys. 8, 1057 (2006).

================================================================================
                                        WARNINGS
                       Please study these warnings very carefully!
================================================================================


INFO   : the flag for use of the SHARK integral package has been found!

================================================================================
                                       INPUT FILE
================================================================================
NAME = 14Feb_SVPD_LC_PBE_A_wt_wb97_typ1_pos.com
|  1> !LC-PBE RIJCOSX def2-SVPD def2/J TightSCF 
|  2> *xyz 1 1 
|  3> C          0.81607       -2.10149       -2.18655
|  4> H          1.69623       -2.36869       -1.60046
|  5> N          1.10055       -2.46749       -3.59927
|  6> C          0.51624       -0.61363       -2.03937
|  7> H         -0.02007       -2.71285       -1.84084
|  8> C         -0.86862       -0.19392       -2.54630
|  9> H          1.70061       -1.75723       -4.07838
| 10> H          0.29386       -2.35977       -4.25632
| 11> H          1.50132       -3.42848       -3.69491
| 12> H          1.29904       -0.05680       -2.55898
| 13> H          0.61239       -0.36558       -0.97917
| 14> H         -0.95781       -0.43872       -3.58410
| 15> H         -0.99113        0.86113       -2.41690
| 16> H         -1.62334       -0.71130       -1.99167
| 17> *
| 18> %MaxCore 64000
| 19> 
| 20> %pal nprocs 4
| 21> end  
| 22> 
| 23> %scf
| 24>   MaxIter 150
| 25> end
| 26> 
| 27> 
| 28>                          ****END OF INPUT****
================================================================================

                       ****************************
                       * Single Point Calculation *
                       ****************************

---------------------------------
CARTESIAN COORDINATES (ANGSTROEM)
---------------------------------
  C      0.816070   -2.101490   -2.186550
  H      1.696230   -2.368690   -1.600460
  N      1.100550   -2.467490   -3.599270
  C      0.516240   -0.613630   -2.039370
  H     -0.020070   -2.712850   -1.840840
  C     -0.868620   -0.193920   -2.546300
  H      1.700610   -1.757230   -4.078380
  H      0.293860   -2.359770   -4.256320
  H      1.501320   -3.428480   -3.694910
  H      1.299040   -0.056800   -2.558980
  H      0.612390   -0.365580   -0.979170
  H     -0.957810   -0.438720   -3.584100
  H     -0.991130    0.861130   -2.416900
  H     -1.623340   -0.711300   -1.991670

----------------------------
CARTESIAN COORDINATES (A.U.)
----------------------------
  NO LB      ZA    FRAG     MASS         X           Y           Z
   0 C     6.0000    0    12.011    1.542149   -3.971241   -4.131981
   1 H     1.0000    0     1.008    3.205410   -4.476175   -3.024431
   2 N     7.0000    0    14.007    2.079738   -4.662880   -6.801635
   3 C     6.0000    0    12.011    0.975552   -1.159593   -3.853851
   4 H     1.0000    0     1.008   -0.037927   -5.126544   -3.478683
   5 C     6.0000    0    12.011   -1.641454   -0.366456   -4.811810
   6 H     1.0000    0     1.008    3.213687   -3.320683   -7.707021
   7 H     1.0000    0     1.008    0.555315   -4.459319   -8.043279
   8 H     1.0000    0     1.008    2.837084   -6.478888   -6.982368
   9 H     1.0000    0     1.008    2.454830   -0.107336   -4.835771
  10 H     1.0000    0     1.008    1.157249   -0.690846   -1.850363
  11 H     1.0000    0     1.008   -1.809999   -0.829061   -6.772967
  12 H     1.0000    0     1.008   -1.872964    1.627300   -4.567279
  13 H     1.0000    0     1.008   -3.067668   -1.344162   -3.763711

--------------------------------
INTERNAL COORDINATES (ANGSTROEM)
--------------------------------
 C      0   0   0     0.000000000000     0.00000000     0.00000000
 H      1   0   0     1.090678208135     0.00000000     0.00000000
 N      1   2   0     1.486829737663   107.20969654     0.00000000
 C      1   2   3     1.524889294637   110.23327792   238.23497714
 H      1   2   3     1.091973696249   108.09753525   116.23750786
 C      4   1   2     1.533287881841   114.37861567   193.55274078
 H      3   1   2     1.045986454645   112.19915537   280.57074603
 H      3   1   2     1.045976604423   115.08391716   173.58599447
 H      3   1   2     1.045593316065   112.73631811    47.10374094
 H      4   1   2     1.092167588331   108.09604278    69.98497648
 H      4   1   2     1.093068005661   107.32191021   315.56219081
 H      6   4   1     1.070005016857   109.47075271   300.66968503
 H      6   4   1     1.069992318944   109.47154438   180.66922009
 H      6   4   1     1.069999429766   109.47125794    60.66890086

---------------------------
INTERNAL COORDINATES (A.U.)
---------------------------
 C      0   0   0     0.000000000000     0.00000000     0.00000000
 H      1   0   0     2.061083113611     0.00000000     0.00000000
 N      1   2   0     2.809701011954   107.20969654     0.00000000
 C      1   2   3     2.881623151413   110.23327792   238.23497714
 H      1   2   3     2.063531231357   108.09753525   116.23750786
 C      4   1   2     2.897494181139   114.37861567   193.55274078
 H      3   1   2     1.976627939070   112.19915537   280.57074603
 H      3   1   2     1.976609324848   115.08391716   173.58599447
 H      3   1   2     1.975885014822   112.73631811    47.10374094
 H      4   1   2     2.063897634290   108.09604278    69.98497648
 H      4   1   2     2.065599176451   107.32191021   315.56219081
 H      6   4   1     2.022016443782   109.47075271   300.66968503
 H      6   4   1     2.021992448204   109.47154438   180.66922009
 H      6   4   1     2.022005885710   109.47125794    60.66890086

---------------------
BASIS SET INFORMATION
---------------------
There are 3 groups of distinct atoms

 Group   1 Type C   : 8s4p2d contracted to 4s2p2d pattern {5111/31/11}
 Group   2 Type H   : 4s2p contracted to 2s2p pattern {31/11}
 Group   3 Type N   : 8s4p2d contracted to 4s2p2d pattern {5111/31/11}

Atom   0C    basis set group =>   1
Atom   1H    basis set group =>   2
Atom   2N    basis set group =>   3
Atom   3C    basis set group =>   1
Atom   4H    basis set group =>   2
Atom   5C    basis set group =>   1
Atom   6H    basis set group =>   2
Atom   7H    basis set group =>   2
Atom   8H    basis set group =>   2
Atom   9H    basis set group =>   2
Atom  10H    basis set group =>   2
Atom  11H    basis set group =>   2
Atom  12H    basis set group =>   2
Atom  13H    basis set group =>   2
---------------------------------
AUXILIARY/J BASIS SET INFORMATION
---------------------------------
There are 3 groups of distinct atoms

 Group   1 Type C   : 12s5p4d2f1g contracted to 6s4p3d1f1g pattern {711111/2111/211/2/1}
 Group   2 Type H   : 5s2p1d contracted to 3s1p1d pattern {311/2/1}
 Group   3 Type N   : 12s5p4d2f1g contracted to 6s4p3d1f1g pattern {711111/2111/211/2/1}

Atom   0C    basis set group =>   1
Atom   1H    basis set group =>   2
Atom   2N    basis set group =>   3
Atom   3C    basis set group =>   1
Atom   4H    basis set group =>   2
Atom   5C    basis set group =>   1
Atom   6H    basis set group =>   2
Atom   7H    basis set group =>   2
Atom   8H    basis set group =>   2
Atom   9H    basis set group =>   2
Atom  10H    basis set group =>   2
Atom  11H    basis set group =>   2
Atom  12H    basis set group =>   2
Atom  13H    basis set group =>   2


           ************************************************************
           *        Program running with 4 parallel MPI-processes     *
           *              working on a common directory               *
           ************************************************************
------------------------------------------------------------------------------
                           ORCA GTO INTEGRAL CALCULATION
                           -- RI-GTO INTEGRALS CHOSEN --
------------------------------------------------------------------------------
------------------------------------------------------------------------------
                   ___                                                        
                  /   \      - P O W E R E D   B Y -                         
                 /     \                                                     
                 |  |  |   _    _      __       _____    __    __             
                 |  |  |  | |  | |    /  \     |  _  \  |  |  /  |          
                  \  \/   | |  | |   /    \    | | | |  |  | /  /          
                 / \  \   | |__| |  /  /\  \   | |_| |  |  |/  /          
                |  |  |   |  __  | /  /__\  \  |    /   |      \           
                |  |  |   | |  | | |   __   |  |    \   |  |\   \          
                \     /   | |  | | |  |  |  |  | |\  \  |  | \   \       
                 \___/    |_|  |_| |__|  |__|  |_| \__\ |__|  \__/        
                                                                              
                      - O R C A' S   B I G   F R I E N D -                    
                                      &                                       
                       - I N T E G R A L  F E E D E R -                       
                                                                              
 v1 FN, 2020, v2 2021                                                         
------------------------------------------------------------------------------


Reading SHARK input file 14Feb_SVPD_LC_PBE_A_wt_wb97_typ1_pos.SHARKINP.tmp ... ok
----------------------
SHARK INTEGRAL PACKAGE
----------------------

Number of atoms                             ...     14
Number of basis functions                   ...    160
Number of shells                            ...     72
Maximum angular momentum                    ...      2
Integral batch strategy                     ... SHARK/LIBINT Hybrid
RI-J (if used) integral strategy            ... SPLIT-RIJ (Revised 2003 algorithm where possible)
Printlevel                                  ...      1
Contraction scheme used                     ... SEGMENTED contraction
Coulomb Range Separation                    ... NOT USED
Exchange Range Separation                   ... Long Range
   Mu parameter                             ...  0.470000
   Scaling (regular/separated)              ...  0.000000  1.000000
Finite Nucleus Model                        ... NOT USED
Auxiliary Coulomb fitting basis             ... AVAILABLE
   # of basis functions in Aux-J            ...    306
   # of shells in Aux-J                     ...    110
   Maximum angular momentum in Aux-J        ...      4
Auxiliary J/K fitting basis                 ... NOT available
Auxiliary Correlation fitting basis         ... NOT available
Auxiliary 'external' fitting basis          ... NOT available
Integral threshold                          ...     2.500000e-11
Primitive cut-off                           ...     2.500000e-12
Primitive pair pre-selection threshold      ...     2.500000e-12

Calculating pre-screening integrals         ... done (  0.0 sec) Dimension = 72
Organizing shell pair data                  ... done (  0.0 sec)
Shell pair information
Total number of shell pairs                 ...      2628
Shell pairs after pre-screening             ...      2618
Total number of primitive shell pairs       ...      6868
Primitive shell pairs kept                  ...      5969
          la=0 lb=0:    663 shell pairs
          la=1 lb=0:   1002 shell pairs
          la=1 lb=1:    405 shell pairs
          la=2 lb=0:    288 shell pairs
          la=2 lb=1:    224 shell pairs
          la=2 lb=2:     36 shell pairs

Calculating one electron integrals          ... done (  0.0 sec)
Calculating RI/J V-Matrix + Cholesky decomp.... done (  0.0 sec)
Calculating Nuclear repulsion               ... done (  0.0 sec) ENN=    141.484261949210 Eh

SHARK setup successfully completed in   0.2 seconds

Maximum memory used throughout the entire GTOINT-calculation: 8.9 MB


           ************************************************************
           *        Program running with 4 parallel MPI-processes     *
           *              working on a common directory               *
           ************************************************************
-------------------------------------------------------------------------------
                                 ORCA SCF
-------------------------------------------------------------------------------

------------
SCF SETTINGS
------------
Hamiltonian:
 Density Functional     Method          .... DFT(GTOs)
 Exchange Functional    Exchange        .... LC-PBE
 Correlation Functional Correlation     .... PBE
   PBE beta parameter  CBetaPBE         ....  0.066725
 LDA part of GGA corr.  LDAOpt          .... PW91-LDA
 Gradients option       PostSCFGGA      .... off
   Density functional embedding theory  .... OFF
 Long-range corrected/Screened/Range-Separated Hybrid DFT is turned on
   Amount of maximum screened exact exchange              ....  1.000000
   Range separation parameter mu (erf(mu*r12)/r12)        ....  0.470000
   NL short-range parameter             ....  6.400000
 RI-approximation to the Coulomb term is turned on
   Number of AuxJ basis functions       .... 306
   RIJ-COSX (HFX calculated with COS-X)).... on


General Settings:
 Integral files         IntName         .... 14Feb_SVPD_LC_PBE_A_wt_wb97_typ1_pos
 Hartree-Fock type      HFTyp           .... RHF
 Total Charge           Charge          ....    1
 Multiplicity           Mult            ....    1
 Number of Electrons    NEL             ....   34
 Basis Dimension        Dim             ....  160
 Nuclear Repulsion      ENuc            ....    141.4842619492 Eh

Convergence Acceleration:
 DIIS                   CNVDIIS         .... on
   Start iteration      DIISMaxIt       ....    12
   Startup error        DIISStart       ....  0.200000
   # of expansion vecs  DIISMaxEq       ....     5
   Bias factor          DIISBfac        ....   1.050
   Max. coefficient     DIISMaxC        ....  10.000
 Trust-Rad. Augm. Hess. CNVTRAH         .... auto
   Auto Start mean grad. ratio tolernc. ....  1.125000
   Auto Start start iteration           ....    20
   Auto Start num. interpolation iter.  ....    10
   Max. Number of Micro iterations      ....    16
   Max. Number of Macro iterations      .... Maxiter - #DIIS iter
   Number of Davidson start vectors     ....     2
   Converg. threshold I  (grad. norm)   ....   1.000e-05
   Converg. threshold II (energy diff.) ....   1.000e-08
   Grad. Scal. Fac. for Micro threshold ....   0.100
   Minimum threshold for Micro iter.    ....   0.010
   NR start threshold (gradient norm)   ....   0.001
   Initial trust radius                 ....   0.400
   Minimum AH scaling param. (alpha)    ....   1.000
   Maximum AH scaling param. (alpha)    .... 1000.000
   Orbital update algorithm             .... Taylor
   White noise on init. David. guess    .... on
   Maximum white noise                  ....   0.010
   Quad. conv. algorithm                .... NR
 SOSCF                  CNVSOSCF        .... on
   Start iteration      SOSCFMaxIt      ....   150
   Startup grad/error   SOSCFStart      ....  0.003300
 Level Shifting         CNVShift        .... on
   Level shift para.    LevelShift      ....    0.2500
   Turn off err/grad.   ShiftErr        ....    0.0010
 Zerner damping         CNVZerner       .... off
 Static damping         CNVDamp         .... on
   Fraction old density DampFac         ....    0.7000
   Max. Damping (<1)    DampMax         ....    0.9800
   Min. Damping (>=0)   DampMin         ....    0.0000
   Turn off err/grad.   DampErr         ....    0.1000
 Fernandez-Rico         CNVRico         .... off

SCF Procedure:
 Maximum # iterations   MaxIter         ....   150
 SCF integral mode      SCFMode         .... Direct
   Integral package                     .... SHARK and LIBINT hybrid scheme
 Reset frequency        DirectResetFreq ....    20
 Integral Threshold     Thresh          ....  2.500e-11 Eh
 Primitive CutOff       TCut            ....  2.500e-12 Eh

Convergence Tolerance:
 Convergence Check Mode ConvCheckMode   .... Total+1el-Energy
 Convergence forced     ConvForced      .... 0
 Energy Change          TolE            ....  1.000e-08 Eh
 1-El. energy change                    ....  1.000e-05 Eh
 Orbital Gradient       TolG            ....  1.000e-05
 Orbital Rotation angle TolX            ....  1.000e-05
 DIIS Error             TolErr          ....  5.000e-07


Diagonalization of the overlap matrix:
Smallest eigenvalue                        ... 9.852e-05
Time for diagonalization                   ...    0.008 sec
Threshold for overlap eigenvalues          ... 1.000e-08
Number of eigenvalues below threshold      ... 0
Time for construction of square roots      ...    0.005 sec
Total time needed                          ...    0.013 sec

Time for model grid setup =    0.065 sec

------------------------------
INITIAL GUESS: MODEL POTENTIAL
------------------------------
Loading Hartree-Fock densities                     ... done
Calculating cut-offs                               ... done
Initializing the effective Hamiltonian             ... done
Setting up the integral package (SHARK)            ... done
Starting the Coulomb interaction                   ... done (   0.0 sec)
Reading the grid                                   ... done
Mapping shells                                     ... done
Starting the XC term evaluation                    ... done (   0.1 sec)
  promolecular density results
     # of electrons  =     34.997688039
     EX              =    -16.901447398
     EC              =     -1.128926338
     EX+EC           =    -18.030373736
Transforming the Hamiltonian                       ... done (   0.0 sec)
Diagonalizing the Hamiltonian                      ... done (   0.0 sec)
Back transforming the eigenvectors                 ... done (   0.0 sec)
Now organizing SCF variables                       ... done
                      ------------------
                      INITIAL GUESS DONE (   0.2 sec)
                      ------------------
-------------------
DFT GRID GENERATION
-------------------

General Integration Accuracy     IntAcc      ... 4.388
Radial Grid Type                 RadialGrid  ... OptM3 with GC (2021)
Angular Grid (max. ang.)         AngularGrid ... 4 (Lebedev-302)
Angular grid pruning method      GridPruning ... 4 (adaptive)
Weight generation scheme         WeightScheme... Becke
Basis function cutoff            BFCut       ... 1.0000e-11
Integration weight cutoff        WCut        ... 1.0000e-14
Angular grids for H and He will be reduced by one unit
Partially contracted basis set               ... off
Rotationally invariant grid construction     ... off

Total number of grid points                  ...    58179
Total number of batches                      ...      916
Average number of points per batch           ...       63
Average number of grid points per atom       ...     4156
Time for grid setup =    0.329 sec

--------------------
COSX GRID GENERATION
--------------------

GRIDX 1
-------
General Integration Accuracy     IntAcc      ... 3.816
Radial Grid Type                 RadialGrid  ... OptM3 with GC (2021)
Angular Grid (max. ang.)         AngularGrid ... 1 (Lebedev-50)
Angular grid pruning method      GridPruning ... 4 (adaptive)
Weight generation scheme         WeightScheme... Becke
Basis function cutoff            BFCut       ... 1.0000e-11
Integration weight cutoff        WCut        ... 1.0000e-14
Angular grids for H and He will be reduced by one unit
Partially contracted basis set               ... on
Rotationally invariant grid construction     ... off

Total number of grid points                  ...     7282
Total number of batches                      ...      123
Average number of points per batch           ...       59
Average number of grid points per atom       ...      520
UseSFitting                                  ... on

GRIDX 2
-------
General Integration Accuracy     IntAcc      ... 4.020
Radial Grid Type                 RadialGrid  ... OptM3 with GC (2021)
Angular Grid (max. ang.)         AngularGrid ... 2 (Lebedev-110)
Angular grid pruning method      GridPruning ... 4 (adaptive)
Weight generation scheme         WeightScheme... Becke
Basis function cutoff            BFCut       ... 1.0000e-11
Integration weight cutoff        WCut        ... 1.0000e-14
Angular grids for H and He will be reduced by one unit
Partially contracted basis set               ... on
Rotationally invariant grid construction     ... off

Total number of grid points                  ...    15720
Total number of batches                      ...      253
Average number of points per batch           ...       62
Average number of grid points per atom       ...     1123
UseSFitting                                  ... on

GRIDX 3
-------
General Integration Accuracy     IntAcc      ... 4.338
Radial Grid Type                 RadialGrid  ... OptM3 with GC (2021)
Angular Grid (max. ang.)         AngularGrid ... 3 (Lebedev-194)
Angular grid pruning method      GridPruning ... 4 (adaptive)
Weight generation scheme         WeightScheme... Becke
Basis function cutoff            BFCut       ... 1.0000e-11
Integration weight cutoff        WCut        ... 1.0000e-14
Angular grids for H and He will be reduced by one unit
Partially contracted basis set               ... on
Rotationally invariant grid construction     ... off

Total number of grid points                  ...    36243
Total number of batches                      ...      575
Average number of points per batch           ...       63
Average number of grid points per atom       ...     2589
UseSFitting                                  ... on

Time for X-Grid setup             =    0.296 sec

--------------
SCF ITERATIONS
--------------
ITER       Energy         Delta-E        Max-DP      RMS-DP      [F,P]     Damp
               ***  Starting incremental Fock matrix formation  ***
  0   -174.0856258467   0.000000000000 0.09420705  0.00191808  0.1069410 0.7000
  1   -174.1033908412  -0.017764994481 0.10393381  0.00157100  0.0664914 0.7000
                               ***Turning on DIIS***
  2   -174.1143790873  -0.010988246127 0.29753661  0.00387437  0.0370892 0.0000
  3   -174.1370673414  -0.022688254071 0.06534760  0.00083142  0.0243563 0.0000
                      *** Initiating the SOSCF procedure ***
                           *** Shutting down DIIS ***
                      *** Re-Reading the Fockian *** 
                      *** Removing any level shift *** 
ITER      Energy       Delta-E        Grad      Rot      Max-DP    RMS-DP
  4   -174.13883170  -0.0017643579  0.001292  0.001292  0.050126  0.000502
               *** Restarting incremental Fock matrix formation ***
  5   -174.13902339  -0.0001916866  0.000491  0.000804  0.016861  0.000198
  6   -174.13904322  -0.0000198292  0.000146  0.000342  0.007641  0.000090
  7   -174.13904525  -0.0000020326  0.000093  0.000069  0.001803  0.000021
  8   -174.13904563  -0.0000003862  0.000013  0.000009  0.000222  0.000004
  9   -174.13904564  -0.0000000083  0.000006  0.000005  0.000034  0.000001
                 **** Energy Check signals convergence ****
              ***Rediagonalizing the Fockian in SOSCF/NRSCF***

               *****************************************************
               *                     SUCCESS                       *
               *           SCF CONVERGED AFTER  10 CYCLES          *
               *****************************************************


----------------
TOTAL SCF ENERGY
----------------

Total Energy       :         -174.13904564 Eh           -4738.56434 eV

Components:
Nuclear Repulsion  :          141.48426195 Eh            3849.98250 eV
Electronic Energy  :         -315.62330759 Eh           -8588.54683 eV
One Electron Energy:         -506.41342531 Eh          -13780.20987 eV
Two Electron Energy:          190.79011772 Eh            5191.66304 eV
Max COSX asymmetry :            0.00001064 Eh               0.00029 eV

Virial components:
Potential Energy   :         -346.21908885 Eh           -9421.10037 eV
Kinetic Energy     :          172.08004321 Eh            4682.53603 eV
Virial Ratio       :            2.01196538


DFT components:
N(Alpha)           :       16.999971731628 electrons
N(Beta)            :       16.999971731628 electrons
N(Total)           :       33.999943463255 electrons
E(X)               :      -17.259571744723 Eh       
E(C)               :       -1.109729721824 Eh       
E(XC)              :      -18.369301466547 Eh       
DFET-embed. en.    :        0.000000000000 Eh       

---------------
SCF CONVERGENCE
---------------

  Last Energy change         ...   -2.9749e-10  Tolerance :   1.0000e-08
  Last MAX-Density change    ...    1.5696e-05  Tolerance :   1.0000e-07
  Last RMS-Density change    ...    3.4917e-07  Tolerance :   5.0000e-09
  Last Orbital Gradient      ...    6.6549e-07  Tolerance :   1.0000e-05
  Last Orbital Rotation      ...    1.6359e-06  Tolerance :   1.0000e-05

             **** THE GBW FILE WAS UPDATED (14Feb_SVPD_LC_PBE_A_wt_wb97_typ1_pos.gbw) ****
             **** DENSITY 14Feb_SVPD_LC_PBE_A_wt_wb97_typ1_pos.scfp WAS UPDATED ****
             **** ENERGY FILE WAS UPDATED (14Feb_SVPD_LC_PBE_A_wt_wb97_typ1_pos.en.tmp) ****
             **** THE GBW FILE WAS UPDATED (14Feb_SVPD_LC_PBE_A_wt_wb97_typ1_pos.gbw) ****
             **** DENSITY 14Feb_SVPD_LC_PBE_A_wt_wb97_typ1_pos.scfp WAS UPDATED ****
----------------
ORBITAL ENERGIES
----------------

  NO   OCC          E(Eh)            E(eV) 
   0   2.0000     -14.563347      -396.2888 
   1   2.0000     -10.374975      -282.3174 
   2   2.0000     -10.307238      -280.4742 
   3   2.0000     -10.269777      -279.4548 
   4   2.0000      -1.372137       -37.3377 
   5   2.0000      -1.144071       -31.1318 
   6   2.0000      -1.047891       -28.5146 
   7   2.0000      -0.959411       -26.1069 
   8   2.0000      -0.927776       -25.2461 
   9   2.0000      -0.908106       -24.7108 
  10   2.0000      -0.838484       -22.8163 
  11   2.0000      -0.767307       -20.8795 
  12   2.0000      -0.749685       -20.4000 
  13   2.0000      -0.721886       -19.6435 
  14   2.0000      -0.655320       -17.8322 
  15   2.0000      -0.648534       -17.6475 
  16   2.0000      -0.642865       -17.4933 
  17   0.0000      -0.107417        -2.9230 
  18   0.0000      -0.052714        -1.4344 
  19   0.0000      -0.050012        -1.3609 
  20   0.0000      -0.038256        -1.0410 
  21   0.0000      -0.009839        -0.2677 
  22   0.0000      -0.003984        -0.1084 
  23   0.0000       0.014171         0.3856 
  24   0.0000       0.019794         0.5386 
  25   0.0000       0.025556         0.6954 
  26   0.0000       0.041189         1.1208 
  27   0.0000       0.058295         1.5863 
  28   0.0000       0.069583         1.8935 
  29   0.0000       0.082308         2.2397 
  30   0.0000       0.087092         2.3699 
  31   0.0000       0.095557         2.6002 
  32   0.0000       0.106896         2.9088 
  33   0.0000       0.121032         3.2935 
  34   0.0000       0.129087         3.5126 
  35   0.0000       0.137037         3.7290 
  36   0.0000       0.162976         4.4348 
  37   0.0000       0.167072         4.5462 
  38   0.0000       0.176855         4.8125 
  39   0.0000       0.195110         5.3092 
  40   0.0000       0.204442         5.5632 
  41   0.0000       0.223721         6.0877 
  42   0.0000       0.227142         6.1809 
  43   0.0000       0.232443         6.3251 
  44   0.0000       0.241462         6.5705 
  45   0.0000       0.243825         6.6348 
  46   0.0000       0.255278         6.9465 
  47   0.0000       0.275449         7.4953 
  48   0.0000       0.283325         7.7097 
  49   0.0000       0.291181         7.9234 
  50   0.0000       0.294941         8.0258 
  51   0.0000       0.311288         8.4706 
  52   0.0000       0.311925         8.4879 
  53   0.0000       0.319718         8.7000 
  54   0.0000       0.327376         8.9083 
  55   0.0000       0.328740         8.9455 
  56   0.0000       0.342267         9.3136 
  57   0.0000       0.356004         9.6873 
  58   0.0000       0.360404         9.8071 
  59   0.0000       0.378619        10.3027 
  60   0.0000       0.385197        10.4817 
  61   0.0000       0.385890        10.5006 
  62   0.0000       0.405420        11.0320 
  63   0.0000       0.415609        11.3093 
  64   0.0000       0.419028        11.4023 
  65   0.0000       0.422230        11.4894 
  66   0.0000       0.430732        11.7208 
  67   0.0000       0.440643        11.9905 
  68   0.0000       0.442248        12.0342 
  69   0.0000       0.452128        12.3030 
  70   0.0000       0.467218        12.7137 
  71   0.0000       0.471441        12.8286 
  72   0.0000       0.486572        13.2403 
  73   0.0000       0.495481        13.4827 
  74   0.0000       0.507149        13.8002 
  75   0.0000       0.511578        13.9207 
  76   0.0000       0.524311        14.2672 
  77   0.0000       0.551258        15.0005 
  78   0.0000       0.561822        15.2879 
  79   0.0000       0.570586        15.5264 
  80   0.0000       0.588326        16.0092 
  81   0.0000       0.627030        17.0624 
  82   0.0000       0.642973        17.4962 
  83   0.0000       0.674753        18.3610 
  84   0.0000       0.822709        22.3870 
  85   0.0000       0.849964        23.1287 
  86   0.0000       0.853430        23.2230 
  87   0.0000       0.877506        23.8782 
  88   0.0000       0.889784        24.2123 
  89   0.0000       0.917711        24.9722 
  90   0.0000       0.930500        25.3202 
  91   0.0000       0.958190        26.0737 
  92   0.0000       0.967103        26.3162 
  93   0.0000       0.992423        27.0052 
  94   0.0000       1.003870        27.3167 
  95   0.0000       1.011338        27.5199 
  96   0.0000       1.019015        27.7288 
  97   0.0000       1.041026        28.3278 
  98   0.0000       1.094077        29.7714 
  99   0.0000       1.097216        29.8568 
 100   0.0000       1.146358        31.1940 
 101   0.0000       1.186940        32.2983 
 102   0.0000       1.207305        32.8524 
 103   0.0000       1.258705        34.2511 
 104   0.0000       1.282879        34.9089 
 105   0.0000       1.317511        35.8513 
 106   0.0000       1.353482        36.8301 
 107   0.0000       1.392997        37.9054 
 108   0.0000       1.467775        39.9402 
 109   0.0000       1.526984        41.5514 
 110   0.0000       1.554881        42.3105 
 111   0.0000       1.565682        42.6044 
 112   0.0000       1.590032        43.2670 
 113   0.0000       1.608174        43.7606 
 114   0.0000       1.681927        45.7676 
 115   0.0000       1.686971        45.9048 
 116   0.0000       1.716675        46.7131 
 117   0.0000       1.754822        47.7511 
 118   0.0000       1.791140        48.7394 
 119   0.0000       1.828249        49.7492 
 120   0.0000       1.831426        49.8356 
 121   0.0000       1.853473        50.4356 
 122   0.0000       1.881311        51.1931 
 123   0.0000       1.901650        51.7465 
 124   0.0000       1.903830        51.8059 
 125   0.0000       1.955759        53.2189 
 126   0.0000       1.966972        53.5240 
 127   0.0000       1.992340        54.2143 
 128   0.0000       1.997569        54.3566 
 129   0.0000       2.037305        55.4379 
 130   0.0000       2.043111        55.5959 
 131   0.0000       2.070529        56.3420 
 132   0.0000       2.077895        56.5424 
 133   0.0000       2.173373        59.1405 
 134   0.0000       2.178906        59.2910 
 135   0.0000       2.221907        60.4612 
 136   0.0000       2.241741        61.0009 
 137   0.0000       2.284077        62.1529 
 138   0.0000       2.355594        64.0990 
 139   0.0000       2.412957        65.6599 
 140   0.0000       2.429174        66.1012 
 141   0.0000       2.450522        66.6821 
 142   0.0000       2.542095        69.1739 
 143   0.0000       2.551253        69.4231 
 144   0.0000       2.561438        69.7003 
 145   0.0000       2.624379        71.4130 
 146   0.0000       2.668339        72.6092 
 147   0.0000       2.678886        72.8962 
 148   0.0000       2.733389        74.3793 
 149   0.0000       2.762402        75.1688 
 150   0.0000       2.875900        78.2572 
 151   0.0000       2.993528        81.4580 
 152   0.0000       3.021316        82.2142 
 153   0.0000       3.047312        82.9216 
 154   0.0000       3.111565        84.6700 
 155   0.0000       3.153527        85.8118 
 156   0.0000       3.167434        86.1903 
 157   0.0000       3.201296        87.1117 
 158   0.0000       3.385492        92.1239 
 159   0.0000       3.411794        92.8396 

                    ********************************
                    * MULLIKEN POPULATION ANALYSIS *
                    ********************************

-----------------------
MULLIKEN ATOMIC CHARGES
-----------------------
   0 C :    0.435635
   1 H :    0.048531
   2 N :   -0.982969
   3 C :   -0.460298
   4 H :    0.037811
   5 C :    0.493974
   6 H :    0.498268
   7 H :    0.386652
   8 H :    0.429988
   9 H :    0.014571
  10 H :    0.035667
  11 H :   -0.078156
  12 H :    0.058977
  13 H :    0.081349
Sum of atomic charges:    1.0000000

--------------------------------
MULLIKEN REDUCED ORBITAL CHARGES
--------------------------------
  0 C s       :     2.760808  s :     2.760808
      pz      :     0.662655  p :     2.638330
      px      :     0.958974
      py      :     1.016701
      dz2     :    -0.005001  d :     0.165227
      dxz     :     0.010550
      dyz     :     0.113811
      dx2y2   :     0.010122
      dxy     :     0.035746
  1 H s       :     0.955508  s :     0.955508
      pz      :     0.008941  p :    -0.004039
      px      :     0.014605
      py      :    -0.027585
  2 N s       :     4.183033  s :     4.183033
      pz      :     1.249960  p :     3.706368
      px      :     1.271728
      py      :     1.184680
      dz2     :     0.023812  d :     0.093568
      dxz     :     0.050836
      dyz     :     0.025257
      dx2y2   :     0.001711
      dxy     :    -0.008049
  3 C s       :     2.974086  s :     2.974086
      pz      :     1.031517  p :     3.050883
      px      :     1.083569
      py      :     0.935797
      dz2     :     0.093965  d :     0.435329
      dxz     :     0.090528
      dyz     :     0.040484
      dx2y2   :     0.052239
      dxy     :     0.158113
  4 H s       :     0.937539  s :     0.937539
      pz      :     0.011464  p :     0.024650
      px      :    -0.002302
      py      :     0.015489
  5 C s       :     2.532275  s :     2.532275
      pz      :     0.968451  p :     2.889124
      px      :     0.955399
      py      :     0.965274
      dz2     :     0.026084  d :     0.084626
      dxz     :     0.036720
      dyz     :    -0.014530
      dx2y2   :     0.019739
      dxy     :     0.016612
  6 H s       :     0.489838  s :     0.489838
      pz      :     0.008144  p :     0.011895
      px      :     0.022179
      py      :    -0.018428
  7 H s       :     0.581991  s :     0.581991
      pz      :     0.017800  p :     0.031357
      px      :    -0.001403
      py      :     0.014961
  8 H s       :     0.572721  s :     0.572721
      pz      :    -0.009929  p :    -0.002709
      px      :     0.002399
      py      :     0.004821
  9 H s       :     0.948577  s :     0.948577
      pz      :    -0.004758  p :     0.036852
      px      :     0.023414
      py      :     0.018196
 10 H s       :     0.933290  s :     0.933290
      pz      :     0.053481  p :     0.031044
      px      :    -0.009305
      py      :    -0.013133
 11 H s       :     1.011441  s :     1.011441
      pz      :     0.067114  p :     0.066715
      px      :    -0.000733
      py      :     0.000333
 12 H s       :     0.916237  s :     0.916237
      pz      :    -0.016345  p :     0.024786
      px      :    -0.005983
      py      :     0.047114
 13 H s       :     0.885578  s :     0.885578
      pz      :     0.015840  p :     0.033073
      px      :     0.026813
      py      :    -0.009580


                     *******************************
                     * LOEWDIN POPULATION ANALYSIS *
                     *******************************

----------------------
LOEWDIN ATOMIC CHARGES
----------------------
   0 C :    0.059119
   1 H :    0.062681
   2 N :    0.294076
   3 C :   -0.071348
   4 H :    0.065452
   5 C :    0.118743
   6 H :    0.120401
   7 H :    0.115497
   8 H :    0.130383
   9 H :    0.039457
  10 H :    0.055710
  11 H :   -0.014227
  12 H :    0.014827
  13 H :    0.009231

-------------------------------
LOEWDIN REDUCED ORBITAL CHARGES
-------------------------------
  0 C s       :     2.672090  s :     2.672090
      pz      :     0.734947  p :     2.630043
      px      :     0.949651
      py      :     0.945445
      dz2     :     0.135574  d :     0.638748
      dxz     :     0.113461
      dyz     :     0.167557
      dx2y2   :     0.096652
      dxy     :     0.125504
  1 H s       :     0.708556  s :     0.708556
      pz      :     0.061327  p :     0.228763
      px      :     0.104744
      py      :     0.062692
  2 N s       :     2.898704  s :     2.898704
      pz      :     1.140172  p :     3.415978
      px      :     1.154821
      py      :     1.120986
      dz2     :     0.099437  d :     0.391242
      dxz     :     0.132838
      dyz     :     0.093493
      dx2y2   :     0.031849
      dxy     :     0.033625
  3 C s       :     2.684207  s :     2.684207
      pz      :     0.947895  p :     2.743681
      px      :     0.928432
      py      :     0.867354
      dz2     :     0.121115  d :     0.643460
      dxz     :     0.108073
      dyz     :     0.073680
      dx2y2   :     0.155094
      dxy     :     0.185498
  4 H s       :     0.706937  s :     0.706937
      pz      :     0.049029  p :     0.227611
      px      :     0.104113
      py      :     0.074469
  5 C s       :     2.695819  s :     2.695819
      pz      :     0.941589  p :     2.804397
      px      :     0.906806
      py      :     0.956002
      dz2     :     0.089582  d :     0.381042
      dxz     :     0.090502
      dyz     :     0.023817
      dx2y2   :     0.101701
      dxy     :     0.075439
  6 H s       :     0.591811  s :     0.591811
      pz      :     0.081551  p :     0.287789
      px      :     0.097087
      py      :     0.109150
  7 H s       :     0.593691  s :     0.593691
      pz      :     0.093756  p :     0.290812
      px      :     0.123434
      py      :     0.073622
  8 H s       :     0.597750  s :     0.597750
      pz      :     0.062262  p :     0.271867
      px      :     0.075850
      py      :     0.133754
  9 H s       :     0.714810  s :     0.714810
      pz      :     0.084709  p :     0.245732
      px      :     0.088543
      py      :     0.072481
 10 H s       :     0.703480  s :     0.703480
      pz      :     0.119400  p :     0.240811
      px      :     0.061481
      py      :     0.059930
 11 H s       :     0.735235  s :     0.735235
      pz      :     0.126778  p :     0.278993
      px      :     0.069187
      py      :     0.083028
 12 H s       :     0.719932  s :     0.719932
      pz      :     0.071738  p :     0.265241
      px      :     0.064630
      py      :     0.128874
 13 H s       :     0.724000  s :     0.724000
      pz      :     0.087190  p :     0.266769
      px      :     0.090380
      py      :     0.089200


                      *****************************
                      * MAYER POPULATION ANALYSIS *
                      *****************************

  NA   - Mulliken gross atomic population
  ZA   - Total nuclear charge
  QA   - Mulliken gross atomic charge
  VA   - Mayer's total valence
  BVA  - Mayer's bonded valence
  FA   - Mayer's free valence

  ATOM       NA         ZA         QA         VA         BVA        FA
  0 C      5.5644     6.0000     0.4356     3.8700     3.8700    -0.0000
  1 H      0.9515     1.0000     0.0485     1.0116     1.0116     0.0000
  2 N      7.9830     7.0000    -0.9830     3.0402     3.0402     0.0000
  3 C      6.4603     6.0000    -0.4603     4.9491     4.9491    -0.0000
  4 H      0.9622     1.0000     0.0378     1.0871     1.0871     0.0000
  5 C      5.5060     6.0000     0.4940     3.8846     3.8846    -0.0000
  6 H      0.5017     1.0000     0.4983     0.5792     0.5792     0.0000
  7 H      0.6133     1.0000     0.3867     0.7780     0.7780    -0.0000
  8 H      0.5700     1.0000     0.4300     0.6567     0.6567    -0.0000
  9 H      0.9854     1.0000     0.0146     1.0970     1.0970     0.0000
 10 H      0.9643     1.0000     0.0357     1.1398     1.1398    -0.0000
 11 H      1.0782     1.0000    -0.0782     1.1460     1.1460    -0.0000
 12 H      0.9410     1.0000     0.0590     1.0262     1.0262     0.0000
 13 H      0.9187     1.0000     0.0813     1.0516     1.0516    -0.0000

  Mayer bond orders larger than 0.100000
B(  0-C ,  1-H ) :   0.9296 B(  0-C ,  2-N ) :   0.7117 B(  0-C ,  3-C ) :   1.1442 
B(  0-C ,  4-H ) :   0.9259 B(  2-N ,  4-H ) :   0.1079 B(  2-N ,  6-H ) :   0.6136 
B(  2-N ,  7-H ) :   0.7736 B(  2-N ,  8-H ) :   0.6735 B(  3-C ,  5-C ) :   1.2583 
B(  3-C ,  9-H ) :   0.9714 B(  3-C , 10-H ) :   0.9966 B(  3-C , 11-H ) :   0.1463 
B(  3-C , 12-H ) :   0.1589 B(  3-C , 13-H ) :   0.1430 B(  5-C , 11-H ) :   0.8713 
B(  5-C , 12-H ) :   0.8390 B(  5-C , 13-H ) :   0.8311 

-------
TIMINGS
-------

Total SCF time: 0 days 0 hours 0 min 13 sec 

Total time                  ....      13.144 sec
Sum of individual times     ....      12.992 sec  ( 98.8%)

Fock matrix formation       ....      12.127 sec  ( 92.3%)
  Split-RI-J                ....       0.538 sec  (  4.4% of F)
  Chain of spheres X        ....       9.407 sec  ( 77.6% of F)
  XC integration            ....       2.159 sec  ( 17.8% of F)
    Basis function eval.    ....       0.732 sec  ( 33.9% of XC)
    Density eval.           ....       0.492 sec  ( 22.8% of XC)
    XC-Functional eval.     ....       0.213 sec  (  9.8% of XC)
    XC-Potential eval.      ....       0.645 sec  ( 29.9% of XC)
Diagonalization             ....       0.027 sec  (  0.2%)
Density matrix formation    ....       0.002 sec  (  0.0%)
Population analysis         ....       0.005 sec  (  0.0%)
Initial guess               ....       0.100 sec  (  0.8%)
Orbital Transformation      ....       0.000 sec  (  0.0%)
Orbital Orthonormalization  ....       0.000 sec  (  0.0%)
DIIS solution               ....       0.016 sec  (  0.1%)
SOSCF solution              ....       0.025 sec  (  0.2%)
Grid generation             ....       0.690 sec  (  5.2%)

Maximum memory used throughout the entire SCF-calculation: 20.4 MB

-------------------------   --------------------
FINAL SINGLE POINT ENERGY      -174.139045642396
-------------------------   --------------------


                            ***************************************
                            *     ORCA property calculations      *
                            ***************************************

                                    ---------------------
                                    Active property flags
                                    ---------------------
   (+) Dipole Moment


------------------------------------------------------------------------------
                       ORCA ELECTRIC PROPERTIES CALCULATION
------------------------------------------------------------------------------

Dipole Moment Calculation                       ... on
Quadrupole Moment Calculation                   ... off
Polarizability Calculation                      ... off
GBWName                                         ... 14Feb_SVPD_LC_PBE_A_wt_wb97_typ1_pos.gbw
Electron density file                           ... 14Feb_SVPD_LC_PBE_A_wt_wb97_typ1_pos.scfp
The origin for moment calculation is the CENTER OF MASS  = ( 0.770852, -2.607257 -4.996957)

-------------
DIPOLE MOMENT
-------------
                                X             Y             Z
Electronic contribution:      1.50303      -1.86091      -0.72912
Nuclear contribution   :     -0.52914       0.42437      -0.52967
                        -----------------------------------------
Total Dipole Moment    :      0.97389      -1.43654      -1.25880
                        -----------------------------------------
Magnitude (a.u.)       :      2.14399
Magnitude (Debye)      :      5.44958



--------------------
Rotational spectrum 
--------------------
 
Rotational constants in cm-1:     0.462856     0.150885     0.132529 
Rotational constants in MHz : 13876.083919  4523.416930  3973.119974 

 Dipole components along the rotational axes: 
x,y,z [a.u.] :     2.042353    -0.625288     0.185707 
x,y,z [Debye]:     5.191249    -1.589356     0.472029 

 

Timings for individual modules:

Sum of individual times         ...       13.691 sec (=   0.228 min)
GTO integral calculation        ...        0.348 sec (=   0.006 min)   2.5 %
SCF iterations                  ...       13.343 sec (=   0.222 min)  97.5 %
                             ****ORCA TERMINATED NORMALLY****
TOTAL RUN TIME: 0 days 0 hours 0 minutes 13 seconds 996 msec
