
                                        *****************
                                        * O   R   C   A *
                                        *****************

                                            #,                                       
                                            ###                                      
                                            ####                                     
                                            #####                                    
                                            ######                                   
                                           ########,                                 
                                     ,,################,,,,,                         
                               ,,#################################,,                 
                          ,,##########################################,,             
                       ,#########################################, ''#####,          
                    ,#############################################,,   '####,        
                  ,##################################################,,,,####,       
                ,###########''''           ''''###############################       
              ,#####''   ,,,,##########,,,,          '''####'''          '####       
            ,##' ,,,,###########################,,,                        '##       
           ' ,,###''''                  '''############,,,                           
         ,,##''                                '''############,,,,        ,,,,,,###''
      ,#''                                            '''#######################'''  
     '                                                          ''''####''''         
             ,#######,   #######,   ,#######,      ##                                
            ,#'     '#,  ##    ##  ,#'     '#,    #''#        ######   ,####,        
            ##       ##  ##   ,#'  ##            #'  '#       #        #'  '#        
            ##       ##  #######   ##           ,######,      #####,   #    #        
            '#,     ,#'  ##    ##  '#,     ,#' ,#      #,         ##   #,  ,#        
             '#######'   ##     ##  '#######'  #'      '#     #####' # '####'        



                  #######################################################
                  #                        -***-                        #
                  #          Department of theory and spectroscopy      #
                  #    Directorship and core code : Frank Neese         #
                  #        Max Planck Institute fuer Kohlenforschung    #
                  #                Kaiser Wilhelm Platz 1               #
                  #                 D-45470 Muelheim/Ruhr               #
                  #                      Germany                        #
                  #                                                     #
                  #                  All rights reserved                #
                  #                        -***-                        #
                  #######################################################


                         Program Version 5.0.0 -  RELEASE  -
                                (SVN: $Rev: 19529$)
                ($Date: 2021-06-28 11:36:33 +0200 (Mo, 28 Jun 2021) $)


 With contributions from (in alphabetic order):
   Daniel Aravena         : Magnetic Suceptibility
   Michael Atanasov       : Ab Initio Ligand Field Theory (pilot matlab implementation)
   Alexander A. Auer      : GIAO ZORA, VPT2 properties, NMR spectrum
   Ute Becker             : Parallelization
   Giovanni Bistoni       : ED, misc. LED, open-shell LED, HFLD
   Martin Brehm           : Molecular dynamics
   Dmytro Bykov           : SCF Hessian
   Vijay G. Chilkuri      : MRCI spin determinant printing, contributions to CSF-ICE
   Dipayan Datta          : RHF DLPNO-CCSD density
   Achintya Kumar Dutta   : EOM-CC, STEOM-CC
   Dmitry Ganyushin       : Spin-Orbit,Spin-Spin,Magnetic field MRCI
   Miquel Garcia          : C-PCM Hessian, Gaussian charge scheme
   Yang Guo               : DLPNO-NEVPT2, F12-NEVPT2, CIM, IAO-localization
   Andreas Hansen         : Spin unrestricted coupled pair/coupled cluster methods
   Benjamin Helmich-Paris : MC-RPA, TRAH-SCF, COSX integrals
   Lee Huntington         : MR-EOM, pCC
   Robert Izsak           : Overlap fitted RIJCOSX, COSX-SCS-MP3, EOM
   Marcus Kettner         : VPT2
   Christian Kollmar      : KDIIS, OOCD, Brueckner-CCSD(T), CCSD density, CASPT2, CASPT2-K
   Simone Kossmann        : Meta GGA functionals, TD-DFT gradient, OOMP2, MP2 Hessian
   Martin Krupicka        : Initial AUTO-CI
   Lucas Lang             : DCDCAS
   Marvin Lechner         : AUTO-CI (C++ implementation), FIC-MRCC
   Dagmar Lenk            : GEPOL surface, SMD
   Dimitrios Liakos       : Extrapolation schemes; Compound Job, initial MDCI parallelization
   Dimitrios Manganas     : Further ROCIS development; embedding schemes
   Dimitrios Pantazis     : SARC Basis sets
   Anastasios Papadopoulos: AUTO-CI, single reference methods and gradients
   Taras Petrenko         : DFT Hessian,TD-DFT gradient, ASA, ECA, R-Raman, ABS, FL, XAS/XES, NRVS
   Peter Pinski           : DLPNO-MP2, DLPNO-MP2 Gradient
   Christoph Reimann      : Effective Core Potentials
   Marius Retegan         : Local ZFS, SOC
   Christoph Riplinger    : Optimizer, TS searches, QM/MM, DLPNO-CCSD(T), (RO)-DLPNO pert. Triples
   Tobias Risthaus        : Range-separated hybrids, TD-DFT gradient, RPA, STAB
   Michael Roemelt        : Original ROCIS implementation
   Masaaki Saitow         : Open-shell DLPNO-CCSD energy and density
   Barbara Sandhoefer     : DKH picture change effects
   Avijit Sen             : IP-ROCIS
   Kantharuban Sivalingam : CASSCF convergence, NEVPT2, FIC-MRCI
   Bernardo de Souza      : ESD, SOC TD-DFT
   Georgi Stoychev        : AutoAux, RI-MP2 NMR
   Willem Van den Heuvel  : Paramagnetic NMR
   Boris Wezisla          : Elementary symmetry handling
   Frank Wennmohs         : Technical directorship


 We gratefully acknowledge several colleagues who have allowed us to
 interface, adapt or use parts of their codes:
   Stefan Grimme, W. Hujo, H. Kruse, P. Pracht,  : VdW corrections, initial TS optimization,
                  C. Bannwarth, S. Ehlert          DFT functionals, gCP, sTDA/sTD-DF
   Ed Valeev, F. Pavosevic, A. Kumar             : LibInt (2-el integral package), F12 methods
   Garnet Chan, S. Sharma, J. Yang, R. Olivares  : DMRG
   Ulf Ekstrom                                   : XCFun DFT Library
   Mihaly Kallay                                 : mrcc  (arbitrary order and MRCC methods)
   Jiri Pittner, Ondrej Demel                    : Mk-CCSD
   Frank Weinhold                                : gennbo (NPA and NBO analysis)
   Christopher J. Cramer and Donald G. Truhlar   : smd solvation model
   Lars Goerigk                                  : TD-DFT with DH, B97 family of functionals
   V. Asgeirsson, H. Jonsson                     : NEB implementation
   FAccTs GmbH                                   : IRC, NEB, NEB-TS, DLPNO-Multilevel, CI-OPT
                                                   MM, QMMM, 2- and 3-layer-ONIOM, Crystal-QMMM,
                                                   LR-CPCM, SF, NACMEs, symmetry and pop. for TD-DFT,
                                                   nearIR, NL-DFT gradient (VV10), updates on ESD,
                                                   ML-optimized integration grids
   S Lehtola, MJT Oliveira, MAL Marques          : LibXC Library
   Liviu Ungur et al                             : ANISO software


 Your calculation uses the libint2 library for the computation of 2-el integrals
 For citations please refer to: http://libint.valeyev.net

 Your ORCA version has been built with support for libXC version: 5.1.0
 For citations please refer to: https://tddft.org/programs/libxc/

 This ORCA versions uses:
   CBLAS   interface :  Fast vector & matrix operations
   LAPACKE interface :  Fast linear algebra routines
   SCALAPACK package :  Parallel linear algebra routines
   Shared memory     :  Shared parallel matrices
   BLAS/LAPACK       :  OpenBLAS 0.3.15  USE64BITINT DYNAMIC_ARCH NO_AFFINITY Haswell SINGLE_THREADED
        Core in use  :  Haswell
   Copyright (c) 2011-2014, The OpenBLAS Project


Your calculation utilizes the atom-pairwise dispersion correction
with the Becke-Johnson damping scheme (D3BJ)
Cite in your paper:
S.Grimme, S.Ehrlich, L.Goerigk, J Comput Chem, (2011), 32, 1456–1465 
S.Grimme, J.Antony, S.Ehrlich and H.Krieg, J.Chem.Phys., 132, (2010), 154104 
   

================================================================================

----- Orbital basis set information -----
Your calculation utilizes the basis: def2-TZVPD
   F. Weigend and R. Ahlrichs, Phys. Chem. Chem. Phys. 7, 3297 (2005).
   D. Rappoport and F. Furche, J. Chem. Phys. 133 134105 (2010).

----- AuxJ basis set information -----
Your calculation utilizes the auxiliary basis: def2/J
   F. Weigend, Phys. Chem. Chem. Phys. 8, 1057 (2006).

================================================================================
                                        WARNINGS
                       Please study these warnings very carefully!
================================================================================



WARNING: Found flag for RIJCOSX approximation but no HF exchange needed!
  ===> : RIJCOSX  will be disabled and Split-RI-J is turned on

INFO   : the flag for use of the SHARK integral package has been found!

================================================================================
                                       INPUT FILE
================================================================================
NAME = TZVPD_PBE_A_wt_dlpno_neg.com
|  1> !PBE D3BJ RIJCOSX def2-TZVPD def2/J TightSCF
|  2> *xyz -1 1
|  3> C         -0.87096        0.24804       -2.66280
|  4> C         -0.47749        0.60819       -4.10105
|  5> H          0.20677        1.45830       -4.11875
|  6> H         -1.36844        0.92942       -4.64785
|  7> C          0.18467       -0.50664       -4.91676
|  8> O         -0.15869       -1.70109       -4.65798
|  9> O          1.05594       -0.17441       -5.74037
| 10> H         -1.54056       -0.58646       -2.67455
| 11> H         -1.35339        1.08600       -2.20455
| 12> H          0.00660       -0.00662       -2.10609
| 13> *
| 14> 
| 15> %MaxCore 64000
| 16> 
| 17> %pal nprocs 4
| 18> end  
| 19> 
| 20> %scf
| 21>   MaxIter 150
| 22> end
| 23> 
| 24> 
| 25>                          ****END OF INPUT****
================================================================================

                       ****************************
                       * Single Point Calculation *
                       ****************************

---------------------------------
CARTESIAN COORDINATES (ANGSTROEM)
---------------------------------
  C     -0.870960    0.248040   -2.662800
  C     -0.477490    0.608190   -4.101050
  H      0.206770    1.458300   -4.118750
  H     -1.368440    0.929420   -4.647850
  C      0.184670   -0.506640   -4.916760
  O     -0.158690   -1.701090   -4.657980
  O      1.055940   -0.174410   -5.740370
  H     -1.540560   -0.586460   -2.674550
  H     -1.353390    1.086000   -2.204550
  H      0.006600   -0.006620   -2.106090

----------------------------
CARTESIAN COORDINATES (A.U.)
----------------------------
  NO LB      ZA    FRAG     MASS         X           Y           Z
   0 C     6.0000    0    12.011   -1.645876    0.468728   -5.031963
   1 C     6.0000    0    12.011   -0.902325    1.149313   -7.749861
   2 H     1.0000    0     1.008    0.390739    2.755788   -7.783310
   3 H     1.0000    0     1.008   -2.585977    1.756349   -8.783164
   4 C     6.0000    0    12.011    0.348976   -0.957411   -9.291330
   5 O     8.0000    0    15.999   -0.299881   -3.214594   -8.802307
   6 O     8.0000    0    15.999    1.995437   -0.329587  -10.847727
   7 H     1.0000    0     1.008   -2.911236   -1.108249   -5.054167
   8 H     1.0000    0     1.008   -2.557536    2.052243   -4.165996
   9 H     1.0000    0     1.008    0.012472   -0.012510   -3.979933

--------------------------------
INTERNAL COORDINATES (ANGSTROEM)
--------------------------------
 C      0   0   0     0.000000000000     0.00000000     0.00000000
 C      1   0   0     1.533978398120     0.00000000     0.00000000
 H      2   1   0     1.091426612146   111.03194629     0.00000000
 H      2   1   3     1.093604524223   109.19524702   243.60560484
 C      2   1   3     1.531889225303   116.05717792   122.04169196
 O      5   2   1     1.269477837735   117.34060562    31.12046858
 O      5   2   1     1.244114792895   117.44393262   214.04945783
 H      1   2   3     1.069996482471   109.47107572   179.99941746
 H      1   2   3     1.070004078964   109.47075608    60.00022000
 H      1   2   3     1.069994996857   109.47099921   299.99993776

---------------------------
INTERNAL COORDINATES (A.U.)
---------------------------
 C      0   0   0     0.000000000000     0.00000000     0.00000000
 C      1   0   0     2.898799067799     0.00000000     0.00000000
 H      2   1   0     2.062497392229   111.03194629     0.00000000
 H      2   1   3     2.066613049598   109.19524702   243.60560484
 C      2   1   3     2.894851103328   116.05717792   122.04169196
 O      5   2   1     2.398965446401   117.34060562    31.12046858
 O      5   2   1     2.351036237732   117.44393262   214.04945783
 H      1   2   3     2.022000316129   109.47107572   179.99941746
 H      1   2   3     2.022014671421   109.47075608    60.00022000
 H      1   2   3     2.021997508727   109.47099921   299.99993776

---------------------
BASIS SET INFORMATION
---------------------
There are 3 groups of distinct atoms

 Group   1 Type C   : 12s6p3d1f contracted to 6s3p3d1f pattern {621111/411/111/1}
 Group   2 Type H   : 5s2p contracted to 3s2p pattern {311/11}
 Group   3 Type O   : 12s7p3d1f contracted to 6s4p3d1f pattern {621111/4111/111/1}

Atom   0C    basis set group =>   1
Atom   1C    basis set group =>   1
Atom   2H    basis set group =>   2
Atom   3H    basis set group =>   2
Atom   4C    basis set group =>   1
Atom   5O    basis set group =>   3
Atom   6O    basis set group =>   3
Atom   7H    basis set group =>   2
Atom   8H    basis set group =>   2
Atom   9H    basis set group =>   2
---------------------------------
AUXILIARY/J BASIS SET INFORMATION
---------------------------------
There are 3 groups of distinct atoms

 Group   1 Type C   : 12s5p4d2f1g contracted to 6s4p3d1f1g pattern {711111/2111/211/2/1}
 Group   2 Type H   : 5s2p1d contracted to 3s1p1d pattern {311/2/1}
 Group   3 Type O   : 12s5p4d2f1g contracted to 6s4p3d1f1g pattern {711111/2111/211/2/1}

Atom   0C    basis set group =>   1
Atom   1C    basis set group =>   1
Atom   2H    basis set group =>   2
Atom   3H    basis set group =>   2
Atom   4C    basis set group =>   1
Atom   5O    basis set group =>   3
Atom   6O    basis set group =>   3
Atom   7H    basis set group =>   2
Atom   8H    basis set group =>   2
Atom   9H    basis set group =>   2


           ************************************************************
           *        Program running with 4 parallel MPI-processes     *
           *              working on a common directory               *
           ************************************************************
------------------------------------------------------------------------------
                           ORCA GTO INTEGRAL CALCULATION
                           -- RI-GTO INTEGRALS CHOSEN --
------------------------------------------------------------------------------
------------------------------------------------------------------------------
                   ___                                                        
                  /   \      - P O W E R E D   B Y -                         
                 /     \                                                     
                 |  |  |   _    _      __       _____    __    __             
                 |  |  |  | |  | |    /  \     |  _  \  |  |  /  |          
                  \  \/   | |  | |   /    \    | | | |  |  | /  /          
                 / \  \   | |__| |  /  /\  \   | |_| |  |  |/  /          
                |  |  |   |  __  | /  /__\  \  |    /   |      \           
                |  |  |   | |  | | |   __   |  |    \   |  |\   \          
                \     /   | |  | | |  |  |  |  | |\  \  |  | \   \       
                 \___/    |_|  |_| |__|  |__|  |_| \__\ |__|  \__/        
                                                                              
                      - O R C A' S   B I G   F R I E N D -                    
                                      &                                       
                       - I N T E G R A L  F E E D E R -                       
                                                                              
 v1 FN, 2020, v2 2021                                                         
------------------------------------------------------------------------------


Reading SHARK input file TZVPD_PBE_A_wt_dlpno_neg.SHARKINP.tmp ... ok
----------------------
SHARK INTEGRAL PACKAGE
----------------------

Number of atoms                             ...     10
Number of basis functions                   ...    236
Number of shells                            ...     92
Maximum angular momentum                    ...      3
Integral batch strategy                     ... SHARK/LIBINT Hybrid
RI-J (if used) integral strategy            ... SPLIT-RIJ (Revised 2003 algorithm where possible)
Printlevel                                  ...      1
Contraction scheme used                     ... SEGMENTED contraction
Coulomb Range Separation                    ... NOT USED
Exchange Range Separation                   ... NOT USED
Finite Nucleus Model                        ... NOT USED
Auxiliary Coulomb fitting basis             ... AVAILABLE
   # of basis functions in Aux-J            ...    300
   # of shells in Aux-J                     ...    100
   Maximum angular momentum in Aux-J        ...      4
Auxiliary J/K fitting basis                 ... NOT available
Auxiliary Correlation fitting basis         ... NOT available
Auxiliary 'external' fitting basis          ... NOT available
Integral threshold                          ...     2.500000e-11
Primitive cut-off                           ...     2.500000e-12
Primitive pair pre-selection threshold      ...     2.500000e-12

Calculating pre-screening integrals         ... done (  0.1 sec) Dimension = 92
Organizing shell pair data                  ... done (  0.1 sec)
Shell pair information
Total number of shell pairs                 ...      4278
Shell pairs after pre-screening             ...      4166
Total number of primitive shell pairs       ...     11003
Primitive shell pairs kept                  ...      8976
          la=0 lb=0:    978 shell pairs
          la=1 lb=0:   1192 shell pairs
          la=1 lb=1:    376 shell pairs
          la=2 lb=0:    659 shell pairs
          la=2 lb=1:    402 shell pairs
          la=2 lb=2:    119 shell pairs
          la=3 lb=0:    216 shell pairs
          la=3 lb=1:    134 shell pairs
          la=3 lb=2:     75 shell pairs
          la=3 lb=3:     15 shell pairs

Calculating one electron integrals          ... done (  0.0 sec)
Calculating RI/J V-Matrix + Cholesky decomp.... done (  0.0 sec)
Calculating Nuclear repulsion               ... done (  0.0 sec) ENN=    168.606328612566 Eh

SHARK setup successfully completed in   0.3 seconds

Maximum memory used throughout the entire GTOINT-calculation: 13.9 MB


           ************************************************************
           *        Program running with 4 parallel MPI-processes     *
           *              working on a common directory               *
           ************************************************************
-------------------------------------------------------------------------------
                                 ORCA SCF
-------------------------------------------------------------------------------

------------
SCF SETTINGS
------------
Hamiltonian:
 Density Functional     Method          .... DFT(GTOs)
 Exchange Functional    Exchange        .... PBE
   PBE kappa parameter   XKappa         ....  0.804000
   PBE mue parameter    XMuePBE         ....  0.219520
 Correlation Functional Correlation     .... PBE
   PBE beta parameter  CBetaPBE         ....  0.066725
 LDA part of GGA corr.  LDAOpt          .... PW91-LDA
 Gradients option       PostSCFGGA      .... off
   Density functional embedding theory  .... OFF
   NL short-range parameter             ....  6.400000
 RI-approximation to the Coulomb term is turned on
   Number of AuxJ basis functions       .... 300


General Settings:
 Integral files         IntName         .... TZVPD_PBE_A_wt_dlpno_neg
 Hartree-Fock type      HFTyp           .... RHF
 Total Charge           Charge          ....   -1
 Multiplicity           Mult            ....    1
 Number of Electrons    NEL             ....   40
 Basis Dimension        Dim             ....  236
 Nuclear Repulsion      ENuc            ....    168.6063286126 Eh

Convergence Acceleration:
 DIIS                   CNVDIIS         .... on
   Start iteration      DIISMaxIt       ....    12
   Startup error        DIISStart       ....  0.200000
   # of expansion vecs  DIISMaxEq       ....     5
   Bias factor          DIISBfac        ....   1.050
   Max. coefficient     DIISMaxC        ....  10.000
 Trust-Rad. Augm. Hess. CNVTRAH         .... auto
   Auto Start mean grad. ratio tolernc. ....  1.125000
   Auto Start start iteration           ....    20
   Auto Start num. interpolation iter.  ....    10
   Max. Number of Micro iterations      ....    16
   Max. Number of Macro iterations      .... Maxiter - #DIIS iter
   Number of Davidson start vectors     ....     2
   Converg. threshold I  (grad. norm)   ....   1.000e-05
   Converg. threshold II (energy diff.) ....   1.000e-08
   Grad. Scal. Fac. for Micro threshold ....   0.100
   Minimum threshold for Micro iter.    ....   0.010
   NR start threshold (gradient norm)   ....   0.001
   Initial trust radius                 ....   0.400
   Minimum AH scaling param. (alpha)    ....   1.000
   Maximum AH scaling param. (alpha)    .... 1000.000
   Orbital update algorithm             .... Taylor
   White noise on init. David. guess    .... on
   Maximum white noise                  ....   0.010
   Quad. conv. algorithm                .... NR
 SOSCF                  CNVSOSCF        .... on
   Start iteration      SOSCFMaxIt      ....   150
   Startup grad/error   SOSCFStart      ....  0.003300
 Level Shifting         CNVShift        .... on
   Level shift para.    LevelShift      ....    0.2500
   Turn off err/grad.   ShiftErr        ....    0.0010
 Zerner damping         CNVZerner       .... off
 Static damping         CNVDamp         .... on
   Fraction old density DampFac         ....    0.7000
   Max. Damping (<1)    DampMax         ....    0.9800
   Min. Damping (>=0)   DampMin         ....    0.0000
   Turn off err/grad.   DampErr         ....    0.1000
 Fernandez-Rico         CNVRico         .... off

SCF Procedure:
 Maximum # iterations   MaxIter         ....   150
 SCF integral mode      SCFMode         .... Direct
   Integral package                     .... SHARK and LIBINT hybrid scheme
 Reset frequency        DirectResetFreq ....    20
 Integral Threshold     Thresh          ....  2.500e-11 Eh
 Primitive CutOff       TCut            ....  2.500e-12 Eh

Convergence Tolerance:
 Convergence Check Mode ConvCheckMode   .... Total+1el-Energy
 Convergence forced     ConvForced      .... 0
 Energy Change          TolE            ....  1.000e-08 Eh
 1-El. energy change                    ....  1.000e-05 Eh
 Orbital Gradient       TolG            ....  1.000e-05
 Orbital Rotation angle TolX            ....  1.000e-05
 DIIS Error             TolErr          ....  5.000e-07


Diagonalization of the overlap matrix:
Smallest eigenvalue                        ... 9.829e-06
Time for diagonalization                   ...    0.013 sec
Threshold for overlap eigenvalues          ... 1.000e-08
Number of eigenvalues below threshold      ... 0
Time for construction of square roots      ...    0.010 sec
Total time needed                          ...    0.024 sec

Time for model grid setup =    0.100 sec

------------------------------
INITIAL GUESS: MODEL POTENTIAL
------------------------------
Loading Hartree-Fock densities                     ... done
Calculating cut-offs                               ... done
Initializing the effective Hamiltonian             ... done
Setting up the integral package (SHARK)            ... done
Starting the Coulomb interaction                   ... done (   0.1 sec)
Reading the grid                                   ... done
Mapping shells                                     ... done
Starting the XC term evaluation                    ... done (   0.2 sec)
  promolecular density results
     # of electrons  =     38.996598240
     EX              =    -33.066793301
     EC              =     -1.282532653
     EX+EC           =    -34.349325955
Transforming the Hamiltonian                       ... done (   0.0 sec)
Diagonalizing the Hamiltonian                      ... done (   0.0 sec)
Back transforming the eigenvectors                 ... done (   0.0 sec)
Now organizing SCF variables                       ... done
                      ------------------
                      INITIAL GUESS DONE (   0.4 sec)
                      ------------------
-------------------
DFT GRID GENERATION
-------------------

General Integration Accuracy     IntAcc      ... 4.388
Radial Grid Type                 RadialGrid  ... OptM3 with GC (2021)
Angular Grid (max. ang.)         AngularGrid ... 4 (Lebedev-302)
Angular grid pruning method      GridPruning ... 4 (adaptive)
Weight generation scheme         WeightScheme... Becke
Basis function cutoff            BFCut       ... 1.0000e-11
Integration weight cutoff        WCut        ... 1.0000e-14
Angular grids for H and He will be reduced by one unit
Partially contracted basis set               ... off
Rotationally invariant grid construction     ... off

Total number of grid points                  ...    49026
Total number of batches                      ...      772
Average number of points per batch           ...       63
Average number of grid points per atom       ...     4903
Time for grid setup =    0.444 sec

--------------
SCF ITERATIONS
--------------
ITER       Energy         Delta-E        Max-DP      RMS-DP      [F,P]     Damp
               ***  Starting incremental Fock matrix formation  ***
  0   -267.3273442525   0.000000000000 0.07186129  0.00214151  0.3186266 0.7000
  1   -267.4887015993  -0.161357346704 0.06898685  0.00189005  0.0981938 0.7000
                               ***Turning on DIIS***
  2   -267.5325098174  -0.043808218100 0.14732714  0.00404515  0.0281273 0.0000
  3   -267.6152391914  -0.082729374054 0.05284379  0.00134755  0.0658401 0.0000
  4   -267.6337118303  -0.018472638865 0.03491220  0.00079851  0.0283316 0.0000
                      *** Initiating the SOSCF procedure ***
                           *** Shutting down DIIS ***
                      *** Re-Reading the Fockian *** 
                      *** Removing any level shift *** 
ITER      Energy       Delta-E        Grad      Rot      Max-DP    RMS-DP
  5   -267.63664846  -0.0029366337  0.001407  0.001407  0.022386  0.000590
               *** Restarting incremental Fock matrix formation ***
  6   -267.63681424  -0.0001657763  0.000877  0.008423  0.045398  0.001148
  7   -267.63683958  -0.0000253362  0.001416  0.004314  0.020265  0.000540
  8   -267.63682880   0.0000107778  0.001469  0.004852  0.019353  0.000559
  9   -267.63685948  -0.0000306766  0.000324  0.000958  0.005670  0.000145
 10   -267.63685811   0.0000013621  0.000403  0.001527  0.006795  0.000189
 11   -267.63686531  -0.0000071928  0.000119  0.000243  0.000441  0.000014
 12   -267.63686420   0.0000011107  0.000195  0.000155  0.000888  0.000024
 13   -267.63686576  -0.0000015619  0.000005  0.000025  0.000116  0.000003
 14   -267.63686575   0.0000000042  0.000008  0.000005  0.000082  0.000001
                  ***Gradient check signals convergence***
              ***Rediagonalizing the Fockian in SOSCF/NRSCF***

               *****************************************************
               *                     SUCCESS                       *
               *           SCF CONVERGED AFTER  15 CYCLES          *
               *****************************************************


----------------
TOTAL SCF ENERGY
----------------

Total Energy       :         -267.63686576 Eh           -7282.76937 eV

Components:
Nuclear Repulsion  :          168.60632861 Eh            4588.01145 eV
Electronic Energy  :         -436.24319437 Eh          -11870.78082 eV
One Electron Energy:         -707.39168323 Eh          -19249.10631 eV
Two Electron Energy:          271.14848886 Eh            7378.32549 eV

Virial components:
Potential Energy   :         -534.38323301 Eh          -14541.30704 eV
Kinetic Energy     :          266.74636725 Eh            7258.53767 eV
Virial Ratio       :            2.00333837


DFT components:
N(Alpha)           :       19.999702055387 electrons
N(Beta)            :       19.999702055387 electrons
N(Total)           :       39.999404110773 electrons
E(X)               :      -33.951622176078 Eh       
E(C)               :       -1.318923511949 Eh       
E(XC)              :      -35.270545688027 Eh       
DFET-embed. en.    :        0.000000000000 Eh       

---------------
SCF CONVERGENCE
---------------

  Last Energy change         ...   -3.9926e-09  Tolerance :   1.0000e-08
  Last MAX-Density change    ...    7.5529e-05  Tolerance :   1.0000e-07
  Last RMS-Density change    ...    1.3206e-06  Tolerance :   5.0000e-09
  Last Orbital Gradient      ...    7.2604e-07  Tolerance :   1.0000e-05
  Last Orbital Rotation      ...    5.3338e-06  Tolerance :   1.0000e-05

             **** THE GBW FILE WAS UPDATED (TZVPD_PBE_A_wt_dlpno_neg.gbw) ****
             **** DENSITY TZVPD_PBE_A_wt_dlpno_neg.scfp WAS UPDATED ****
             **** ENERGY FILE WAS UPDATED (TZVPD_PBE_A_wt_dlpno_neg.en.tmp) ****
             **** THE GBW FILE WAS UPDATED (TZVPD_PBE_A_wt_dlpno_neg.gbw) ****
             **** DENSITY TZVPD_PBE_A_wt_dlpno_neg.scfp WAS UPDATED ****
----------------
ORBITAL ENERGIES
----------------

  NO   OCC          E(Eh)            E(eV) 
   0   2.0000     -18.490403      -503.1495 
   1   2.0000     -18.487739      -503.0770 
   2   2.0000      -9.755739      -265.4672 
   3   2.0000      -9.713873      -264.3279 
   4   2.0000      -9.707252      -264.1478 
   5   2.0000      -0.734215       -19.9790 
   6   2.0000      -0.645169       -17.5559 
   7   2.0000      -0.531078       -14.4514 
   8   2.0000      -0.410773       -11.1777 
   9   2.0000      -0.264159        -7.1881 
  10   2.0000      -0.243789        -6.6338 
  11   2.0000      -0.209796        -5.7088 
  12   2.0000      -0.181895        -4.9496 
  13   2.0000      -0.168869        -4.5952 
  14   2.0000      -0.158420        -4.3108 
  15   2.0000      -0.132193        -3.5971 
  16   2.0000      -0.117290        -3.1916 
  17   2.0000      -0.013014        -0.3541 
  18   2.0000       0.000379         0.0103 
  19   2.0000       0.017142         0.4665 
  20   0.0000       0.119767         3.2590 
  21   0.0000       0.145642         3.9631 
  22   0.0000       0.159267         4.3339 
  23   0.0000       0.168165         4.5760 
  24   0.0000       0.189828         5.1655 
  25   0.0000       0.194570         5.2945 
  26   0.0000       0.203578         5.5396 
  27   0.0000       0.213230         5.8023 
  28   0.0000       0.217469         5.9176 
  29   0.0000       0.223331         6.0771 
  30   0.0000       0.237613         6.4658 
  31   0.0000       0.246180         6.6989 
  32   0.0000       0.257495         7.0068 
  33   0.0000       0.262282         7.1371 
  34   0.0000       0.272570         7.4170 
  35   0.0000       0.290965         7.9176 
  36   0.0000       0.308841         8.4040 
  37   0.0000       0.317539         8.6407 
  38   0.0000       0.326294         8.8789 
  39   0.0000       0.334327         9.0975 
  40   0.0000       0.345833         9.4106 
  41   0.0000       0.356910         9.7120 
  42   0.0000       0.360214         9.8019 
  43   0.0000       0.380192        10.3455 
  44   0.0000       0.389961        10.6114 
  45   0.0000       0.391996        10.6668 
  46   0.0000       0.401650        10.9294 
  47   0.0000       0.410432        11.1684 
  48   0.0000       0.413640        11.2557 
  49   0.0000       0.421406        11.4670 
  50   0.0000       0.436808        11.8862 
  51   0.0000       0.444209        12.0875 
  52   0.0000       0.453111        12.3298 
  53   0.0000       0.454920        12.3790 
  54   0.0000       0.464907        12.6508 
  55   0.0000       0.471417        12.8279 
  56   0.0000       0.493665        13.4333 
  57   0.0000       0.502980        13.6868 
  58   0.0000       0.511948        13.9308 
  59   0.0000       0.513375        13.9696 
  60   0.0000       0.525903        14.3105 
  61   0.0000       0.535377        14.5683 
  62   0.0000       0.543220        14.7818 
  63   0.0000       0.550229        14.9725 
  64   0.0000       0.565455        15.3868 
  65   0.0000       0.571788        15.5591 
  66   0.0000       0.581946        15.8356 
  67   0.0000       0.588846        16.0233 
  68   0.0000       0.600280        16.3344 
  69   0.0000       0.604632        16.4529 
  70   0.0000       0.621241        16.9048 
  71   0.0000       0.639207        17.3937 
  72   0.0000       0.656935        17.8761 
  73   0.0000       0.664488        18.0816 
  74   0.0000       0.679916        18.5015 
  75   0.0000       0.707434        19.2503 
  76   0.0000       0.721330        19.6284 
  77   0.0000       0.724204        19.7066 
  78   0.0000       0.728441        19.8219 
  79   0.0000       0.747867        20.3505 
  80   0.0000       0.755918        20.5696 
  81   0.0000       0.770166        20.9573 
  82   0.0000       0.786779        21.4093 
  83   0.0000       0.789622        21.4867 
  84   0.0000       0.795951        21.6589 
  85   0.0000       0.797036        21.6884 
  86   0.0000       0.808052        21.9882 
  87   0.0000       0.819920        22.3112 
  88   0.0000       0.827343        22.5132 
  89   0.0000       0.830218        22.5914 
  90   0.0000       0.845089        22.9961 
  91   0.0000       0.856983        23.3197 
  92   0.0000       0.873450        23.7678 
  93   0.0000       0.882651        24.0182 
  94   0.0000       0.906462        24.6661 
  95   0.0000       0.931857        25.3571 
  96   0.0000       0.936096        25.4725 
  97   0.0000       0.972009        26.4497 
  98   0.0000       1.036195        28.1963 
  99   0.0000       1.042074        28.3563 
 100   0.0000       1.063096        28.9283 
 101   0.0000       1.077083        29.3089 
 102   0.0000       1.081525        29.4298 
 103   0.0000       1.110626        30.2217 
 104   0.0000       1.123120        30.5616 
 105   0.0000       1.139305        31.0021 
 106   0.0000       1.172646        31.9093 
 107   0.0000       1.242405        33.8076 
 108   0.0000       1.254705        34.1423 
 109   0.0000       1.296330        35.2749 
 110   0.0000       1.310014        35.6473 
 111   0.0000       1.353497        36.8305 
 112   0.0000       1.365294        37.1516 
 113   0.0000       1.375808        37.4377 
 114   0.0000       1.385768        37.7087 
 115   0.0000       1.424552        38.7640 
 116   0.0000       1.446159        39.3520 
 117   0.0000       1.496731        40.7281 
 118   0.0000       1.507126        41.0110 
 119   0.0000       1.609915        43.8080 
 120   0.0000       1.671100        45.4729 
 121   0.0000       1.733197        47.1627 
 122   0.0000       1.828004        49.7425 
 123   0.0000       1.863761        50.7155 
 124   0.0000       1.883733        51.2590 
 125   0.0000       1.889188        51.4074 
 126   0.0000       1.910709        51.9930 
 127   0.0000       1.920597        52.2621 
 128   0.0000       1.932689        52.5912 
 129   0.0000       1.947711        52.9999 
 130   0.0000       1.960300        53.3425 
 131   0.0000       1.969464        53.5918 
 132   0.0000       2.008462        54.6530 
 133   0.0000       2.025737        55.1231 
 134   0.0000       2.058193        56.0063 
 135   0.0000       2.120196        57.6935 
 136   0.0000       2.135012        58.0966 
 137   0.0000       2.178362        59.2763 
 138   0.0000       2.202605        59.9359 
 139   0.0000       2.240703        60.9726 
 140   0.0000       2.252467        61.2927 
 141   0.0000       2.301743        62.6336 
 142   0.0000       2.354453        64.0679 
 143   0.0000       2.396073        65.2005 
 144   0.0000       2.451264        66.7023 
 145   0.0000       2.462478        67.0074 
 146   0.0000       2.478611        67.4464 
 147   0.0000       2.494254        67.8721 
 148   0.0000       2.558673        69.6250 
 149   0.0000       2.573814        70.0370 
 150   0.0000       2.588968        70.4494 
 151   0.0000       2.625119        71.4331 
 152   0.0000       2.644412        71.9581 
 153   0.0000       2.697652        73.4068 
 154   0.0000       2.725440        74.1630 
 155   0.0000       2.766194        75.2720 
 156   0.0000       2.798599        76.1538 
 157   0.0000       2.822070        76.7924 
 158   0.0000       2.838969        77.2523 
 159   0.0000       2.897666        78.8495 
 160   0.0000       2.916855        79.3717 
 161   0.0000       2.953371        80.3653 
 162   0.0000       2.998486        81.5929 
 163   0.0000       3.042055        82.7785 
 164   0.0000       3.104267        84.4714 
 165   0.0000       3.117490        84.8312 
 166   0.0000       3.208725        87.3138 
 167   0.0000       3.227494        87.8246 
 168   0.0000       3.256851        88.6234 
 169   0.0000       3.278944        89.2246 
 170   0.0000       3.310427        90.0813 
 171   0.0000       3.320555        90.3569 
 172   0.0000       3.338286        90.8394 
 173   0.0000       3.352408        91.2237 
 174   0.0000       3.419433        93.0475 
 175   0.0000       3.433505        93.4304 
 176   0.0000       3.441226        93.6405 
 177   0.0000       3.461084        94.1809 
 178   0.0000       3.512798        95.5881 
 179   0.0000       3.527808        95.9965 
 180   0.0000       3.570787        97.1660 
 181   0.0000       3.597239        97.8858 
 182   0.0000       3.627299        98.7038 
 183   0.0000       3.637642        98.9853 
 184   0.0000       3.657626        99.5291 
 185   0.0000       3.688063       100.3573 
 186   0.0000       3.717151       101.1488 
 187   0.0000       3.727652       101.4346 
 188   0.0000       3.757251       102.2400 
 189   0.0000       3.773882       102.6925 
 190   0.0000       3.896211       106.0213 
 191   0.0000       4.027813       109.6024 
 192   0.0000       4.055116       110.3453 
 193   0.0000       4.079528       111.0096 
 194   0.0000       4.147712       112.8650 
 195   0.0000       4.182642       113.8155 
 196   0.0000       4.329111       117.8011 
 197   0.0000       4.330069       117.8272 
 198   0.0000       4.520164       122.9999 
 199   0.0000       4.573917       124.4626 
 200   0.0000       4.660387       126.8156 
 201   0.0000       4.725722       128.5934 
 202   0.0000       4.754280       129.3705 
 203   0.0000       4.822117       131.2165 
 204   0.0000       4.844260       131.8190 
 205   0.0000       4.992548       135.8541 
 206   0.0000       5.050119       137.4207 
 207   0.0000       5.286022       143.8400 
 208   0.0000       5.317649       144.7006 
 209   0.0000       5.324067       144.8752 
 210   0.0000       5.334170       145.1501 
 211   0.0000       5.466851       148.7606 
 212   0.0000       5.675017       154.4251 
 213   0.0000       5.688125       154.7817 
 214   0.0000       5.752478       156.5329 
 215   0.0000       5.961386       162.2176 
 216   0.0000       6.202682       168.7836 
 217   0.0000       6.267144       170.5377 
 218   0.0000       6.296660       171.3408 
 219   0.0000       6.573391       178.8711 
 220   0.0000       6.576057       178.9436 
 221   0.0000       6.642478       180.7510 
 222   0.0000       6.692156       182.1028 
 223   0.0000       6.711167       182.6201 
 224   0.0000       6.895827       187.6450 
 225   0.0000       6.920044       188.3040 
 226   0.0000       7.004501       190.6022 
 227   0.0000       7.180807       195.3997 
 228   0.0000       7.307524       198.8478 
 229   0.0000       7.335164       199.6000 
 230   0.0000       7.355070       200.1416 
 231   0.0000      22.470234       611.4461 
 232   0.0000      22.550666       613.6348 
 233   0.0000      23.536673       640.4654 
 234   0.0000      43.974612      1196.6100 
 235   0.0000      44.095021      1199.8865 

                    ********************************
                    * MULLIKEN POPULATION ANALYSIS *
                    ********************************

-----------------------
MULLIKEN ATOMIC CHARGES
-----------------------
   0 C :   -0.777040
   1 C :    0.002210
   2 H :    0.151811
   3 H :    0.098461
   4 C :    0.227678
   5 O :   -0.663837
   6 O :   -0.653090
   7 H :    0.195702
   8 H :    0.222999
   9 H :    0.195105
Sum of atomic charges:   -1.0000000

--------------------------------
MULLIKEN REDUCED ORBITAL CHARGES
--------------------------------
  0 C s       :     3.269838  s :     3.269838
      pz      :     1.042141  p :     3.439339
      px      :     1.218387
      py      :     1.178810
      dz2     :     0.008626  d :     0.064856
      dxz     :     0.021676
      dyz     :     0.012093
      dx2y2   :     0.007897
      dxy     :     0.014564
      f0      :     0.000921  f :     0.003007
      f+1     :     0.000643
      f-1     :     0.000578
      f+2     :     0.000159
      f-2     :     0.000316
      f+3     :     0.000333
      f-3     :     0.000057
  1 C s       :     2.993408  s :     2.993408
      pz      :     0.917975  p :     2.953563
      px      :     1.028983
      py      :     1.006605
      dz2     :     0.014718  d :     0.045678
      dxz     :    -0.004832
      dyz     :    -0.005781
      dx2y2   :     0.005340
      dxy     :     0.036231
      f0      :     0.001051  f :     0.005141
      f+1     :     0.000861
      f-1     :     0.001122
      f+2     :     0.000541
      f-2     :     0.000614
      f+3     :     0.000463
      f-3     :     0.000488
  2 H s       :     0.777124  s :     0.777124
      pz      :     0.011134  p :     0.071065
      px      :     0.021917
      py      :     0.038014
  3 H s       :     0.837731  s :     0.837731
      pz      :     0.026436  p :     0.063807
      px      :     0.033331
      py      :     0.004040
  4 C s       :     3.206903  s :     3.206903
      pz      :     0.781085  p :     2.232222
      px      :     0.750799
      py      :     0.700338
      dz2     :     0.062249  d :     0.308757
      dxz     :     0.017251
      dyz     :     0.083333
      dx2y2   :     0.050280
      dxy     :     0.095644
      f0      :     0.002716  f :     0.024440
      f+1     :     0.002788
      f-1     :     0.002731
      f+2     :     0.004133
      f-2     :     0.003751
      f+3     :     0.003860
      f-3     :     0.004461
  5 O s       :     3.937711  s :     3.937711
      pz      :     1.689374  p :     4.699806
      px      :     1.667438
      py      :     1.342994
      dz2     :     0.002729  d :     0.024812
      dxz     :     0.001250
      dyz     :     0.007493
      dx2y2   :     0.006308
      dxy     :     0.007034
      f0      :     0.000158  f :     0.001508
      f+1     :     0.000037
      f-1     :     0.000240
      f+2     :     0.000231
      f-2     :     0.000125
      f+3     :     0.000361
      f-3     :     0.000355
  6 O s       :     3.956328  s :     3.956328
      pz      :     1.444117  p :     4.667185
      px      :     1.406096
      py      :     1.816973
      dz2     :     0.008886  d :     0.027985
      dxz     :     0.004622
      dyz     :     0.004471
      dx2y2   :     0.006530
      dxy     :     0.003476
      f0      :     0.000199  f :     0.001593
      f+1     :     0.000347
      f-1     :     0.000125
      f+2     :     0.000294
      f-2     :     0.000285
      f+3     :     0.000189
      f-3     :     0.000154
  7 H s       :     0.720623  s :     0.720623
      pz      :     0.007924  p :     0.083674
      px      :     0.041719
      py      :     0.034031
  8 H s       :     0.694449  s :     0.694449
      pz      :     0.031077  p :     0.082552
      px      :     0.022510
      py      :     0.028965
  9 H s       :     0.726206  s :     0.726206
      pz      :     0.025473  p :     0.078689
      px      :     0.037209
      py      :     0.016006


                     *******************************
                     * LOEWDIN POPULATION ANALYSIS *
                     *******************************

----------------------
LOEWDIN ATOMIC CHARGES
----------------------
   0 C :   -0.139744
   1 C :   -0.215228
   2 H :    0.084001
   3 H :    0.092006
   4 C :   -0.792071
   5 O :   -0.094074
   6 O :   -0.079996
   7 H :    0.050481
   8 H :    0.038132
   9 H :    0.056492

-------------------------------
LOEWDIN REDUCED ORBITAL CHARGES
-------------------------------
  0 C s       :     2.738644  s :     2.738644
      pz      :     0.953796  p :     2.888887
      px      :     0.969894
      py      :     0.965197
      dz2     :     0.106344  d :     0.485380
      dxz     :     0.137710
      dyz     :     0.123590
      dx2y2   :     0.030477
      dxy     :     0.087258
      f0      :     0.006325  f :     0.026834
      f+1     :     0.004240
      f-1     :     0.004955
      f+2     :     0.004621
      f-2     :     0.002512
      f+3     :     0.003082
      f-3     :     0.001098
  1 C s       :     2.691913  s :     2.691913
      pz      :     0.908609  p :     2.753441
      px      :     0.925004
      py      :     0.919828
      dz2     :     0.182951  d :     0.732485
      dxz     :     0.176585
      dyz     :     0.155246
      dx2y2   :     0.087963
      dxy     :     0.129741
      f0      :     0.006745  f :     0.037389
      f+1     :     0.005159
      f-1     :     0.007455
      f+2     :     0.006246
      f-2     :     0.004442
      f+3     :     0.003957
      f-3     :     0.003386
  2 H s       :     0.686327  s :     0.686327
      pz      :     0.060429  p :     0.229672
      px      :     0.080750
      py      :     0.088492
  3 H s       :     0.689160  s :     0.689160
      pz      :     0.065616  p :     0.218835
      px      :     0.089497
      py      :     0.063721
  4 C s       :     2.663805  s :     2.663805
      pz      :     0.788763  p :     2.478889
      px      :     0.794590
      py      :     0.895536
      dz2     :     0.254279  d :     1.491149
      dxz     :     0.197232
      dyz     :     0.355268
      dx2y2   :     0.328649
      dxy     :     0.355721
      f0      :     0.019583  f :     0.158229
      f+1     :     0.016454
      f-1     :     0.018176
      f+2     :     0.024606
      f-2     :     0.023864
      f+3     :     0.026768
      f-3     :     0.028778
  5 O s       :     3.378746  s :     3.378746
      pz      :     1.496621  p :     4.465309
      px      :     1.488133
      py      :     1.480554
      dz2     :     0.030815  d :     0.244775
      dxz     :     0.018284
      dyz     :     0.064552
      dx2y2   :     0.071099
      dxy     :     0.060025
      f0      :     0.000514  f :     0.005243
      f+1     :     0.000117
      f-1     :     0.000904
      f+2     :     0.000693
      f-2     :     0.000462
      f+3     :     0.001212
      f-3     :     0.001342
  6 O s       :     3.369268  s :     3.369268
      pz      :     1.435262  p :     4.456690
      px      :     1.418985
      py      :     1.602443
      dz2     :     0.044518  d :     0.248293
      dxz     :     0.066360
      dyz     :     0.048405
      dx2y2   :     0.040742
      dxy     :     0.048267
      f0      :     0.000545  f :     0.005746
      f+1     :     0.001244
      f-1     :     0.000372
      f+2     :     0.001220
      f-2     :     0.001284
      f+3     :     0.000533
      f-3     :     0.000547
  7 H s       :     0.700378  s :     0.700378
      pz      :     0.065736  p :     0.249141
      px      :     0.082443
      py      :     0.100961
  8 H s       :     0.719427  s :     0.719427
      pz      :     0.072526  p :     0.242441
      px      :     0.074779
      py      :     0.095137
  9 H s       :     0.709542  s :     0.709542
      pz      :     0.070816  p :     0.233966
      px      :     0.097095
      py      :     0.066055


                      *****************************
                      * MAYER POPULATION ANALYSIS *
                      *****************************

  NA   - Mulliken gross atomic population
  ZA   - Total nuclear charge
  QA   - Mulliken gross atomic charge
  VA   - Mayer's total valence
  BVA  - Mayer's bonded valence
  FA   - Mayer's free valence

  ATOM       NA         ZA         QA         VA         BVA        FA
  0 C      6.7770     6.0000    -0.7770     3.9545     3.9545    -0.0000
  1 C      5.9978     6.0000     0.0022     3.7164     3.7164    -0.0000
  2 H      0.8482     1.0000     0.1518     1.1309     1.1309    -0.0000
  3 H      0.9015     1.0000     0.0985     1.0666     1.0666     0.0000
  4 C      5.7723     6.0000     0.2277     4.2373     4.2373    -0.0000
  5 O      8.6638     8.0000    -0.6638     1.5765     1.5765     0.0000
  6 O      8.6531     8.0000    -0.6531     1.6202     1.6202     0.0000
  7 H      0.8043     1.0000     0.1957     1.1122     1.1122     0.0000
  8 H      0.7770     1.0000     0.2230     1.0838     1.0838     0.0000
  9 H      0.8049     1.0000     0.1951     1.1123     1.1123    -0.0000

  Mayer bond orders larger than 0.100000
B(  0-C ,  1-C ) :   0.7404 B(  0-C ,  4-C ) :   0.1108 B(  0-C ,  7-H ) :   1.0123 
B(  0-C ,  8-H ) :   0.9835 B(  0-C ,  9-H ) :   0.9890 B(  1-C ,  2-H ) :   0.9968 
B(  1-C ,  3-H ) :   0.9379 B(  1-C ,  4-C ) :   1.0021 B(  4-C ,  5-O ) :   1.4635 
B(  4-C ,  6-O ) :   1.4782 

-------
TIMINGS
-------

Total SCF time: 0 days 0 hours 0 min 14 sec 

Total time                  ....      14.315 sec
Sum of individual times     ....       9.593 sec  ( 67.0%)

Fock matrix formation       ....       8.498 sec  ( 59.4%)
  Split-RI-J                ....       2.218 sec  ( 26.1% of F)
  XC integration            ....       6.214 sec  ( 73.1% of F)
    Basis function eval.    ....       1.297 sec  ( 20.9% of XC)
    Density eval.           ....       1.226 sec  ( 19.7% of XC)
    XC-Functional eval.     ....       0.192 sec  (  3.1% of XC)
    XC-Potential eval.      ....       1.928 sec  ( 31.0% of XC)
Diagonalization             ....       0.085 sec  (  0.6%)
Density matrix formation    ....       0.011 sec  (  0.1%)
Population analysis         ....       0.015 sec  (  0.1%)
Initial guess               ....       0.265 sec  (  1.8%)
Orbital Transformation      ....       0.000 sec  (  0.0%)
Orbital Orthonormalization  ....       0.000 sec  (  0.0%)
DIIS solution               ....       0.048 sec  (  0.3%)
SOSCF solution              ....       0.126 sec  (  0.9%)
Grid generation             ....       0.544 sec  (  3.8%)

Maximum memory used throughout the entire SCF-calculation: 22.6 MB


-------------------------------------------------------------------------------
                          DFT DISPERSION CORRECTION                            
                                                                               
                              DFTD3 V3.1  Rev 1                                
                          USING Becke-Johnson damping                          
-------------------------------------------------------------------------------
The PBE functional is recognized
Active option DFTDOPT                   ...         4   

molecular C6(AA) [au] = 865.765464 


            DFT-D V3
 parameters
 s6 scaling factor         :     1.0000 
 a1 scaling factor         :     0.4289 
 s8 scaling factor         :     0.7875 
 a2 scaling factor         :     4.4407 
 ad hoc parameters k1-k3   :    16.0000     1.3333    -4.0000 

 Edisp/kcal,au: -4.078283906867  -0.006499158404 
 E6   /kcal   :  -2.918359611 
 E8   /kcal   :  -1.159924296 
 % E8         :  28.441479855 

-------------------------   ----------------
Dispersion correction           -0.006499158
-------------------------   ----------------


-------------------------   --------------------
FINAL SINGLE POINT ENERGY      -267.643364915528
-------------------------   --------------------


                            ***************************************
                            *     ORCA property calculations      *
                            ***************************************

                                    ---------------------
                                    Active property flags
                                    ---------------------
   (+) Dipole Moment


------------------------------------------------------------------------------
                       ORCA ELECTRIC PROPERTIES CALCULATION
------------------------------------------------------------------------------

Dipole Moment Calculation                       ... on
Quadrupole Moment Calculation                   ... off
Polarizability Calculation                      ... off
GBWName                                         ... TZVPD_PBE_A_wt_dlpno_neg.gbw
Electron density file                           ... TZVPD_PBE_A_wt_dlpno_neg.scfp
The origin for moment calculation is the CENTER OF MASS  = (-0.095803, -0.592319 -8.341288)

-------------
DIPOLE MOMENT
-------------
                                X             Y             Z
Electronic contribution:      2.68518      -2.99437      -4.63282
Nuclear contribution   :     -3.54611       4.15440       5.90446
                        -----------------------------------------
Total Dipole Moment    :     -0.86093       1.16003       1.27165
                        -----------------------------------------
Magnitude (a.u.)       :      1.92456
Magnitude (Debye)      :      4.89185



--------------------
Rotational spectrum 
--------------------
 
Rotational constants in cm-1:     0.332789     0.132085     0.101080 
Rotational constants in MHz :  9976.755824  3959.803182  3030.288811 

 Dipole components along the rotational axes: 
x,y,z [a.u.] :     1.825896    -0.590011    -0.148120 
x,y,z [Debye]:     4.641059    -1.499689    -0.376490 

 

Timings for individual modules:

Sum of individual times         ...       19.089 sec (=   0.318 min)
GTO integral calculation        ...        2.657 sec (=   0.044 min)  13.9 %
SCF iterations                  ...       16.432 sec (=   0.274 min)  86.1 %
                             ****ORCA TERMINATED NORMALLY****
TOTAL RUN TIME: 0 days 0 hours 0 minutes 19 seconds 650 msec
