
                                        *****************
                                        * O   R   C   A *
                                        *****************

                                            #,                                       
                                            ###                                      
                                            ####                                     
                                            #####                                    
                                            ######                                   
                                           ########,                                 
                                     ,,################,,,,,                         
                               ,,#################################,,                 
                          ,,##########################################,,             
                       ,#########################################, ''#####,          
                    ,#############################################,,   '####,        
                  ,##################################################,,,,####,       
                ,###########''''           ''''###############################       
              ,#####''   ,,,,##########,,,,          '''####'''          '####       
            ,##' ,,,,###########################,,,                        '##       
           ' ,,###''''                  '''############,,,                           
         ,,##''                                '''############,,,,        ,,,,,,###''
      ,#''                                            '''#######################'''  
     '                                                          ''''####''''         
             ,#######,   #######,   ,#######,      ##                                
            ,#'     '#,  ##    ##  ,#'     '#,    #''#        ######   ,####,        
            ##       ##  ##   ,#'  ##            #'  '#       #        #'  '#        
            ##       ##  #######   ##           ,######,      #####,   #    #        
            '#,     ,#'  ##    ##  '#,     ,#' ,#      #,         ##   #,  ,#        
             '#######'   ##     ##  '#######'  #'      '#     #####' # '####'        



                  #######################################################
                  #                        -***-                        #
                  #          Department of theory and spectroscopy      #
                  #    Directorship and core code : Frank Neese         #
                  #        Max Planck Institute fuer Kohlenforschung    #
                  #                Kaiser Wilhelm Platz 1               #
                  #                 D-45470 Muelheim/Ruhr               #
                  #                      Germany                        #
                  #                                                     #
                  #                  All rights reserved                #
                  #                        -***-                        #
                  #######################################################


                         Program Version 5.0.0 -  RELEASE  -
                                (SVN: $Rev: 19529$)
                ($Date: 2021-06-28 11:36:33 +0200 (Mo, 28 Jun 2021) $)


 With contributions from (in alphabetic order):
   Daniel Aravena         : Magnetic Suceptibility
   Michael Atanasov       : Ab Initio Ligand Field Theory (pilot matlab implementation)
   Alexander A. Auer      : GIAO ZORA, VPT2 properties, NMR spectrum
   Ute Becker             : Parallelization
   Giovanni Bistoni       : ED, misc. LED, open-shell LED, HFLD
   Martin Brehm           : Molecular dynamics
   Dmytro Bykov           : SCF Hessian
   Vijay G. Chilkuri      : MRCI spin determinant printing, contributions to CSF-ICE
   Dipayan Datta          : RHF DLPNO-CCSD density
   Achintya Kumar Dutta   : EOM-CC, STEOM-CC
   Dmitry Ganyushin       : Spin-Orbit,Spin-Spin,Magnetic field MRCI
   Miquel Garcia          : C-PCM Hessian, Gaussian charge scheme
   Yang Guo               : DLPNO-NEVPT2, F12-NEVPT2, CIM, IAO-localization
   Andreas Hansen         : Spin unrestricted coupled pair/coupled cluster methods
   Benjamin Helmich-Paris : MC-RPA, TRAH-SCF, COSX integrals
   Lee Huntington         : MR-EOM, pCC
   Robert Izsak           : Overlap fitted RIJCOSX, COSX-SCS-MP3, EOM
   Marcus Kettner         : VPT2
   Christian Kollmar      : KDIIS, OOCD, Brueckner-CCSD(T), CCSD density, CASPT2, CASPT2-K
   Simone Kossmann        : Meta GGA functionals, TD-DFT gradient, OOMP2, MP2 Hessian
   Martin Krupicka        : Initial AUTO-CI
   Lucas Lang             : DCDCAS
   Marvin Lechner         : AUTO-CI (C++ implementation), FIC-MRCC
   Dagmar Lenk            : GEPOL surface, SMD
   Dimitrios Liakos       : Extrapolation schemes; Compound Job, initial MDCI parallelization
   Dimitrios Manganas     : Further ROCIS development; embedding schemes
   Dimitrios Pantazis     : SARC Basis sets
   Anastasios Papadopoulos: AUTO-CI, single reference methods and gradients
   Taras Petrenko         : DFT Hessian,TD-DFT gradient, ASA, ECA, R-Raman, ABS, FL, XAS/XES, NRVS
   Peter Pinski           : DLPNO-MP2, DLPNO-MP2 Gradient
   Christoph Reimann      : Effective Core Potentials
   Marius Retegan         : Local ZFS, SOC
   Christoph Riplinger    : Optimizer, TS searches, QM/MM, DLPNO-CCSD(T), (RO)-DLPNO pert. Triples
   Tobias Risthaus        : Range-separated hybrids, TD-DFT gradient, RPA, STAB
   Michael Roemelt        : Original ROCIS implementation
   Masaaki Saitow         : Open-shell DLPNO-CCSD energy and density
   Barbara Sandhoefer     : DKH picture change effects
   Avijit Sen             : IP-ROCIS
   Kantharuban Sivalingam : CASSCF convergence, NEVPT2, FIC-MRCI
   Bernardo de Souza      : ESD, SOC TD-DFT
   Georgi Stoychev        : AutoAux, RI-MP2 NMR
   Willem Van den Heuvel  : Paramagnetic NMR
   Boris Wezisla          : Elementary symmetry handling
   Frank Wennmohs         : Technical directorship


 We gratefully acknowledge several colleagues who have allowed us to
 interface, adapt or use parts of their codes:
   Stefan Grimme, W. Hujo, H. Kruse, P. Pracht,  : VdW corrections, initial TS optimization,
                  C. Bannwarth, S. Ehlert          DFT functionals, gCP, sTDA/sTD-DF
   Ed Valeev, F. Pavosevic, A. Kumar             : LibInt (2-el integral package), F12 methods
   Garnet Chan, S. Sharma, J. Yang, R. Olivares  : DMRG
   Ulf Ekstrom                                   : XCFun DFT Library
   Mihaly Kallay                                 : mrcc  (arbitrary order and MRCC methods)
   Jiri Pittner, Ondrej Demel                    : Mk-CCSD
   Frank Weinhold                                : gennbo (NPA and NBO analysis)
   Christopher J. Cramer and Donald G. Truhlar   : smd solvation model
   Lars Goerigk                                  : TD-DFT with DH, B97 family of functionals
   V. Asgeirsson, H. Jonsson                     : NEB implementation
   FAccTs GmbH                                   : IRC, NEB, NEB-TS, DLPNO-Multilevel, CI-OPT
                                                   MM, QMMM, 2- and 3-layer-ONIOM, Crystal-QMMM,
                                                   LR-CPCM, SF, NACMEs, symmetry and pop. for TD-DFT,
                                                   nearIR, NL-DFT gradient (VV10), updates on ESD,
                                                   ML-optimized integration grids
   S Lehtola, MJT Oliveira, MAL Marques          : LibXC Library
   Liviu Ungur et al                             : ANISO software


 Your calculation uses the libint2 library for the computation of 2-el integrals
 For citations please refer to: http://libint.valeyev.net

 Your ORCA version has been built with support for libXC version: 5.1.0
 For citations please refer to: https://tddft.org/programs/libxc/

 This ORCA versions uses:
   CBLAS   interface :  Fast vector & matrix operations
   LAPACKE interface :  Fast linear algebra routines
   SCALAPACK package :  Parallel linear algebra routines
   Shared memory     :  Shared parallel matrices
   BLAS/LAPACK       :  OpenBLAS 0.3.15  USE64BITINT DYNAMIC_ARCH NO_AFFINITY Haswell SINGLE_THREADED
        Core in use  :  Haswell
   Copyright (c) 2011-2014, The OpenBLAS Project




***************************************
The coordinates will be read from file: D1.xyz
***************************************


Your calculation utilizes the atom-pairwise dispersion correction
with the zero-damping scheme (D30)
Cite in your paper:
S.Grimme, J.Antony, S.Ehrlich and H.Krieg, J.Chem.Phys., 132, (2010), 154104 
   

XCFun DFT library Copyright 2009-2010 Ulf Ekstrom and contributors.
See http://admol.org/xcfun for more information.
This is free software; see the source code for copying conditions.
There is ABSOLUTELY NO WARRANTY; not even for MERCHANTABILITY or FITNESS FOR A PARTICULAR PURPOSE.
For details see the documentation.
Scientific users of this library should cite U. Ekstrom, L. Visscher, R. Bast, A. J. Thorvaldsen and K. Ruud;
J.Chem.Theor.Comp. 2010, DOI: 10.1021/ct100117s
XCFun Version 0.99 

================================================================================

----- Orbital basis set information -----
Your calculation utilizes the basis: def2-TZVP
   F. Weigend and R. Ahlrichs, Phys. Chem. Chem. Phys. 7, 3297 (2005).

----- AuxJ basis set information -----
Your calculation utilizes the auxiliary basis: def2/J
   F. Weigend, Phys. Chem. Chem. Phys. 8, 1057 (2006).

================================================================================
                                        WARNINGS
                       Please study these warnings very carefully!
================================================================================


WARNING: Minnesota functionals are quite sensitive to the integration grid.
         see SE Wheeler, KN Houk, JCTC 2010, 6, 395,
             N Mardirossian, M Head-Gordon, JCTC 2016, 12, 4303.
         DEFGRID3 seems to be a minimum grid for reliable results with these functionals!
  ===> : Please increase the integration grid!


INFO   : the flag for use of the SHARK integral package has been found!

================================================================================
                                       INPUT FILE
================================================================================
NAME = M062X_D1_wb97.com
|  1> !M062X D3Zero RIJCOSX def2-TZVP def2/J TightSCF xyzfile                                                                                         
|  2> 
|  3> *xyzfile 0 1 D1.xyz
|  4> 
|  5> %MaxCore 64000
|  6> 
|  7> %pal nprocs 18                                                                                                                                                  
|  8> end  
|  9> 
| 10> %scf
| 11>   MaxIter 150
| 12> end
| 13> 
| 14> 
| 15>                          ****END OF INPUT****
================================================================================

                       ****************************
                       * Single Point Calculation *
                       ****************************

---------------------------------
CARTESIAN COORDINATES (ANGSTROEM)
---------------------------------
  C      3.380928    2.083045   -3.350127
  C      4.535924    1.182447   -3.428518
  C      2.495557    1.816150   -2.136364
  C      1.872181    0.427903   -2.077497
  H      2.614270   -0.365825   -2.198894
  H      1.389953    0.273087   -1.112360
  S      0.579024    0.140472   -3.297943
  C      4.671956    0.122273   -4.220598
  N      5.866023   -0.507849   -4.224284
  N      3.698881   -0.312844   -4.986988
  H      2.731405   -0.050091   -4.849000
  H      3.890046   -1.055172   -5.643730
  H      5.251933    1.303459   -2.721014
  H      6.695165   -0.062322   -3.851596
  H      5.975383   -1.396884   -4.691414
  F      0.228860   -1.246868   -3.127871
  O     -0.439269    1.118966   -3.014550
  O      1.247881    0.403474   -4.595647
  H      1.697003    2.561969   -2.141109
  H      3.080787    1.987436   -1.225838
  H      2.806463    1.986511   -4.268484
  H      3.778714    3.098282   -3.307383

----------------------------
CARTESIAN COORDINATES (A.U.)
----------------------------
  NO LB      ZA    FRAG     MASS         X           Y           Z
   0 C     6.0000    0    12.011    6.389028    3.936384   -6.330822
   1 C     6.0000    0    12.011    8.571653    2.234501   -6.478960
   2 C     6.0000    0    12.011    4.715920    3.432025   -4.037143
   3 C     6.0000    0    12.011    3.537909    0.808619   -3.925901
   4 H     1.0000    0     1.008    4.940255   -0.691309   -4.155307
   5 H     1.0000    0     1.008    2.626630    0.516060   -2.102056
   6 S    16.0000    0    32.060    1.094197    0.265454   -6.232209
   7 C     6.0000    0    12.011    8.828718    0.231062   -7.975775
   8 N     7.0000    0    14.007   11.085178   -0.959696   -7.982739
   9 N     7.0000    0    14.007    6.989872   -0.591189   -9.424042
  10 H     1.0000    0     1.008    5.161608   -0.094658   -9.163282
  11 H     1.0000    0     1.008    7.351122   -1.993986  -10.665104
  12 H     1.0000    0     1.008    9.924714    2.463181   -5.141971
  13 H     1.0000    0     1.008   12.652028   -0.117771   -7.278462
  14 H     1.0000    0     1.008   11.291838   -2.639728   -8.865488
  15 F     9.0000    0    18.998    0.432483   -2.356238   -5.910819
  16 O     8.0000    0    15.999   -0.830098    2.114540   -5.696673
  17 O     8.0000    0    15.999    2.358154    0.762455   -8.684514
  18 H     1.0000    0     1.008    3.206871    4.841420   -4.046109
  19 H     1.0000    0     1.008    5.821845    3.755709   -2.316498
  20 H     1.0000    0     1.008    5.303447    3.753961   -8.066266
  21 H     1.0000    0     1.008    7.140735    5.854904   -6.250048

--------------------------------
INTERNAL COORDINATES (ANGSTROEM)
--------------------------------
 C      0   0   0     0.000000000000     0.00000000     0.00000000
 C      1   0   0     1.466709159152     0.00000000     0.00000000
 C      1   2   0     1.525887598611   113.08106121     0.00000000
 C      3   1   2     1.522922426714   115.32150160   298.98779578
 H      4   3   1     1.093360976858   112.31147686    51.76616417
 H      4   3   1     1.089954594431   110.16986842   171.17309744
 S      4   3   1     1.801210303623   114.40266140   289.23510751
 C      2   1   3     1.330363150639   126.98915710   102.39030975
 N      8   2   1     1.350134350047   117.64436639   174.24681917
 N      8   2   1     1.312842464079   122.40463695   354.61440396
 H     10   8   2     1.011972738098   122.88487069   342.67118838
 H     10   8   2     1.009408202469   118.89300887   173.11229738
 H      2   1   3     1.013841643828   116.45871694   291.29563037
 H      9   8   2     1.012356698497   121.19473046   343.47581302
 H      9   8   2     1.010224236058   120.51235872   170.23230527
 F      7   4   3     1.440920179428   104.36732947   175.27794104
 O      7   4   3     1.440376003423   105.41678409   299.48536641
 O      7   4   3     1.483433803163   103.93008595    57.15043279
 H      3   1   2     1.092683852872   107.52997589   177.35677273
 H      3   1   2     1.095851861430   108.88782929    62.11677368
 H      1   2   3     1.087524204377   108.44120771   237.12593655
 H      1   2   3     1.091223184114   106.63672387   121.10258644

---------------------------
INTERNAL COORDINATES (A.U.)
---------------------------
 C      0   0   0     0.000000000000     0.00000000     0.00000000
 C      1   0   0     2.771678628911     0.00000000     0.00000000
 C      1   2   0     2.883509672521   113.08106121     0.00000000
 C      3   1   2     2.877906309695   115.32150160   298.98779578
 H      4   3   1     2.066152811778   112.31147686    51.76616417
 H      4   3   1     2.059715681884   110.16986842   171.17309744
 S      4   3   1     3.403794183444   114.40266140   289.23510751
 C      2   1   3     2.514022013368   126.98915710   102.39030975
 N      8   2   1     2.551384165588   117.64436639   174.24681917
 N      8   2   1     2.480912714091   122.40463695   354.61440396
 H     10   8   2     1.912351330000   122.88487069   342.67118838
 H     10   8   2     1.907505060000   118.89300887   173.11229738
 H      2   1   3     1.915883050000   116.45871694   291.29563037
 H      9   8   2     1.913076910000   121.19473046   343.47581302
 H      9   8   2     1.909047140000   120.51235872   170.23230527
 F      7   4   3     2.722944519960   104.36732947   175.27794104
 O      7   4   3     2.721916176342   105.41678409   299.48536641
 O      7   4   3     2.803283625779   103.93008595    57.15043279
 H      3   1   2     2.064873232886   107.52997589   177.35677273
 H      3   1   2     2.070859901451   108.88782929    62.11677368
 H      1   2   3     2.055122910283   108.44120771   237.12593655
 H      1   2   3     2.062112968961   106.63672387   121.10258644

---------------------
BASIS SET INFORMATION
---------------------
There are 6 groups of distinct atoms

 Group   1 Type C   : 11s6p2d1f contracted to 5s3p2d1f pattern {62111/411/11/1}
 Group   2 Type H   : 5s1p contracted to 3s1p pattern {311/1}
 Group   3 Type S   : 14s9p3d1f contracted to 5s5p2d1f pattern {73211/51111/21/1}
 Group   4 Type N   : 11s6p2d1f contracted to 5s3p2d1f pattern {62111/411/11/1}
 Group   5 Type F   : 11s6p2d1f contracted to 5s3p2d1f pattern {62111/411/11/1}
 Group   6 Type O   : 11s6p2d1f contracted to 5s3p2d1f pattern {62111/411/11/1}

Atom   0C    basis set group =>   1
Atom   1C    basis set group =>   1
Atom   2C    basis set group =>   1
Atom   3C    basis set group =>   1
Atom   4H    basis set group =>   2
Atom   5H    basis set group =>   2
Atom   6S    basis set group =>   3
Atom   7C    basis set group =>   1
Atom   8N    basis set group =>   4
Atom   9N    basis set group =>   4
Atom  10H    basis set group =>   2
Atom  11H    basis set group =>   2
Atom  12H    basis set group =>   2
Atom  13H    basis set group =>   2
Atom  14H    basis set group =>   2
Atom  15F    basis set group =>   5
Atom  16O    basis set group =>   6
Atom  17O    basis set group =>   6
Atom  18H    basis set group =>   2
Atom  19H    basis set group =>   2
Atom  20H    basis set group =>   2
Atom  21H    basis set group =>   2
---------------------------------
AUXILIARY/J BASIS SET INFORMATION
---------------------------------
There are 6 groups of distinct atoms

 Group   1 Type C   : 12s5p4d2f1g contracted to 6s4p3d1f1g pattern {711111/2111/211/2/1}
 Group   2 Type H   : 5s2p1d contracted to 3s1p1d pattern {311/2/1}
 Group   3 Type S   : 14s5p5d2f1g contracted to 8s4p3d1f1g pattern {71111111/2111/311/2/1}
 Group   4 Type N   : 12s5p4d2f1g contracted to 6s4p3d1f1g pattern {711111/2111/211/2/1}
 Group   5 Type F   : 12s5p4d2f1g contracted to 6s4p3d1f1g pattern {711111/2111/211/2/1}
 Group   6 Type O   : 12s5p4d2f1g contracted to 6s4p3d1f1g pattern {711111/2111/211/2/1}

Atom   0C    basis set group =>   1
Atom   1C    basis set group =>   1
Atom   2C    basis set group =>   1
Atom   3C    basis set group =>   1
Atom   4H    basis set group =>   2
Atom   5H    basis set group =>   2
Atom   6S    basis set group =>   3
Atom   7C    basis set group =>   1
Atom   8N    basis set group =>   4
Atom   9N    basis set group =>   4
Atom  10H    basis set group =>   2
Atom  11H    basis set group =>   2
Atom  12H    basis set group =>   2
Atom  13H    basis set group =>   2
Atom  14H    basis set group =>   2
Atom  15F    basis set group =>   5
Atom  16O    basis set group =>   6
Atom  17O    basis set group =>   6
Atom  18H    basis set group =>   2
Atom  19H    basis set group =>   2
Atom  20H    basis set group =>   2
Atom  21H    basis set group =>   2


           ************************************************************
           *        Program running with 18 parallel MPI-processes    *
           *              working on a common directory               *
           ************************************************************
------------------------------------------------------------------------------
                           ORCA GTO INTEGRAL CALCULATION
                           -- RI-GTO INTEGRALS CHOSEN --
------------------------------------------------------------------------------
------------------------------------------------------------------------------
                   ___                                                        
                  /   \      - P O W E R E D   B Y -                         
                 /     \                                                     
                 |  |  |   _    _      __       _____    __    __             
                 |  |  |  | |  | |    /  \     |  _  \  |  |  /  |          
                  \  \/   | |  | |   /    \    | | | |  |  | /  /          
                 / \  \   | |__| |  /  /\  \   | |_| |  |  |/  /          
                |  |  |   |  __  | /  /__\  \  |    /   |      \           
                |  |  |   | |  | | |   __   |  |    \   |  |\   \          
                \     /   | |  | | |  |  |  |  | |\  \  |  | \   \       
                 \___/    |_|  |_| |__|  |__|  |_| \__\ |__|  \__/        
                                                                              
                      - O R C A' S   B I G   F R I E N D -                    
                                      &                                       
                       - I N T E G R A L  F E E D E R -                       
                                                                              
 v1 FN, 2020, v2 2021                                                         
------------------------------------------------------------------------------


Reading SHARK input file M062X_D1_wb97.SHARKINP.tmp ... ok
----------------------
SHARK INTEGRAL PACKAGE
----------------------

Number of atoms                             ...     22
Number of basis functions                   ...    413
Number of shells                            ...    167
Maximum angular momentum                    ...      3
Integral batch strategy                     ... SHARK/LIBINT Hybrid
RI-J (if used) integral strategy            ... SPLIT-RIJ (Revised 2003 algorithm where possible)
Printlevel                                  ...      1
Contraction scheme used                     ... SEGMENTED contraction
Coulomb Range Separation                    ... NOT USED
Exchange Range Separation                   ... NOT USED
Finite Nucleus Model                        ... NOT USED
Auxiliary Coulomb fitting basis             ... AVAILABLE
   # of basis functions in Aux-J            ...    662
   # of shells in Aux-J                     ...    222
   Maximum angular momentum in Aux-J        ...      4
Auxiliary J/K fitting basis                 ... NOT available
Auxiliary Correlation fitting basis         ... NOT available
Auxiliary 'external' fitting basis          ... NOT available
Integral threshold                          ...     2.500000e-11
Primitive cut-off                           ...     2.500000e-12
Primitive pair pre-selection threshold      ...     2.500000e-12

Calculating pre-screening integrals         ... done (  0.2 sec) Dimension = 167
Organizing shell pair data                  ... done (  0.1 sec)
Shell pair information
Total number of shell pairs                 ...     14028
Shell pairs after pre-screening             ...     11958
Total number of primitive shell pairs       ...     43360
Primitive shell pairs kept                  ...     26244
          la=0 lb=0:   3243 shell pairs
          la=1 lb=0:   3497 shell pairs
          la=1 lb=1:    980 shell pairs
          la=2 lb=0:   1618 shell pairs
          la=2 lb=1:    897 shell pairs
          la=2 lb=2:    223 shell pairs
          la=3 lb=0:    796 shell pairs
          la=3 lb=1:    441 shell pairs
          la=3 lb=2:    208 shell pairs
          la=3 lb=3:     55 shell pairs

Calculating one electron integrals          ... done (  0.0 sec)
Calculating RI/J V-Matrix + Cholesky decomp.... done (  0.1 sec)
Calculating Nuclear repulsion               ... done (  0.0 sec) ENN=    831.153357828877 Eh

SHARK setup successfully completed in   0.6 seconds

Maximum memory used throughout the entire GTOINT-calculation: 20.5 MB


           ************************************************************
           *        Program running with 18 parallel MPI-processes    *
           *              working on a common directory               *
           ************************************************************
-------------------------------------------------------------------------------
                                 ORCA SCF
-------------------------------------------------------------------------------

------------
SCF SETTINGS
------------
Hamiltonian:
 Density Functional     Method          .... DFT(GTOs)
 Exchange Functional    Exchange        .... M062X
 Correlation Functional Correlation     .... M062X
 Gradients option       PostSCFGGA      .... off
 Hybrid DFT is turned on
   Fraction HF Exchange ScalHFX         ....  0.540000
   Scaling of DF-GGA-X  ScalDFX         ....  0.460000
   Scaling of DF-GGA-C  ScalDFC         ....  1.000000
   Scaling of DF-LDA-C  ScalLDAC        ....  1.000000
   Perturbative correction              ....  0.000000
   Density functional embedding theory  .... OFF
 RI-approximation to the Coulomb term is turned on
   Number of AuxJ basis functions       .... 662
   RIJ-COSX (HFX calculated with COS-X)).... on


General Settings:
 Integral files         IntName         .... M062X_D1_wb97
 Hartree-Fock type      HFTyp           .... RHF
 Total Charge           Charge          ....    0
 Multiplicity           Mult            ....    1
 Number of Electrons    NEL             ....   96
 Basis Dimension        Dim             ....  413
 Nuclear Repulsion      ENuc            ....    831.1533578289 Eh

Convergence Acceleration:
 DIIS                   CNVDIIS         .... on
   Start iteration      DIISMaxIt       ....    12
   Startup error        DIISStart       ....  0.200000
   # of expansion vecs  DIISMaxEq       ....     5
   Bias factor          DIISBfac        ....   1.050
   Max. coefficient     DIISMaxC        ....  10.000
 Trust-Rad. Augm. Hess. CNVTRAH         .... auto
   Auto Start mean grad. ratio tolernc. ....  1.125000
   Auto Start start iteration           ....    20
   Auto Start num. interpolation iter.  ....    10
   Max. Number of Micro iterations      ....    16
   Max. Number of Macro iterations      .... Maxiter - #DIIS iter
   Number of Davidson start vectors     ....     2
   Converg. threshold I  (grad. norm)   ....   1.000e-05
   Converg. threshold II (energy diff.) ....   1.000e-08
   Grad. Scal. Fac. for Micro threshold ....   0.100
   Minimum threshold for Micro iter.    ....   0.010
   NR start threshold (gradient norm)   ....   0.001
   Initial trust radius                 ....   0.400
   Minimum AH scaling param. (alpha)    ....   1.000
   Maximum AH scaling param. (alpha)    .... 1000.000
   Orbital update algorithm             .... Taylor
   White noise on init. David. guess    .... on
   Maximum white noise                  ....   0.010
   Quad. conv. algorithm                .... NR
 SOSCF                  CNVSOSCF        .... on
   Start iteration      SOSCFMaxIt      ....   150
   Startup grad/error   SOSCFStart      ....  0.003300
 Level Shifting         CNVShift        .... on
   Level shift para.    LevelShift      ....    0.2500
   Turn off err/grad.   ShiftErr        ....    0.0010
 Zerner damping         CNVZerner       .... off
 Static damping         CNVDamp         .... on
   Fraction old density DampFac         ....    0.7000
   Max. Damping (<1)    DampMax         ....    0.9800
   Min. Damping (>=0)   DampMin         ....    0.0000
   Turn off err/grad.   DampErr         ....    0.1000
 Fernandez-Rico         CNVRico         .... off

SCF Procedure:
 Maximum # iterations   MaxIter         ....   150
 SCF integral mode      SCFMode         .... Direct
   Integral package                     .... SHARK and LIBINT hybrid scheme
 Reset frequency        DirectResetFreq ....    20
 Integral Threshold     Thresh          ....  2.500e-11 Eh
 Primitive CutOff       TCut            ....  2.500e-12 Eh

Convergence Tolerance:
 Convergence Check Mode ConvCheckMode   .... Total+1el-Energy
 Convergence forced     ConvForced      .... 0
 Energy Change          TolE            ....  1.000e-08 Eh
 1-El. energy change                    ....  1.000e-05 Eh
 Orbital Gradient       TolG            ....  1.000e-05
 Orbital Rotation angle TolX            ....  1.000e-05
 DIIS Error             TolErr          ....  5.000e-07


Diagonalization of the overlap matrix:
Smallest eigenvalue                        ... 8.266e-05
Time for diagonalization                   ...    0.049 sec
Threshold for overlap eigenvalues          ... 1.000e-08
Number of eigenvalues below threshold      ... 0
Time for construction of square roots      ...    0.072 sec
Total time needed                          ...    0.123 sec

Time for model grid setup =    0.141 sec

------------------------------
INITIAL GUESS: MODEL POTENTIAL
------------------------------
Loading Hartree-Fock densities                     ... done
Calculating cut-offs                               ... done
Initializing the effective Hamiltonian             ... done
Setting up the integral package (SHARK)            ... done
Starting the Coulomb interaction                   ... done (   0.1 sec)
Reading the grid                                   ... done
Mapping shells                                     ... done
Starting the XC term evaluation                    ... done (   0.1 sec)
  promolecular density results
     # of electrons  =     95.994198205
     EX              =    -93.382903139
     EC              =     -3.360417749
     EX+EC           =    -96.743320887
Transforming the Hamiltonian                       ... done (   0.0 sec)
Diagonalizing the Hamiltonian                      ... done (   0.0 sec)
Back transforming the eigenvectors                 ... done (   0.0 sec)
Now organizing SCF variables                       ... done
                      ------------------
                      INITIAL GUESS DONE (   0.5 sec)
                      ------------------
-------------------
DFT GRID GENERATION
-------------------

General Integration Accuracy     IntAcc      ... 4.388
Radial Grid Type                 RadialGrid  ... OptM3 with GC (2021)
Angular Grid (max. ang.)         AngularGrid ... 4 (Lebedev-302)
Angular grid pruning method      GridPruning ... 4 (adaptive)
Weight generation scheme         WeightScheme... Becke
Basis function cutoff            BFCut       ... 1.0000e-11
Integration weight cutoff        WCut        ... 1.0000e-14
Angular grids for H and He will be reduced by one unit
Partially contracted basis set               ... off
Rotationally invariant grid construction     ... off

Total number of grid points                  ...   102513
Total number of batches                      ...     1612
Average number of points per batch           ...       63
Average number of grid points per atom       ...     4660
Time for grid setup =    0.784 sec

--------------------
COSX GRID GENERATION
--------------------

GRIDX 1
-------
General Integration Accuracy     IntAcc      ... 3.816
Radial Grid Type                 RadialGrid  ... OptM3 with GC (2021)
Angular Grid (max. ang.)         AngularGrid ... 1 (Lebedev-50)
Angular grid pruning method      GridPruning ... 4 (adaptive)
Weight generation scheme         WeightScheme... Becke
Basis function cutoff            BFCut       ... 1.0000e-11
Integration weight cutoff        WCut        ... 1.0000e-14
Angular grids for H and He will be reduced by one unit
Partially contracted basis set               ... on
Rotationally invariant grid construction     ... off

Total number of grid points                  ...    12979
Total number of batches                      ...      217
Average number of points per batch           ...       59
Average number of grid points per atom       ...      590
UseSFitting                                  ... on

GRIDX 2
-------
General Integration Accuracy     IntAcc      ... 4.020
Radial Grid Type                 RadialGrid  ... OptM3 with GC (2021)
Angular Grid (max. ang.)         AngularGrid ... 2 (Lebedev-110)
Angular grid pruning method      GridPruning ... 4 (adaptive)
Weight generation scheme         WeightScheme... Becke
Basis function cutoff            BFCut       ... 1.0000e-11
Integration weight cutoff        WCut        ... 1.0000e-14
Angular grids for H and He will be reduced by one unit
Partially contracted basis set               ... on
Rotationally invariant grid construction     ... off

Total number of grid points                  ...    28001
Total number of batches                      ...      449
Average number of points per batch           ...       62
Average number of grid points per atom       ...     1273
UseSFitting                                  ... on

GRIDX 3
-------
General Integration Accuracy     IntAcc      ... 4.338
Radial Grid Type                 RadialGrid  ... OptM3 with GC (2021)
Angular Grid (max. ang.)         AngularGrid ... 3 (Lebedev-194)
Angular grid pruning method      GridPruning ... 4 (adaptive)
Weight generation scheme         WeightScheme... Becke
Basis function cutoff            BFCut       ... 1.0000e-11
Integration weight cutoff        WCut        ... 1.0000e-14
Angular grids for H and He will be reduced by one unit
Partially contracted basis set               ... on
Rotationally invariant grid construction     ... off

Total number of grid points                  ...    61921
Total number of batches                      ...      977
Average number of points per batch           ...       63
Average number of grid points per atom       ...     2815
UseSFitting                                  ... on

Time for X-Grid setup             =    0.782 sec

--------------
SCF ITERATIONS
--------------
ITER       Energy         Delta-E        Max-DP      RMS-DP      [F,P]     Damp
               ***  Starting incremental Fock matrix formation  ***
  0   -954.4712364662   0.000000000000 0.12124401  0.00129303  0.2926414 0.7000
  1   -954.7410038588  -0.269767392649 0.09092903  0.00099203  0.1382515 0.7000
                               ***Turning on DIIS***
  2   -954.8518395357  -0.110835676846 0.14708715  0.00174165  0.0612200 0.0000
  3   -955.0284659189  -0.176626383189 0.07926807  0.00075645  0.0653509 0.0000
  4   -955.0645997341  -0.036133815267 0.03152860  0.00029199  0.0115549 0.0000
  5   -955.0657723049  -0.001172570753 0.01081595  0.00010047  0.0074065 0.0000
                      *** Initiating the SOSCF procedure ***
                           *** Shutting down DIIS ***
                      *** Re-Reading the Fockian *** 
                      *** Removing any level shift *** 
ITER      Energy       Delta-E        Grad      Rot      Max-DP    RMS-DP
  6   -955.06594228  -0.0001699716  0.000290  0.000290  0.004127  0.000046
               *** Restarting incremental Fock matrix formation ***
  7   -955.06593822   0.0000040556  0.000164  0.000521  0.004723  0.000046
  8   -955.06594129  -0.0000030698  0.000040  0.000267  0.001865  0.000020
  9   -955.06594152  -0.0000002260  0.000035  0.000079  0.000925  0.000009
 10   -955.06594174  -0.0000002215  0.000009  0.000014  0.000151  0.000002
 11   -955.06594174   0.0000000001  0.000009  0.000009  0.000054  0.000001
                  ***Gradient check signals convergence***
              ***Rediagonalizing the Fockian in SOSCF/NRSCF***

               *****************************************************
               *                     SUCCESS                       *
               *           SCF CONVERGED AFTER  12 CYCLES          *
               *****************************************************

Old exchange energy                            =    -51.281352281 Eh
New exchange energy                            =    -51.281337671 Eh
Exchange energy change after final integration =      0.000014610 Eh
Total energy after final integration           =   -955.065927143 Eh
Final COS-X integration done in                =     3.214 sec

----------------
TOTAL SCF ENERGY
----------------

Total Energy       :         -955.06592714 Eh          -25988.66512 eV

Components:
Nuclear Repulsion  :          831.15335783 Eh           22616.83268 eV
Electronic Energy  :        -1786.21928497 Eh          -48605.49780 eV
One Electron Energy:        -2961.27498988 Eh          -80580.38910 eV
Two Electron Energy:         1175.05570490 Eh           31974.89130 eV
Max COSX asymmetry :            0.00001304 Eh               0.00035 eV

Virial components:
Potential Energy   :        -1907.77804202 Eh          -51913.27974 eV
Kinetic Energy     :          952.71211488 Eh           25924.61463 eV
Virial Ratio       :            2.00247064


DFT components:
N(Alpha)           :       48.000059299790 electrons
N(Beta)            :       48.000059299790 electrons
N(Total)           :       96.000118599580 electrons
E(XC)              :      -47.327495444965 Eh       
DFET-embed. en.    :        0.000000000000 Eh       

---------------
SCF CONVERGENCE
---------------

  Last Energy change         ...   -1.5026e-08  Tolerance :   1.0000e-08
  Last MAX-Density change    ...    3.9968e-15  Tolerance :   1.0000e-07
  Last RMS-Density change    ...    2.2261e-17  Tolerance :   5.0000e-09
  Last Orbital Gradient      ...    1.1692e-06  Tolerance :   1.0000e-05
  Last Orbital Rotation      ...    3.1109e-06  Tolerance :   1.0000e-05

             **** THE GBW FILE WAS UPDATED (M062X_D1_wb97.gbw) ****
             **** DENSITY M062X_D1_wb97.scfp WAS UPDATED ****
             **** ENERGY FILE WAS UPDATED (M062X_D1_wb97.en.tmp) ****
             **** THE GBW FILE WAS UPDATED (M062X_D1_wb97.gbw) ****
             **** DENSITY M062X_D1_wb97.scfp WAS UPDATED ****
----------------
ORBITAL ENERGIES
----------------

  NO   OCC          E(Eh)            E(eV) 
   0   2.0000     -90.161587     -2453.4215 
   1   2.0000     -25.377736      -690.5633 
   2   2.0000     -19.649040      -534.6776 
   3   2.0000     -19.644239      -534.5469 
   4   2.0000     -14.738733      -401.0613 
   5   2.0000     -14.722873      -400.6298 
   6   2.0000     -10.588148      -288.1182 
   7   2.0000     -10.578542      -287.8568 
   8   2.0000     -10.544526      -286.9311 
   9   2.0000     -10.510406      -286.0027 
  10   2.0000     -10.454843      -284.4908 
  11   2.0000      -8.487095      -230.9456 
  12   2.0000      -6.411795      -174.4738 
  13   2.0000      -6.406883      -174.3402 
  14   2.0000      -6.406406      -174.3272 
  15   2.0000      -1.541129       -41.9362 
  16   2.0000      -1.242520       -33.8107 
  17   2.0000      -1.145371       -31.1671 
  18   2.0000      -1.062710       -28.9178 
  19   2.0000      -0.963692       -26.2234 
  20   2.0000      -0.924597       -25.1596 
  21   2.0000      -0.864619       -23.5275 
  22   2.0000      -0.824728       -22.4420 
  23   2.0000      -0.773121       -21.0377 
  24   2.0000      -0.718680       -19.5563 
  25   2.0000      -0.701052       -19.0766 
  26   2.0000      -0.677386       -18.4326 
  27   2.0000      -0.671406       -18.2699 
  28   2.0000      -0.633809       -17.2468 
  29   2.0000      -0.611200       -16.6316 
  30   2.0000      -0.590766       -16.0756 
  31   2.0000      -0.565595       -15.3906 
  32   2.0000      -0.559190       -15.2163 
  33   2.0000      -0.543535       -14.7903 
  34   2.0000      -0.523445       -14.2437 
  35   2.0000      -0.509642       -13.8681 
  36   2.0000      -0.478893       -13.0313 
  37   2.0000      -0.473085       -12.8733 
  38   2.0000      -0.462097       -12.5743 
  39   2.0000      -0.450594       -12.2613 
  40   2.0000      -0.427037       -11.6203 
  41   2.0000      -0.420495       -11.4423 
  42   2.0000      -0.403810       -10.9882 
  43   2.0000      -0.399671       -10.8756 
  44   2.0000      -0.388821       -10.5804 
  45   2.0000      -0.374056       -10.1786 
  46   2.0000      -0.320162        -8.7120 
  47   2.0000      -0.209061        -5.6888 
  48   0.0000       0.053791         1.4637 
  49   0.0000       0.065675         1.7871 
  50   0.0000       0.072271         1.9666 
  51   0.0000       0.095567         2.6005 
  52   0.0000       0.096179         2.6172 
  53   0.0000       0.105335         2.8663 
  54   0.0000       0.109138         2.9698 
  55   0.0000       0.118341         3.2202 
  56   0.0000       0.124720         3.3938 
  57   0.0000       0.132072         3.5939 
  58   0.0000       0.138238         3.7616 
  59   0.0000       0.144572         3.9340 
  60   0.0000       0.165016         4.4903 
  61   0.0000       0.178002         4.8437 
  62   0.0000       0.187914         5.1134 
  63   0.0000       0.198224         5.3939 
  64   0.0000       0.208702         5.6791 
  65   0.0000       0.223295         6.0762 
  66   0.0000       0.239209         6.5092 
  67   0.0000       0.244561         6.6548 
  68   0.0000       0.258057         7.0221 
  69   0.0000       0.269193         7.3251 
  70   0.0000       0.276201         7.5158 
  71   0.0000       0.283545         7.7157 
  72   0.0000       0.298331         8.1180 
  73   0.0000       0.301963         8.2168 
  74   0.0000       0.321039         8.7359 
  75   0.0000       0.326976         8.8975 
  76   0.0000       0.338477         9.2104 
  77   0.0000       0.343084         9.3358 
  78   0.0000       0.353705         9.6248 
  79   0.0000       0.364102         9.9077 
  80   0.0000       0.378366        10.2959 
  81   0.0000       0.398726        10.8499 
  82   0.0000       0.408491        11.1156 
  83   0.0000       0.412061        11.2128 
  84   0.0000       0.430161        11.7053 
  85   0.0000       0.438368        11.9286 
  86   0.0000       0.444330        12.0908 
  87   0.0000       0.452580        12.3153 
  88   0.0000       0.455931        12.4065 
  89   0.0000       0.461530        12.5589 
  90   0.0000       0.466238        12.6870 
  91   0.0000       0.468694        12.7538 
  92   0.0000       0.480262        13.0686 
  93   0.0000       0.485598        13.2138 
  94   0.0000       0.490568        13.3490 
  95   0.0000       0.496237        13.5033 
  96   0.0000       0.501334        13.6420 
  97   0.0000       0.514948        14.0125 
  98   0.0000       0.517322        14.0770 
  99   0.0000       0.531695        14.4681 
 100   0.0000       0.534810        14.5529 
 101   0.0000       0.546852        14.8806 
 102   0.0000       0.555886        15.1264 
 103   0.0000       0.561759        15.2862 
 104   0.0000       0.576897        15.6982 
 105   0.0000       0.579034        15.7563 
 106   0.0000       0.584507        15.9052 
 107   0.0000       0.602877        16.4051 
 108   0.0000       0.624608        16.9965 
 109   0.0000       0.635748        17.2996 
 110   0.0000       0.653496        17.7825 
 111   0.0000       0.667638        18.1674 
 112   0.0000       0.669730        18.2243 
 113   0.0000       0.693521        18.8717 
 114   0.0000       0.701239        19.0817 
 115   0.0000       0.711573        19.3629 
 116   0.0000       0.720699        19.6112 
 117   0.0000       0.727458        19.7951 
 118   0.0000       0.742830        20.2134 
 119   0.0000       0.761035        20.7088 
 120   0.0000       0.780109        21.2278 
 121   0.0000       0.792091        21.5539 
 122   0.0000       0.800262        21.7762 
 123   0.0000       0.803320        21.8594 
 124   0.0000       0.819259        22.2932 
 125   0.0000       0.845059        22.9952 
 126   0.0000       0.869554        23.6618 
 127   0.0000       0.875566        23.8254 
 128   0.0000       0.900167        24.4948 
 129   0.0000       0.909498        24.7487 
 130   0.0000       0.925450        25.1828 
 131   0.0000       0.928612        25.2688 
 132   0.0000       0.951864        25.9015 
 133   0.0000       0.962211        26.1831 
 134   0.0000       0.977884        26.6096 
 135   0.0000       0.996231        27.1088 
 136   0.0000       1.019137        27.7321 
 137   0.0000       1.048282        28.5252 
 138   0.0000       1.056556        28.7504 
 139   0.0000       1.069660        29.1069 
 140   0.0000       1.096467        29.8364 
 141   0.0000       1.103625        30.0312 
 142   0.0000       1.128088        30.6968 
 143   0.0000       1.133815        30.8527 
 144   0.0000       1.144138        31.1336 
 145   0.0000       1.175305        31.9817 
 146   0.0000       1.197989        32.5989 
 147   0.0000       1.213222        33.0135 
 148   0.0000       1.233953        33.5776 
 149   0.0000       1.256676        34.1959 
 150   0.0000       1.266385        34.4601 
 151   0.0000       1.289184        35.0805 
 152   0.0000       1.310605        35.6634 
 153   0.0000       1.335766        36.3480 
 154   0.0000       1.356492        36.9120 
 155   0.0000       1.371700        37.3258 
 156   0.0000       1.402018        38.1508 
 157   0.0000       1.411924        38.4204 
 158   0.0000       1.419127        38.6164 
 159   0.0000       1.430978        38.9389 
 160   0.0000       1.442190        39.2440 
 161   0.0000       1.455901        39.6171 
 162   0.0000       1.468701        39.9654 
 163   0.0000       1.494722        40.6735 
 164   0.0000       1.505021        40.9537 
 165   0.0000       1.514174        41.2028 
 166   0.0000       1.546592        42.0849 
 167   0.0000       1.554057        42.2880 
 168   0.0000       1.567074        42.6422 
 169   0.0000       1.582486        43.0616 
 170   0.0000       1.589609        43.2555 
 171   0.0000       1.607331        43.7377 
 172   0.0000       1.609602        43.7995 
 173   0.0000       1.617995        44.0279 
 174   0.0000       1.622908        44.1616 
 175   0.0000       1.629349        44.3369 
 176   0.0000       1.639760        44.6201 
 177   0.0000       1.652954        44.9792 
 178   0.0000       1.680568        45.7306 
 179   0.0000       1.682135        45.7732 
 180   0.0000       1.691443        46.0265 
 181   0.0000       1.708634        46.4943 
 182   0.0000       1.716205        46.7003 
 183   0.0000       1.719771        46.7973 
 184   0.0000       1.757825        47.8328 
 185   0.0000       1.761736        47.9393 
 186   0.0000       1.779320        48.4178 
 187   0.0000       1.791005        48.7357 
 188   0.0000       1.803357        49.0718 
 189   0.0000       1.813960        49.3603 
 190   0.0000       1.833122        49.8818 
 191   0.0000       1.847370        50.2695 
 192   0.0000       1.860924        50.6383 
 193   0.0000       1.885733        51.3134 
 194   0.0000       1.898766        51.6681 
 195   0.0000       1.903494        51.7967 
 196   0.0000       1.932148        52.5764 
 197   0.0000       1.943499        52.8853 
 198   0.0000       1.950185        53.0672 
 199   0.0000       1.971235        53.6400 
 200   0.0000       2.000644        54.4403 
 201   0.0000       2.014970        54.8301 
 202   0.0000       2.023115        55.0518 
 203   0.0000       2.037943        55.4552 
 204   0.0000       2.045333        55.6563 
 205   0.0000       2.052695        55.8567 
 206   0.0000       2.073038        56.4102 
 207   0.0000       2.098461        57.1020 
 208   0.0000       2.121181        57.7203 
 209   0.0000       2.135425        58.1079 
 210   0.0000       2.175030        59.1856 
 211   0.0000       2.198593        59.8268 
 212   0.0000       2.214292        60.2540 
 213   0.0000       2.226318        60.5812 
 214   0.0000       2.243959        61.0612 
 215   0.0000       2.271378        61.8073 
 216   0.0000       2.286151        62.2093 
 217   0.0000       2.301163        62.6178 
 218   0.0000       2.329135        63.3790 
 219   0.0000       2.340653        63.6924 
 220   0.0000       2.347129        63.8686 
 221   0.0000       2.361634        64.2633 
 222   0.0000       2.376502        64.6679 
 223   0.0000       2.378599        64.7250 
 224   0.0000       2.390219        65.0412 
 225   0.0000       2.404373        65.4263 
 226   0.0000       2.409472        65.5651 
 227   0.0000       2.440499        66.4094 
 228   0.0000       2.458556        66.9007 
 229   0.0000       2.463768        67.0425 
 230   0.0000       2.479526        67.4713 
 231   0.0000       2.492735        67.8308 
 232   0.0000       2.503155        68.1143 
 233   0.0000       2.515078        68.4388 
 234   0.0000       2.544540        69.2405 
 235   0.0000       2.567942        69.8772 
 236   0.0000       2.572855        70.0109 
 237   0.0000       2.591160        70.5090 
 238   0.0000       2.600367        70.7596 
 239   0.0000       2.616338        71.1942 
 240   0.0000       2.623490        71.3888 
 241   0.0000       2.648574        72.0714 
 242   0.0000       2.652113        72.1677 
 243   0.0000       2.669288        72.6350 
 244   0.0000       2.680323        72.9353 
 245   0.0000       2.692578        73.2688 
 246   0.0000       2.708668        73.7066 
 247   0.0000       2.722464        74.0820 
 248   0.0000       2.733238        74.3752 
 249   0.0000       2.736578        74.4661 
 250   0.0000       2.747504        74.7634 
 251   0.0000       2.758384        75.0595 
 252   0.0000       2.782295        75.7101 
 253   0.0000       2.789886        75.9167 
 254   0.0000       2.803615        76.2902 
 255   0.0000       2.843519        77.3761 
 256   0.0000       2.847963        77.4970 
 257   0.0000       2.874568        78.2210 
 258   0.0000       2.877477        78.3001 
 259   0.0000       2.896543        78.8189 
 260   0.0000       2.954323        80.3912 
 261   0.0000       2.963263        80.6345 
 262   0.0000       2.966908        80.7337 
 263   0.0000       2.985684        81.2446 
 264   0.0000       2.996442        81.5373 
 265   0.0000       3.006062        81.7991 
 266   0.0000       3.025282        82.3221 
 267   0.0000       3.046148        82.8899 
 268   0.0000       3.064441        83.3877 
 269   0.0000       3.089541        84.0707 
 270   0.0000       3.096365        84.2564 
 271   0.0000       3.113081        84.7113 
 272   0.0000       3.131991        85.2258 
 273   0.0000       3.143159        85.5297 
 274   0.0000       3.153878        85.8214 
 275   0.0000       3.175149        86.4002 
 276   0.0000       3.196952        86.9935 
 277   0.0000       3.206496        87.2532 
 278   0.0000       3.212005        87.4031 
 279   0.0000       3.226920        87.8090 
 280   0.0000       3.256359        88.6100 
 281   0.0000       3.266174        88.8771 
 282   0.0000       3.287014        89.4442 
 283   0.0000       3.297876        89.7398 
 284   0.0000       3.319501        90.3282 
 285   0.0000       3.333011        90.6958 
 286   0.0000       3.356828        91.3439 
 287   0.0000       3.365622        91.5832 
 288   0.0000       3.377552        91.9079 
 289   0.0000       3.392318        92.3097 
 290   0.0000       3.403771        92.6213 
 291   0.0000       3.424529        93.1862 
 292   0.0000       3.430360        93.3449 
 293   0.0000       3.437762        93.5462 
 294   0.0000       3.461452        94.1909 
 295   0.0000       3.477104        94.6168 
 296   0.0000       3.497609        95.1748 
 297   0.0000       3.501913        95.2919 
 298   0.0000       3.522732        95.8584 
 299   0.0000       3.557697        96.8099 
 300   0.0000       3.572580        97.2148 
 301   0.0000       3.590507        97.7027 
 302   0.0000       3.620938        98.5307 
 303   0.0000       3.666662        99.7749 
 304   0.0000       3.690400       100.4209 
 305   0.0000       3.720019       101.2269 
 306   0.0000       3.748638       102.0056 
 307   0.0000       3.765046       102.4521 
 308   0.0000       3.783838       102.9635 
 309   0.0000       3.806590       103.5826 
 310   0.0000       3.819864       103.9438 
 311   0.0000       3.866296       105.2073 
 312   0.0000       3.888980       105.8245 
 313   0.0000       3.906898       106.3121 
 314   0.0000       3.916734       106.5797 
 315   0.0000       3.920344       106.6780 
 316   0.0000       3.939343       107.1950 
 317   0.0000       4.013664       109.2173 
 318   0.0000       4.029687       109.6534 
 319   0.0000       4.082560       111.0921 
 320   0.0000       4.101674       111.6122 
 321   0.0000       4.161500       113.2402 
 322   0.0000       4.165315       113.3440 
 323   0.0000       4.192523       114.0843 
 324   0.0000       4.238095       115.3244 
 325   0.0000       4.257065       115.8406 
 326   0.0000       4.314331       117.3989 
 327   0.0000       4.350509       118.3834 
 328   0.0000       4.364839       118.7733 
 329   0.0000       4.415756       120.1588 
 330   0.0000       4.429978       120.5458 
 331   0.0000       4.474111       121.7468 
 332   0.0000       4.540523       123.5539 
 333   0.0000       4.582897       124.7070 
 334   0.0000       4.586241       124.7980 
 335   0.0000       4.609325       125.4261 
 336   0.0000       4.630765       126.0095 
 337   0.0000       4.661400       126.8431 
 338   0.0000       4.688815       127.5891 
 339   0.0000       4.703326       127.9840 
 340   0.0000       4.744758       129.1114 
 341   0.0000       4.767435       129.7285 
 342   0.0000       4.799597       130.6037 
 343   0.0000       4.843501       131.7984 
 344   0.0000       4.866218       132.4165 
 345   0.0000       4.912733       133.6823 
 346   0.0000       4.917270       133.8057 
 347   0.0000       4.984313       135.6300 
 348   0.0000       5.017325       136.5284 
 349   0.0000       5.080518       138.2479 
 350   0.0000       5.123640       139.4213 
 351   0.0000       5.147725       140.0767 
 352   0.0000       5.150753       140.1591 
 353   0.0000       5.160432       140.4225 
 354   0.0000       5.165407       140.5579 
 355   0.0000       5.180477       140.9680 
 356   0.0000       5.191813       141.2764 
 357   0.0000       5.195779       141.3843 
 358   0.0000       5.209280       141.7517 
 359   0.0000       5.225726       142.1992 
 360   0.0000       5.261851       143.1823 
 361   0.0000       5.291700       143.9945 
 362   0.0000       5.295386       144.0948 
 363   0.0000       5.335967       145.1990 
 364   0.0000       5.376057       146.2900 
 365   0.0000       5.409235       147.1928 
 366   0.0000       5.426890       147.6732 
 367   0.0000       5.465021       148.7108 
 368   0.0000       5.474160       148.9595 
 369   0.0000       5.504734       149.7914 
 370   0.0000       5.578945       151.8108 
 371   0.0000       5.608867       152.6250 
 372   0.0000       5.665938       154.1780 
 373   0.0000       5.697090       155.0257 
 374   0.0000       5.984009       162.8332 
 375   0.0000       6.057833       164.8420 
 376   0.0000       6.168153       167.8440 
 377   0.0000       6.312113       171.7613 
 378   0.0000       6.333300       172.3379 
 379   0.0000       6.408287       174.3783 
 380   0.0000       6.476788       176.2424 
 381   0.0000       6.597429       179.5252 
 382   0.0000       6.667643       181.4358 
 383   0.0000       6.709813       182.5833 
 384   0.0000       6.784620       184.6189 
 385   0.0000       6.795958       184.9274 
 386   0.0000       6.837638       186.0616 
 387   0.0000       6.849651       186.3885 
 388   0.0000       6.861828       186.7198 
 389   0.0000       6.898993       187.7312 
 390   0.0000       6.917555       188.2363 
 391   0.0000       6.923914       188.4093 
 392   0.0000       7.003705       190.5805 
 393   0.0000       7.080497       192.6701 
 394   0.0000       8.251383       224.5316 
 395   0.0000       8.256011       224.6575 
 396   0.0000       8.607109       234.2113 
 397   0.0000       8.638174       235.0567 
 398   0.0000       8.710966       237.0374 
 399   0.0000       9.409368       256.0419 
 400   0.0000       9.617779       261.7131 
 401   0.0000       9.780440       266.1393 
 402   0.0000      22.260122       605.7287 
 403   0.0000      22.601028       615.0052 
 404   0.0000      22.645600       616.2181 
 405   0.0000      22.736186       618.6831 
 406   0.0000      22.983315       625.4078 
 407   0.0000      23.511473       639.7797 
 408   0.0000      32.166855       875.3046 
 409   0.0000      32.405631       881.8020 
 410   0.0000      43.734592      1190.0787 
 411   0.0000      43.916514      1195.0291 
 412   0.0000      57.244478      1557.7014 

                    ********************************
                    * MULLIKEN POPULATION ANALYSIS *
                    ********************************

-----------------------
MULLIKEN ATOMIC CHARGES
-----------------------
   0 C :   -0.417455
   1 C :   -0.369818
   2 C :   -0.220535
   3 C :   -0.424810
   4 H :    0.218966
   5 H :    0.185536
   6 S :    0.955479
   7 C :    0.500847
   8 N :   -0.599231
   9 N :   -0.605331
  10 H :    0.304638
  11 H :    0.222016
  12 H :    0.118862
  13 H :    0.257713
  14 H :    0.228508
  15 F :   -0.101827
  16 O :   -0.425700
  17 O :   -0.492925
  18 H :    0.171676
  19 H :    0.152756
  20 H :    0.199320
  21 H :    0.141314
Sum of atomic charges:   -0.0000000

--------------------------------
MULLIKEN REDUCED ORBITAL CHARGES
--------------------------------
  0 C s       :     3.335917  s :     3.335917
      pz      :     0.978846  p :     2.981943
      px      :     0.959269
      py      :     1.043828
      dz2     :     0.018137  d :     0.094542
      dxz     :     0.026830
      dyz     :     0.008823
      dx2y2   :     0.026925
      dxy     :     0.013826
      f0      :     0.000850  f :     0.005052
      f+1     :     0.000845
      f-1     :     0.000385
      f+2     :     0.000460
      f-2     :     0.000892
      f+3     :     0.001145
      f-3     :     0.000476
  1 C s       :     3.182506  s :     3.182506
      pz      :     1.058638  p :     3.123616
      px      :     1.103117
      py      :     0.961860
      dz2     :     0.009225  d :     0.056394
      dxz     :     0.013317
      dyz     :     0.009561
      dx2y2   :     0.018763
      dxy     :     0.005527
      f0      :     0.000828  f :     0.007303
      f+1     :     0.000414
      f-1     :     0.001482
      f+2     :     0.000818
      f-2     :     0.001576
      f+3     :     0.001292
      f-3     :     0.000893
  2 C s       :     3.229407  s :     3.229407
      pz      :     0.997244  p :     2.894633
      px      :     1.018324
      py      :     0.879064
      dz2     :     0.023758  d :     0.091347
      dxz     :     0.014878
      dyz     :     0.014337
      dx2y2   :     0.011718
      dxy     :     0.026656
      f0      :     0.000830  f :     0.005148
      f+1     :     0.000908
      f-1     :     0.000503
      f+2     :     0.000539
      f-2     :     0.000761
      f+3     :     0.000653
      f-3     :     0.000955
  3 C s       :     3.301044  s :     3.301044
      pz      :     1.013417  p :     3.036472
      px      :     0.994052
      py      :     1.029004
      dz2     :     0.008526  d :     0.082948
      dxz     :     0.022412
      dyz     :     0.015296
      dx2y2   :     0.015306
      dxy     :     0.021408
      f0      :     0.000613  f :     0.004347
      f+1     :     0.000635
      f-1     :     0.000160
      f+2     :     0.000747
      f-2     :     0.000557
      f+3     :     0.000694
      f-3     :     0.000942
  4 H s       :     0.760507  s :     0.760507
      pz      :     0.003560  p :     0.020527
      px      :     0.008853
      py      :     0.008114
  5 H s       :     0.793978  s :     0.793978
      pz      :     0.011193  p :     0.020485
      px      :     0.005071
      py      :     0.004221
  6 S s       :     5.351121  s :     5.351121
      pz      :     2.887628  p :     8.455996
      px      :     2.871626
      py      :     2.696742
      dz2     :     0.208811  d :     1.110532
      dxz     :     0.254952
      dyz     :     0.201290
      dx2y2   :     0.254038
      dxy     :     0.191440
      f0      :     0.020889  f :     0.126872
      f+1     :     0.008702
      f-1     :     0.017855
      f+2     :     0.017880
      f-2     :     0.018612
      f+3     :     0.023776
      f-3     :     0.019157
  7 C s       :     2.964199  s :     2.964199
      pz      :     0.796433  p :     2.340304
      px      :     0.649197
      py      :     0.894673
      dz2     :     0.040427  d :     0.178917
      dxz     :     0.042904
      dyz     :     0.022304
      dx2y2   :     0.033863
      dxy     :     0.039419
      f0      :     0.001982  f :     0.015734
      f+1     :     0.002348
      f-1     :     0.001911
      f+2     :     0.001924
      f-2     :     0.003112
      f+3     :     0.003119
      f-3     :     0.001338
  8 N s       :     3.502752  s :     3.502752
      pz      :     1.668909  p :     4.064782
      px      :     1.145594
      py      :     1.250279
      dz2     :     0.003358  d :     0.028043
      dxz     :     0.006080
      dyz     :     0.004074
      dx2y2   :     0.008446
      dxy     :     0.006085
      f0      :     0.000796  f :     0.003655
      f+1     :     0.000484
      f-1     :     0.000342
      f+2     :     0.000563
      f-2     :     0.000512
      f+3     :     0.000463
      f-3     :     0.000496
  9 N s       :     3.524099  s :     3.524099
      pz      :     1.404402  p :     4.049656
      px      :     1.188966
      py      :     1.456287
      dz2     :     0.006618  d :     0.027929
      dxz     :     0.004173
      dyz     :     0.005930
      dx2y2   :     0.007369
      dxy     :     0.003839
      f0      :     0.000422  f :     0.003648
      f+1     :     0.000498
      f-1     :     0.000543
      f+2     :     0.000766
      f-2     :     0.000565
      f+3     :     0.000491
      f-3     :     0.000362
 10 H s       :     0.639619  s :     0.639619
      pz      :     0.008795  p :     0.055743
      px      :     0.035870
      py      :     0.011077
 11 H s       :     0.741803  s :     0.741803
      pz      :     0.014873  p :     0.036180
      px      :     0.005129
      py      :     0.016179
 12 H s       :     0.857922  s :     0.857922
      pz      :     0.008915  p :     0.023216
      px      :     0.009043
      py      :     0.005258
 13 H s       :     0.706010  s :     0.706010
      pz      :     0.013116  p :     0.036278
      px      :     0.014644
      py      :     0.008517
 14 H s       :     0.734853  s :     0.734853
      pz      :     0.014135  p :     0.036639
      px      :     0.004879
      py      :     0.017626
 15 F s       :     3.906593  s :     3.906593
      pz      :     1.841335  p :     5.173384
      px      :     1.827476
      py      :     1.504572
      dz2     :     0.002479  d :     0.020863
      dxz     :     0.000621
      dyz     :     0.005283
      dx2y2   :     0.006678
      dxy     :     0.005802
      f0      :     0.000096  f :     0.000987
      f+1     :     0.000024
      f-1     :     0.000167
      f+2     :     0.000131
      f-2     :     0.000056
      f+3     :     0.000250
      f-3     :     0.000264
 16 O s       :     3.860212  s :     3.860212
      pz      :     1.648069  p :     4.527204
      px      :     1.498949
      py      :     1.380186
      dz2     :     0.003891  d :     0.036029
      dxz     :     0.005244
      dyz     :     0.005828
      dx2y2   :     0.010700
      dxy     :     0.010366
      f0      :     0.000243  f :     0.002254
      f+1     :     0.000210
      f-1     :     0.000220
      f+2     :     0.000084
      f-2     :     0.000418
      f+3     :     0.000562
      f-3     :     0.000517
 17 O s       :     3.859672  s :     3.859672
      pz      :     1.385752  p :     4.599246
      px      :     1.562858
      py      :     1.650636
      dz2     :     0.010671  d :     0.031974
      dxz     :     0.008608
      dyz     :     0.007668
      dx2y2   :     0.002322
      dxy     :     0.002704
      f0      :     0.000456  f :     0.002033
      f+1     :     0.000576
      f-1     :     0.000320
      f+2     :     0.000273
      f-2     :     0.000295
      f+3     :     0.000052
      f-3     :     0.000061
 18 H s       :     0.808673  s :     0.808673
      pz      :     0.003807  p :     0.019651
      px      :     0.008283
      py      :     0.007561
 19 H s       :     0.827914  s :     0.827914
      pz      :     0.009663  p :     0.019330
      px      :     0.006056
      py      :     0.003611
 20 H s       :     0.780021  s :     0.780021
      pz      :     0.010440  p :     0.020659
      px      :     0.006441
      py      :     0.003778
 21 H s       :     0.839235  s :     0.839235
      pz      :     0.003480  p :     0.019451
      px      :     0.005002
      py      :     0.010969


                     *******************************
                     * LOEWDIN POPULATION ANALYSIS *
                     *******************************

----------------------
LOEWDIN ATOMIC CHARGES
----------------------
   0 C :   -0.285240
   1 C :   -0.292870
   2 C :   -0.277040
   3 C :   -0.371355
   4 H :    0.147930
   5 H :    0.141614
   6 S :    0.572940
   7 C :   -0.469086
   8 N :   -0.037122
   9 N :   -0.006592
  10 H :    0.137863
  11 H :    0.161849
  12 H :    0.118908
  13 H :    0.174597
  14 H :    0.157638
  15 F :    0.097445
  16 O :   -0.259502
  17 O :   -0.296736
  18 H :    0.145562
  19 H :    0.148416
  20 H :    0.147010
  21 H :    0.143771

-------------------------------
LOEWDIN REDUCED ORBITAL CHARGES
-------------------------------
  0 C s       :     2.755161  s :     2.755161
      pz      :     1.006092  p :     3.059189
      px      :     1.030086
      py      :     1.023011
      dz2     :     0.088091  d :     0.427783
      dxz     :     0.124801
      dyz     :     0.035912
      dx2y2   :     0.108356
      dxy     :     0.070622
      f0      :     0.006310  f :     0.043107
      f+1     :     0.005954
      f-1     :     0.004961
      f+2     :     0.004416
      f-2     :     0.007913
      f+3     :     0.009261
      f-3     :     0.004292
  1 C s       :     2.737324  s :     2.737324
      pz      :     1.051396  p :     3.129170
      px      :     1.010467
      py      :     1.067306
      dz2     :     0.048662  d :     0.382442
      dxz     :     0.091361
      dyz     :     0.061802
      dx2y2   :     0.100204
      dxy     :     0.080413
      f0      :     0.004985  f :     0.043935
      f+1     :     0.003014
      f-1     :     0.006569
      f+2     :     0.006434
      f-2     :     0.008135
      f+3     :     0.009274
      f-3     :     0.005524
  2 C s       :     2.780861  s :     2.780861
      pz      :     1.038549  p :     3.057318
      px      :     1.024781
      py      :     0.993988
      dz2     :     0.093237  d :     0.399970
      dxz     :     0.076199
      dyz     :     0.061766
      dx2y2   :     0.057917
      dxy     :     0.110851
      f0      :     0.005687  f :     0.038892
      f+1     :     0.005092
      f-1     :     0.005686
      f+2     :     0.005804
      f-2     :     0.005044
      f+3     :     0.004699
      f-3     :     0.006880
  3 C s       :     2.845036  s :     2.845036
      pz      :     1.021459  p :     3.133112
      px      :     1.024947
      py      :     1.086706
      dz2     :     0.054826  d :     0.361965
      dxz     :     0.090596
      dyz     :     0.056412
      dx2y2   :     0.067300
      dxy     :     0.092831
      f0      :     0.003610  f :     0.031242
      f+1     :     0.004241
      f-1     :     0.002935
      f+2     :     0.006498
      f-2     :     0.003516
      f+3     :     0.004272
      f-3     :     0.006169
  4 H s       :     0.787237  s :     0.787237
      pz      :     0.012771  p :     0.064833
      px      :     0.027335
      py      :     0.024728
  5 H s       :     0.795397  s :     0.795397
      pz      :     0.032399  p :     0.062988
      px      :     0.016610
      py      :     0.013979
  6 S s       :     4.749683  s :     4.749683
      pz      :     2.894087  p :     8.543033
      px      :     2.882831
      py      :     2.766115
      dz2     :     0.338487  d :     1.749497
      dxz     :     0.403896
      dyz     :     0.290177
      dx2y2   :     0.395170
      dxy     :     0.321766
      f0      :     0.057205  f :     0.384847
      f+1     :     0.033400
      f-1     :     0.055977
      f+2     :     0.051448
      f-2     :     0.055441
      f+3     :     0.071730
      f-3     :     0.059646
  7 C s       :     2.694288  s :     2.694288
      pz      :     0.916196  p :     2.788338
      px      :     0.904833
      py      :     0.967309
      dz2     :     0.176633  d :     0.868690
      dxz     :     0.198090
      dyz     :     0.102865
      dx2y2   :     0.183699
      dxy     :     0.207404
      f0      :     0.014530  f :     0.117770
      f+1     :     0.018567
      f-1     :     0.009764
      f+2     :     0.014251
      f-2     :     0.018847
      f+3     :     0.026446
      f-3     :     0.015365
  8 N s       :     2.969238  s :     2.969238
      pz      :     1.498695  p :     3.913319
      px      :     1.178704
      py      :     1.235920
      dz2     :     0.007730  d :     0.143863
      dxz     :     0.029971
      dyz     :     0.015872
      dx2y2   :     0.051291
      dxy     :     0.038998
      f0      :     0.001868  f :     0.010703
      f+1     :     0.001158
      f-1     :     0.000403
      f+2     :     0.001537
      f-2     :     0.001726
      f+3     :     0.002526
      f-3     :     0.001484
  9 N s       :     2.958735  s :     2.958735
      pz      :     1.348069  p :     3.886949
      px      :     1.198083
      py      :     1.340797
      dz2     :     0.029805  d :     0.148880
      dxz     :     0.025573
      dyz     :     0.028791
      dx2y2   :     0.041382
      dxy     :     0.023330
      f0      :     0.001514  f :     0.012028
      f+1     :     0.002237
      f-1     :     0.001060
      f+2     :     0.001829
      f-2     :     0.002297
      f+3     :     0.001992
      f-3     :     0.001098
 10 H s       :     0.689059  s :     0.689059
      pz      :     0.028280  p :     0.173077
      px      :     0.110167
      py      :     0.034630
 11 H s       :     0.729016  s :     0.729016
      pz      :     0.042054  p :     0.109135
      px      :     0.020268
      py      :     0.046813
 12 H s       :     0.805713  s :     0.805713
      pz      :     0.028223  p :     0.075379
      px      :     0.027929
      py      :     0.019227
 13 H s       :     0.716647  s :     0.716647
      pz      :     0.038912  p :     0.108756
      px      :     0.041516
      py      :     0.028328
 14 H s       :     0.732167  s :     0.732167
      pz      :     0.041945  p :     0.110195
      px      :     0.016751
      py      :     0.051499
 15 F s       :     3.653537  s :     3.653537
      pz      :     1.789444  p :     5.207711
      px      :     1.783685
      py      :     1.634582
      dz2     :     0.005817  d :     0.039526
      dxz     :     0.001080
      dyz     :     0.007781
      dx2y2   :     0.014704
      dxy     :     0.010144
      f0      :     0.000154  f :     0.001782
      f+1     :     0.000044
      f-1     :     0.000332
      f+2     :     0.000200
      f-2     :     0.000111
      f+3     :     0.000470
      f-3     :     0.000471
 16 O s       :     3.562012  s :     3.562012
      pz      :     1.601314  p :     4.623878
      px      :     1.555740
      py      :     1.466825
      dz2     :     0.009745  d :     0.068869
      dxz     :     0.008885
      dyz     :     0.008419
      dx2y2   :     0.012724
      dxy     :     0.029097
      f0      :     0.000454  f :     0.004742
      f+1     :     0.000504
      f-1     :     0.000472
      f+2     :     0.000154
      f-2     :     0.000820
      f+3     :     0.001185
      f-3     :     0.001152
 17 O s       :     3.560311  s :     3.560311
      pz      :     1.509489  p :     4.665677
      px      :     1.551440
      py      :     1.604748
      dz2     :     0.023325  d :     0.066313
      dxz     :     0.021630
      dyz     :     0.010691
      dx2y2   :     0.005961
      dxy     :     0.004706
      f0      :     0.000929  f :     0.004435
      f+1     :     0.001606
      f-1     :     0.000616
      f+2     :     0.000485
      f-2     :     0.000533
      f+3     :     0.000105
      f-3     :     0.000162
 18 H s       :     0.795052  s :     0.795052
      pz      :     0.013250  p :     0.059386
      px      :     0.024463
      py      :     0.021673
 19 H s       :     0.793489  s :     0.793489
      pz      :     0.026903  p :     0.058094
      px      :     0.019119
      py      :     0.012072
 20 H s       :     0.791545  s :     0.791545
      pz      :     0.028466  p :     0.061445
      px      :     0.019134
      py      :     0.013845
 21 H s       :     0.798738  s :     0.798738
      pz      :     0.012452  p :     0.057490
      px      :     0.015979
      py      :     0.029059


                      *****************************
                      * MAYER POPULATION ANALYSIS *
                      *****************************

  NA   - Mulliken gross atomic population
  ZA   - Total nuclear charge
  QA   - Mulliken gross atomic charge
  VA   - Mayer's total valence
  BVA  - Mayer's bonded valence
  FA   - Mayer's free valence

  ATOM       NA         ZA         QA         VA         BVA        FA
  0 C      6.4175     6.0000    -0.4175     3.8966     3.8966    -0.0000
  1 C      6.3698     6.0000    -0.3698     3.5684     3.5684    -0.0000
  2 C      6.2205     6.0000    -0.2205     3.5910     3.5910     0.0000
  3 C      6.4248     6.0000    -0.4248     3.8613     3.8613    -0.0000
  4 H      0.7810     1.0000     0.2190     0.9255     0.9255    -0.0000
  5 H      0.8145     1.0000     0.1855     0.9554     0.9554    -0.0000
  6 S     15.0445    16.0000     0.9555     5.7990     5.7990     0.0000
  7 C      5.4992     6.0000     0.5008     3.7025     3.7025    -0.0000
  8 N      7.5992     7.0000    -0.5992     2.9787     2.9787     0.0000
  9 N      7.6053     7.0000    -0.6053     2.9490     2.9490     0.0000
 10 H      0.6954     1.0000     0.3046     0.9649     0.9649    -0.0000
 11 H      0.7780     1.0000     0.2220     0.9650     0.9650     0.0000
 12 H      0.8811     1.0000     0.1189     0.9774     0.9774    -0.0000
 13 H      0.7423     1.0000     0.2577     0.9434     0.9434    -0.0000
 14 H      0.7715     1.0000     0.2285     0.9589     0.9589    -0.0000
 15 F      9.1018     9.0000    -0.1018     1.1896     1.1896     0.0000
 16 O      8.4257     8.0000    -0.4257     2.0279     2.0279    -0.0000
 17 O      8.4929     8.0000    -0.4929     1.8641     1.8641    -0.0000
 18 H      0.8283     1.0000     0.1717     0.9612     0.9612    -0.0000
 19 H      0.8472     1.0000     0.1528     0.9611     0.9611    -0.0000
 20 H      0.8007     1.0000     0.1993     0.9444     0.9444    -0.0000
 21 H      0.8587     1.0000     0.1413     0.9618     0.9618    -0.0000

  Mayer bond orders larger than 0.100000
B(  0-C ,  1-C ) :   0.9595 B(  0-C ,  2-C ) :   0.8966 B(  0-C , 20-H ) :   0.9905 
B(  0-C , 21-H ) :   0.9960 B(  1-C ,  7-C ) :   1.6132 B(  1-C , 12-H ) :   0.9906 
B(  2-C ,  3-C ) :   0.9059 B(  2-C , 18-H ) :   0.9700 B(  2-C , 19-H ) :   0.9671 
B(  3-C ,  4-H ) :   0.9275 B(  3-C ,  5-H ) :   0.9458 B(  3-C ,  6-S ) :   0.9491 
B(  6-S , 15-F ) :   1.1284 B(  6-S , 16-O ) :   1.9403 B(  6-S , 17-O ) :   1.7135 
B(  7-C ,  8-N ) :   1.0297 B(  7-C ,  9-N ) :   1.0960 B(  8-N , 13-H ) :   0.9253 
B(  8-N , 14-H ) :   0.9338 B(  9-N , 10-H ) :   0.8331 B(  9-N , 11-H ) :   0.9388 
B( 10-H , 17-O ) :   0.1039 

-------
TIMINGS
-------

Total SCF time: 0 days 0 hours 0 min 38 sec 

Total time                  ....      38.397 sec
Sum of individual times     ....      37.510 sec  ( 97.7%)

Fock matrix formation       ....      34.494 sec  ( 89.8%)
  Split-RI-J                ....       3.297 sec  (  9.6% of F)
  Chain of spheres X        ....      23.962 sec  ( 69.5% of F)
  XC integration            ....       6.854 sec  ( 19.9% of F)
    Basis function eval.    ....       0.669 sec  (  9.8% of XC)
    Density eval.           ....       1.707 sec  ( 24.9% of XC)
    XC-Functional eval.     ....       0.166 sec  (  2.4% of XC)
    XC-Potential eval.      ....       1.941 sec  ( 28.3% of XC)
Diagonalization             ....       0.388 sec  (  1.0%)
Density matrix formation    ....       0.033 sec  (  0.1%)
Population analysis         ....       0.047 sec  (  0.1%)
Initial guess               ....       0.310 sec  (  0.8%)
Orbital Transformation      ....       0.000 sec  (  0.0%)
Orbital Orthonormalization  ....       0.000 sec  (  0.0%)
DIIS solution               ....       0.227 sec  (  0.6%)
SOSCF solution              ....       0.304 sec  (  0.8%)
Grid generation             ....       1.707 sec  (  4.4%)

Maximum memory used throughout the entire SCF-calculation: 91.1 MB


-------------------------------------------------------------------------------
                          DFT DISPERSION CORRECTION                            
                                                                               
                              DFTD3 V3.1  Rev 1                                
                              USING zero damping                               
-------------------------------------------------------------------------------
The M062X functional is recognized
Active option DFTDOPT                   ...         3   

molecular C6(AA) [au] = 4996.070706 


            DFT-D V3
 parameters
 s6 scaling factor         :     1.0000 
 rs6 scaling factor        :     1.6190 
 s8 scaling factor         :     0.0000 
 rs8 scaling factor        :     1.0000 
 Damping factor alpha6     :    14.0000 
 Damping factor alpha8     :    16.0000 
 ad hoc parameters k1-k3   :    16.0000     1.3333    -4.0000 

 Edisp/kcal,au: -0.577327712572  -0.000920030175 
 E6   /kcal   :  -0.577327713 
 E8   /kcal   :  -0.000000000 
 % E8         :   0.000000000 

-------------------------   ----------------
Dispersion correction           -0.000920030
-------------------------   ----------------


-------------------------   --------------------
FINAL SINGLE POINT ENERGY      -955.066847173616
-------------------------   --------------------


                            ***************************************
                            *     ORCA property calculations      *
                            ***************************************

                                    ---------------------
                                    Active property flags
                                    ---------------------
   (+) Dipole Moment


------------------------------------------------------------------------------
                       ORCA ELECTRIC PROPERTIES CALCULATION
------------------------------------------------------------------------------

Dipole Moment Calculation                       ... on
Quadrupole Moment Calculation                   ... off
Polarizability Calculation                      ... off
GBWName                                         ... M062X_D1_wb97.gbw
Electron density file                           ... M062X_D1_wb97.scfp
The origin for moment calculation is the CENTER OF MASS  = ( 4.290674,  0.722526 -6.585119)

-------------
DIPOLE MOMENT
-------------
                                X             Y             Z
Electronic contribution:    -15.27068      -6.75937      -1.15192
Nuclear contribution   :     15.92508       5.34175       1.81950
                        -----------------------------------------
Total Dipole Moment    :      0.65440      -1.41761       0.66757
                        -----------------------------------------
Magnitude (a.u.)       :      1.69809
Magnitude (Debye)      :      4.31621



--------------------
Rotational spectrum 
--------------------
 
Rotational constants in cm-1:     0.058561     0.020662     0.017762 
Rotational constants in MHz :  1755.621534   619.433801   532.501507 

 Dipole components along the rotational axes: 
x,y,z [a.u.] :    -0.481086     0.770183    -1.434886 
x,y,z [Debye]:    -1.222824     1.957650    -3.647191 

 

Timings for individual modules:

Sum of individual times         ...       40.365 sec (=   0.673 min)
GTO integral calculation        ...        1.397 sec (=   0.023 min)   3.5 %
SCF iterations                  ...       38.969 sec (=   0.649 min)  96.5 %
                             ****ORCA TERMINATED NORMALLY****
TOTAL RUN TIME: 0 days 0 hours 0 minutes 41 seconds 22 msec
