
                                        *****************
                                        * O   R   C   A *
                                        *****************

                                            #,                                       
                                            ###                                      
                                            ####                                     
                                            #####                                    
                                            ######                                   
                                           ########,                                 
                                     ,,################,,,,,                         
                               ,,#################################,,                 
                          ,,##########################################,,             
                       ,#########################################, ''#####,          
                    ,#############################################,,   '####,        
                  ,##################################################,,,,####,       
                ,###########''''           ''''###############################       
              ,#####''   ,,,,##########,,,,          '''####'''          '####       
            ,##' ,,,,###########################,,,                        '##       
           ' ,,###''''                  '''############,,,                           
         ,,##''                                '''############,,,,        ,,,,,,###''
      ,#''                                            '''#######################'''  
     '                                                          ''''####''''         
             ,#######,   #######,   ,#######,      ##                                
            ,#'     '#,  ##    ##  ,#'     '#,    #''#        ######   ,####,        
            ##       ##  ##   ,#'  ##            #'  '#       #        #'  '#        
            ##       ##  #######   ##           ,######,      #####,   #    #        
            '#,     ,#'  ##    ##  '#,     ,#' ,#      #,         ##   #,  ,#        
             '#######'   ##     ##  '#######'  #'      '#     #####' # '####'        



                  #######################################################
                  #                        -***-                        #
                  #          Department of theory and spectroscopy      #
                  #    Directorship and core code : Frank Neese         #
                  #        Max Planck Institute fuer Kohlenforschung    #
                  #                Kaiser Wilhelm Platz 1               #
                  #                 D-45470 Muelheim/Ruhr               #
                  #                      Germany                        #
                  #                                                     #
                  #                  All rights reserved                #
                  #                        -***-                        #
                  #######################################################


                         Program Version 5.0.0 -  RELEASE  -
                                (SVN: $Rev: 19529$)
                ($Date: 2021-06-28 11:36:33 +0200 (Mo, 28 Jun 2021) $)


 With contributions from (in alphabetic order):
   Daniel Aravena         : Magnetic Suceptibility
   Michael Atanasov       : Ab Initio Ligand Field Theory (pilot matlab implementation)
   Alexander A. Auer      : GIAO ZORA, VPT2 properties, NMR spectrum
   Ute Becker             : Parallelization
   Giovanni Bistoni       : ED, misc. LED, open-shell LED, HFLD
   Martin Brehm           : Molecular dynamics
   Dmytro Bykov           : SCF Hessian
   Vijay G. Chilkuri      : MRCI spin determinant printing, contributions to CSF-ICE
   Dipayan Datta          : RHF DLPNO-CCSD density
   Achintya Kumar Dutta   : EOM-CC, STEOM-CC
   Dmitry Ganyushin       : Spin-Orbit,Spin-Spin,Magnetic field MRCI
   Miquel Garcia          : C-PCM Hessian, Gaussian charge scheme
   Yang Guo               : DLPNO-NEVPT2, F12-NEVPT2, CIM, IAO-localization
   Andreas Hansen         : Spin unrestricted coupled pair/coupled cluster methods
   Benjamin Helmich-Paris : MC-RPA, TRAH-SCF, COSX integrals
   Lee Huntington         : MR-EOM, pCC
   Robert Izsak           : Overlap fitted RIJCOSX, COSX-SCS-MP3, EOM
   Marcus Kettner         : VPT2
   Christian Kollmar      : KDIIS, OOCD, Brueckner-CCSD(T), CCSD density, CASPT2, CASPT2-K
   Simone Kossmann        : Meta GGA functionals, TD-DFT gradient, OOMP2, MP2 Hessian
   Martin Krupicka        : Initial AUTO-CI
   Lucas Lang             : DCDCAS
   Marvin Lechner         : AUTO-CI (C++ implementation), FIC-MRCC
   Dagmar Lenk            : GEPOL surface, SMD
   Dimitrios Liakos       : Extrapolation schemes; Compound Job, initial MDCI parallelization
   Dimitrios Manganas     : Further ROCIS development; embedding schemes
   Dimitrios Pantazis     : SARC Basis sets
   Anastasios Papadopoulos: AUTO-CI, single reference methods and gradients
   Taras Petrenko         : DFT Hessian,TD-DFT gradient, ASA, ECA, R-Raman, ABS, FL, XAS/XES, NRVS
   Peter Pinski           : DLPNO-MP2, DLPNO-MP2 Gradient
   Christoph Reimann      : Effective Core Potentials
   Marius Retegan         : Local ZFS, SOC
   Christoph Riplinger    : Optimizer, TS searches, QM/MM, DLPNO-CCSD(T), (RO)-DLPNO pert. Triples
   Tobias Risthaus        : Range-separated hybrids, TD-DFT gradient, RPA, STAB
   Michael Roemelt        : Original ROCIS implementation
   Masaaki Saitow         : Open-shell DLPNO-CCSD energy and density
   Barbara Sandhoefer     : DKH picture change effects
   Avijit Sen             : IP-ROCIS
   Kantharuban Sivalingam : CASSCF convergence, NEVPT2, FIC-MRCI
   Bernardo de Souza      : ESD, SOC TD-DFT
   Georgi Stoychev        : AutoAux, RI-MP2 NMR
   Willem Van den Heuvel  : Paramagnetic NMR
   Boris Wezisla          : Elementary symmetry handling
   Frank Wennmohs         : Technical directorship


 We gratefully acknowledge several colleagues who have allowed us to
 interface, adapt or use parts of their codes:
   Stefan Grimme, W. Hujo, H. Kruse, P. Pracht,  : VdW corrections, initial TS optimization,
                  C. Bannwarth, S. Ehlert          DFT functionals, gCP, sTDA/sTD-DF
   Ed Valeev, F. Pavosevic, A. Kumar             : LibInt (2-el integral package), F12 methods
   Garnet Chan, S. Sharma, J. Yang, R. Olivares  : DMRG
   Ulf Ekstrom                                   : XCFun DFT Library
   Mihaly Kallay                                 : mrcc  (arbitrary order and MRCC methods)
   Jiri Pittner, Ondrej Demel                    : Mk-CCSD
   Frank Weinhold                                : gennbo (NPA and NBO analysis)
   Christopher J. Cramer and Donald G. Truhlar   : smd solvation model
   Lars Goerigk                                  : TD-DFT with DH, B97 family of functionals
   V. Asgeirsson, H. Jonsson                     : NEB implementation
   FAccTs GmbH                                   : IRC, NEB, NEB-TS, DLPNO-Multilevel, CI-OPT
                                                   MM, QMMM, 2- and 3-layer-ONIOM, Crystal-QMMM,
                                                   LR-CPCM, SF, NACMEs, symmetry and pop. for TD-DFT,
                                                   nearIR, NL-DFT gradient (VV10), updates on ESD,
                                                   ML-optimized integration grids
   S Lehtola, MJT Oliveira, MAL Marques          : LibXC Library
   Liviu Ungur et al                             : ANISO software


 Your calculation uses the libint2 library for the computation of 2-el integrals
 For citations please refer to: http://libint.valeyev.net

 Your ORCA version has been built with support for libXC version: 5.1.0
 For citations please refer to: https://tddft.org/programs/libxc/

 This ORCA versions uses:
   CBLAS   interface :  Fast vector & matrix operations
   LAPACKE interface :  Fast linear algebra routines
   SCALAPACK package :  Parallel linear algebra routines
   Shared memory     :  Shared parallel matrices
   BLAS/LAPACK       :  OpenBLAS 0.3.15  USE64BITINT DYNAMIC_ARCH NO_AFFINITY Haswell SINGLE_THREADED
        Core in use  :  Haswell
   Copyright (c) 2011-2014, The OpenBLAS Project


================================================================================

----- Orbital basis set information -----
Your calculation utilizes the basis: def2-TZVPD
   F. Weigend and R. Ahlrichs, Phys. Chem. Chem. Phys. 7, 3297 (2005).
   D. Rappoport and F. Furche, J. Chem. Phys. 133 134105 (2010).

----- AuxJ basis set information -----
Your calculation utilizes the auxiliary basis: def2/J
   F. Weigend, Phys. Chem. Chem. Phys. 8, 1057 (2006).

================================================================================
                                        WARNINGS
                       Please study these warnings very carefully!
================================================================================


INFO   : the flag for use of the SHARK integral package has been found!

================================================================================
                                       INPUT FILE
================================================================================
NAME = TZVPD_LC_PBE_C1_wt_dlpno_neg.com
|  1> !LC-PBE RIJCOSX def2-TZVPD def2/J TightSCF
|  2> *xyz 0 1
|  3> C         -0.91495        0.61511        2.50554
|  4> C         -0.05915        1.50352        3.41058
|  5> H          0.36536        2.34431        2.86116
|  6> H         -0.69226        1.92021        4.19898
|  7> C          1.08303        0.74964        4.08571
|  8> F          2.22817        1.26348        4.01983
|  9> O          0.81003       -0.34541        4.63627
| 10> H         -0.30401        0.20228        1.73015
| 11> H         -1.69811        1.19946        2.06954
| 12> H         -1.34124       -0.17772        3.08397
| 13> *
| 14> 
| 15> %MaxCore 64000
| 16> 
| 17> %pal nprocs 4
| 18> end  
| 19> 
| 20> %scf
| 21>   MaxIter 150
| 22> end
| 23> 
| 24> 
| 25>                          ****END OF INPUT****
================================================================================

                       ****************************
                       * Single Point Calculation *
                       ****************************

---------------------------------
CARTESIAN COORDINATES (ANGSTROEM)
---------------------------------
  C     -0.914950    0.615110    2.505540
  C     -0.059150    1.503520    3.410580
  H      0.365360    2.344310    2.861160
  H     -0.692260    1.920210    4.198980
  C      1.083030    0.749640    4.085710
  F      2.228170    1.263480    4.019830
  O      0.810030   -0.345410    4.636270
  H     -0.304010    0.202280    1.730150
  H     -1.698110    1.199460    2.069540
  H     -1.341240   -0.177720    3.083970

----------------------------
CARTESIAN COORDINATES (A.U.)
----------------------------
  NO LB      ZA    FRAG     MASS         X           Y           Z
   0 C     6.0000    0    12.011   -1.729005    1.162389    4.734784
   1 C     6.0000    0    12.011   -0.111777    2.841241    6.445062
   2 H     1.0000    0     1.008    0.690430    4.430104    5.406809
   3 H     1.0000    0     1.008   -1.308182    3.628671    7.934922
   4 C     6.0000    0    12.011    2.046630    1.416614    7.720873
   5 F     9.0000    0    18.998    4.210631    2.387631    7.596378
   6 O     8.0000    0    15.999    1.530735   -0.652730    8.761281
   7 H     1.0000    0     1.008   -0.574496    0.382254    3.269510
   8 H     1.0000    0     1.008   -3.208963    2.266651    3.910864
   9 H     1.0000    0     1.008   -2.534576   -0.335842    5.827859

--------------------------------
INTERNAL COORDINATES (ANGSTROEM)
--------------------------------
 C      0   0   0     0.000000000000     0.00000000     0.00000000
 C      1   0   0     1.529955348924     0.00000000     0.00000000
 H      2   1   0     1.090412261762   111.55860693     0.00000000
 H      2   1   3     1.093633114074   108.89738504   118.05413034
 C      2   1   3     1.526011377317   113.17317112   237.68600968
 F      5   2   1     1.256868067698   117.17962187   130.97672394
 O      5   2   1     1.255698935295   117.52066640   312.46760082
 H      1   2   3     1.070002777847   109.47097276    61.94491199
 H      1   2   3     1.070000237430   109.47119053   301.94530766
 H      1   2   3     1.069992447590   109.47101914   181.94533963

---------------------------
INTERNAL COORDINATES (A.U.)
---------------------------
 C      0   0   0     0.000000000000     0.00000000     0.00000000
 C      1   0   0     2.891196606594     0.00000000     0.00000000
 H      2   1   0     2.060580547799   111.55860693     0.00000000
 H      2   1   3     2.066667076588   108.89738504   118.05413034
 C      2   1   3     2.883743580377   113.17317112   237.68600968
 F      5   2   1     2.375136434421   117.17962187   130.97672394
 O      5   2   1     2.372927094363   117.52066640   312.46760082
 H      1   2   3     2.022012212666   109.47097276    61.94491199
 H      1   2   3     2.022007411973   109.47119053   301.94530766
 H      1   2   3     2.021992691310   109.47101914   181.94533963

---------------------
BASIS SET INFORMATION
---------------------
There are 4 groups of distinct atoms

 Group   1 Type C   : 12s6p3d1f contracted to 6s3p3d1f pattern {621111/411/111/1}
 Group   2 Type H   : 5s2p contracted to 3s2p pattern {311/11}
 Group   3 Type F   : 12s7p3d1f contracted to 6s4p3d1f pattern {621111/4111/111/1}
 Group   4 Type O   : 12s7p3d1f contracted to 6s4p3d1f pattern {621111/4111/111/1}

Atom   0C    basis set group =>   1
Atom   1C    basis set group =>   1
Atom   2H    basis set group =>   2
Atom   3H    basis set group =>   2
Atom   4C    basis set group =>   1
Atom   5F    basis set group =>   3
Atom   6O    basis set group =>   4
Atom   7H    basis set group =>   2
Atom   8H    basis set group =>   2
Atom   9H    basis set group =>   2
---------------------------------
AUXILIARY/J BASIS SET INFORMATION
---------------------------------
There are 4 groups of distinct atoms

 Group   1 Type C   : 12s5p4d2f1g contracted to 6s4p3d1f1g pattern {711111/2111/211/2/1}
 Group   2 Type H   : 5s2p1d contracted to 3s1p1d pattern {311/2/1}
 Group   3 Type F   : 12s5p4d2f1g contracted to 6s4p3d1f1g pattern {711111/2111/211/2/1}
 Group   4 Type O   : 12s5p4d2f1g contracted to 6s4p3d1f1g pattern {711111/2111/211/2/1}

Atom   0C    basis set group =>   1
Atom   1C    basis set group =>   1
Atom   2H    basis set group =>   2
Atom   3H    basis set group =>   2
Atom   4C    basis set group =>   1
Atom   5F    basis set group =>   3
Atom   6O    basis set group =>   4
Atom   7H    basis set group =>   2
Atom   8H    basis set group =>   2
Atom   9H    basis set group =>   2


           ************************************************************
           *        Program running with 4 parallel MPI-processes     *
           *              working on a common directory               *
           ************************************************************
------------------------------------------------------------------------------
                           ORCA GTO INTEGRAL CALCULATION
                           -- RI-GTO INTEGRALS CHOSEN --
------------------------------------------------------------------------------
------------------------------------------------------------------------------
                   ___                                                        
                  /   \      - P O W E R E D   B Y -                         
                 /     \                                                     
                 |  |  |   _    _      __       _____    __    __             
                 |  |  |  | |  | |    /  \     |  _  \  |  |  /  |          
                  \  \/   | |  | |   /    \    | | | |  |  | /  /          
                 / \  \   | |__| |  /  /\  \   | |_| |  |  |/  /          
                |  |  |   |  __  | /  /__\  \  |    /   |      \           
                |  |  |   | |  | | |   __   |  |    \   |  |\   \          
                \     /   | |  | | |  |  |  |  | |\  \  |  | \   \       
                 \___/    |_|  |_| |__|  |__|  |_| \__\ |__|  \__/        
                                                                              
                      - O R C A' S   B I G   F R I E N D -                    
                                      &                                       
                       - I N T E G R A L  F E E D E R -                       
                                                                              
 v1 FN, 2020, v2 2021                                                         
------------------------------------------------------------------------------


Reading SHARK input file TZVPD_LC_PBE_C1_wt_dlpno_neg.SHARKINP.tmp ... ok
----------------------
SHARK INTEGRAL PACKAGE
----------------------

Number of atoms                             ...     10
Number of basis functions                   ...    236
Number of shells                            ...     92
Maximum angular momentum                    ...      3
Integral batch strategy                     ... SHARK/LIBINT Hybrid
RI-J (if used) integral strategy            ... SPLIT-RIJ (Revised 2003 algorithm where possible)
Printlevel                                  ...      1
Contraction scheme used                     ... SEGMENTED contraction
Coulomb Range Separation                    ... NOT USED
Exchange Range Separation                   ... Long Range
   Mu parameter                             ...  0.470000
   Scaling (regular/separated)              ...  0.000000  1.000000
Finite Nucleus Model                        ... NOT USED
Auxiliary Coulomb fitting basis             ... AVAILABLE
   # of basis functions in Aux-J            ...    300
   # of shells in Aux-J                     ...    100
   Maximum angular momentum in Aux-J        ...      4
Auxiliary J/K fitting basis                 ... NOT available
Auxiliary Correlation fitting basis         ... NOT available
Auxiliary 'external' fitting basis          ... NOT available
Integral threshold                          ...     2.500000e-11
Primitive cut-off                           ...     2.500000e-12
Primitive pair pre-selection threshold      ...     2.500000e-12

Calculating pre-screening integrals         ... done (  0.1 sec) Dimension = 92
Organizing shell pair data                  ... done (  0.0 sec)
Shell pair information
Total number of shell pairs                 ...      4278
Shell pairs after pre-screening             ...      4154
Total number of primitive shell pairs       ...     11003
Primitive shell pairs kept                  ...      8903
          la=0 lb=0:    975 shell pairs
          la=1 lb=0:   1187 shell pairs
          la=1 lb=1:    376 shell pairs
          la=2 lb=0:    656 shell pairs
          la=2 lb=1:    402 shell pairs
          la=2 lb=2:    119 shell pairs
          la=3 lb=0:    215 shell pairs
          la=3 lb=1:    134 shell pairs
          la=3 lb=2:     75 shell pairs
          la=3 lb=3:     15 shell pairs

Calculating one electron integrals          ... done (  0.0 sec)
Calculating RI/J V-Matrix + Cholesky decomp.... done (  0.0 sec)
Calculating Nuclear repulsion               ... done (  0.0 sec) ENN=    176.608293395288 Eh

SHARK setup successfully completed in   0.2 seconds

Maximum memory used throughout the entire GTOINT-calculation: 13.9 MB


           ************************************************************
           *        Program running with 4 parallel MPI-processes     *
           *              working on a common directory               *
           ************************************************************
-------------------------------------------------------------------------------
                                 ORCA SCF
-------------------------------------------------------------------------------

------------
SCF SETTINGS
------------
Hamiltonian:
 Density Functional     Method          .... DFT(GTOs)
 Exchange Functional    Exchange        .... LC-PBE
 Correlation Functional Correlation     .... PBE
   PBE beta parameter  CBetaPBE         ....  0.066725
 LDA part of GGA corr.  LDAOpt          .... PW91-LDA
 Gradients option       PostSCFGGA      .... off
   Density functional embedding theory  .... OFF
 Long-range corrected/Screened/Range-Separated Hybrid DFT is turned on
   Amount of maximum screened exact exchange              ....  1.000000
   Range separation parameter mu (erf(mu*r12)/r12)        ....  0.470000
   NL short-range parameter             ....  6.400000
 RI-approximation to the Coulomb term is turned on
   Number of AuxJ basis functions       .... 300
   RIJ-COSX (HFX calculated with COS-X)).... on


General Settings:
 Integral files         IntName         .... TZVPD_LC_PBE_C1_wt_dlpno_neg
 Hartree-Fock type      HFTyp           .... RHF
 Total Charge           Charge          ....    0
 Multiplicity           Mult            ....    1
 Number of Electrons    NEL             ....   40
 Basis Dimension        Dim             ....  236
 Nuclear Repulsion      ENuc            ....    176.6082933953 Eh

Convergence Acceleration:
 DIIS                   CNVDIIS         .... on
   Start iteration      DIISMaxIt       ....    12
   Startup error        DIISStart       ....  0.200000
   # of expansion vecs  DIISMaxEq       ....     5
   Bias factor          DIISBfac        ....   1.050
   Max. coefficient     DIISMaxC        ....  10.000
 Trust-Rad. Augm. Hess. CNVTRAH         .... auto
   Auto Start mean grad. ratio tolernc. ....  1.125000
   Auto Start start iteration           ....    20
   Auto Start num. interpolation iter.  ....    10
   Max. Number of Micro iterations      ....    16
   Max. Number of Macro iterations      .... Maxiter - #DIIS iter
   Number of Davidson start vectors     ....     2
   Converg. threshold I  (grad. norm)   ....   1.000e-05
   Converg. threshold II (energy diff.) ....   1.000e-08
   Grad. Scal. Fac. for Micro threshold ....   0.100
   Minimum threshold for Micro iter.    ....   0.010
   NR start threshold (gradient norm)   ....   0.001
   Initial trust radius                 ....   0.400
   Minimum AH scaling param. (alpha)    ....   1.000
   Maximum AH scaling param. (alpha)    .... 1000.000
   Orbital update algorithm             .... Taylor
   White noise on init. David. guess    .... on
   Maximum white noise                  ....   0.010
   Quad. conv. algorithm                .... NR
 SOSCF                  CNVSOSCF        .... on
   Start iteration      SOSCFMaxIt      ....   150
   Startup grad/error   SOSCFStart      ....  0.003300
 Level Shifting         CNVShift        .... on
   Level shift para.    LevelShift      ....    0.2500
   Turn off err/grad.   ShiftErr        ....    0.0010
 Zerner damping         CNVZerner       .... off
 Static damping         CNVDamp         .... on
   Fraction old density DampFac         ....    0.7000
   Max. Damping (<1)    DampMax         ....    0.9800
   Min. Damping (>=0)   DampMin         ....    0.0000
   Turn off err/grad.   DampErr         ....    0.1000
 Fernandez-Rico         CNVRico         .... off

SCF Procedure:
 Maximum # iterations   MaxIter         ....   150
 SCF integral mode      SCFMode         .... Direct
   Integral package                     .... SHARK and LIBINT hybrid scheme
 Reset frequency        DirectResetFreq ....    20
 Integral Threshold     Thresh          ....  2.500e-11 Eh
 Primitive CutOff       TCut            ....  2.500e-12 Eh

Convergence Tolerance:
 Convergence Check Mode ConvCheckMode   .... Total+1el-Energy
 Convergence forced     ConvForced      .... 0
 Energy Change          TolE            ....  1.000e-08 Eh
 1-El. energy change                    ....  1.000e-05 Eh
 Orbital Gradient       TolG            ....  1.000e-05
 Orbital Rotation angle TolX            ....  1.000e-05
 DIIS Error             TolErr          ....  5.000e-07


Diagonalization of the overlap matrix:
Smallest eigenvalue                        ... 1.081e-05
Time for diagonalization                   ...    0.013 sec
Threshold for overlap eigenvalues          ... 1.000e-08
Number of eigenvalues below threshold      ... 0
Time for construction of square roots      ...    0.009 sec
Total time needed                          ...    0.023 sec

Time for model grid setup =    0.078 sec

------------------------------
INITIAL GUESS: MODEL POTENTIAL
------------------------------
Loading Hartree-Fock densities                     ... done
Calculating cut-offs                               ... done
Initializing the effective Hamiltonian             ... done
Setting up the integral package (SHARK)            ... done
Starting the Coulomb interaction                   ... done (   0.1 sec)
Reading the grid                                   ... done
Mapping shells                                     ... done
Starting the XC term evaluation                    ... done (   0.1 sec)
  promolecular density results
     # of electrons  =     39.999161751
     EX              =    -25.372089796
     EC              =     -1.330339689
     EX+EC           =    -26.702429486
Transforming the Hamiltonian                       ... done (   0.0 sec)
Diagonalizing the Hamiltonian                      ... done (   0.0 sec)
Back transforming the eigenvectors                 ... done (   0.0 sec)
Now organizing SCF variables                       ... done
                      ------------------
                      INITIAL GUESS DONE (   0.3 sec)
                      ------------------
-------------------
DFT GRID GENERATION
-------------------

General Integration Accuracy     IntAcc      ... 4.388
Radial Grid Type                 RadialGrid  ... OptM3 with GC (2021)
Angular Grid (max. ang.)         AngularGrid ... 4 (Lebedev-302)
Angular grid pruning method      GridPruning ... 4 (adaptive)
Weight generation scheme         WeightScheme... Becke
Basis function cutoff            BFCut       ... 1.0000e-11
Integration weight cutoff        WCut        ... 1.0000e-14
Angular grids for H and He will be reduced by one unit
Partially contracted basis set               ... off
Rotationally invariant grid construction     ... off

Total number of grid points                  ...    49090
Total number of batches                      ...      772
Average number of points per batch           ...       63
Average number of grid points per atom       ...     4909
Time for grid setup =    0.343 sec

--------------------
COSX GRID GENERATION
--------------------

GRIDX 1
-------
General Integration Accuracy     IntAcc      ... 3.816
Radial Grid Type                 RadialGrid  ... OptM3 with GC (2021)
Angular Grid (max. ang.)         AngularGrid ... 1 (Lebedev-50)
Angular grid pruning method      GridPruning ... 4 (adaptive)
Weight generation scheme         WeightScheme... Becke
Basis function cutoff            BFCut       ... 1.0000e-11
Integration weight cutoff        WCut        ... 1.0000e-14
Angular grids for H and He will be reduced by one unit
Partially contracted basis set               ... on
Rotationally invariant grid construction     ... off

Total number of grid points                  ...     6184
Total number of batches                      ...      101
Average number of points per batch           ...       61
Average number of grid points per atom       ...      618
UseSFitting                                  ... on

GRIDX 2
-------
General Integration Accuracy     IntAcc      ... 4.020
Radial Grid Type                 RadialGrid  ... OptM3 with GC (2021)
Angular Grid (max. ang.)         AngularGrid ... 2 (Lebedev-110)
Angular grid pruning method      GridPruning ... 4 (adaptive)
Weight generation scheme         WeightScheme... Becke
Basis function cutoff            BFCut       ... 1.0000e-11
Integration weight cutoff        WCut        ... 1.0000e-14
Angular grids for H and He will be reduced by one unit
Partially contracted basis set               ... on
Rotationally invariant grid construction     ... off

Total number of grid points                  ...    15366
Total number of batches                      ...      247
Average number of points per batch           ...       62
Average number of grid points per atom       ...     1537
UseSFitting                                  ... on

GRIDX 3
-------
General Integration Accuracy     IntAcc      ... 4.338
Radial Grid Type                 RadialGrid  ... OptM3 with GC (2021)
Angular Grid (max. ang.)         AngularGrid ... 3 (Lebedev-194)
Angular grid pruning method      GridPruning ... 4 (adaptive)
Weight generation scheme         WeightScheme... Becke
Basis function cutoff            BFCut       ... 1.0000e-11
Integration weight cutoff        WCut        ... 1.0000e-14
Angular grids for H and He will be reduced by one unit
Partially contracted basis set               ... on
Rotationally invariant grid construction     ... off

Total number of grid points                  ...    34169
Total number of batches                      ...      538
Average number of points per batch           ...       63
Average number of grid points per atom       ...     3417
UseSFitting                                  ... on

Time for X-Grid setup             =    0.380 sec

--------------
SCF ITERATIONS
--------------
ITER       Energy         Delta-E        Max-DP      RMS-DP      [F,P]     Damp
               ***  Starting incremental Fock matrix formation  ***
  0   -291.5812011325   0.000000000000 0.04187872  0.00095626  0.1520236 0.7000
  1   -291.6296827877  -0.048481655195 0.03635268  0.00076482  0.0696896 0.7000
                               ***Turning on DIIS***
  2   -291.6515055313  -0.021822743600 0.07307458  0.00171675  0.0306721 0.0000
  3   -291.6913039559  -0.039798424643 0.01704683  0.00051191  0.0400456 0.0000
  4   -291.6969226932  -0.005618737256 0.01448972  0.00030144  0.0124534 0.0000
  5   -291.6973557397  -0.000433046591 0.00772974  0.00016756  0.0079209 0.0000
                      *** Initiating the SOSCF procedure ***
                           *** Shutting down DIIS ***
                      *** Re-Reading the Fockian *** 
                      *** Removing any level shift *** 
ITER      Energy       Delta-E        Grad      Rot      Max-DP    RMS-DP
  6   -291.69748861  -0.0001328752  0.001055  0.001055  0.002567  0.000075
               *** Restarting incremental Fock matrix formation ***
  7   -291.69750552  -0.0000169015  0.000385  0.000698  0.001765  0.000043
  8   -291.69750973  -0.0000042107  0.000256  0.000923  0.001014  0.000027
  9   -291.69751037  -0.0000006400  0.000184  0.000207  0.000540  0.000012
 10   -291.69751082  -0.0000004563  0.000019  0.000044  0.000189  0.000003
 11   -291.69751084  -0.0000000188  0.000003  0.000012  0.000057  0.000001
                  ***Gradient check signals convergence***
              ***Rediagonalizing the Fockian in SOSCF/NRSCF***

               *****************************************************
               *                     SUCCESS                       *
               *           SCF CONVERGED AFTER  12 CYCLES          *
               *****************************************************


----------------
TOTAL SCF ENERGY
----------------

Total Energy       :         -291.69751084 Eh           -7937.49280 eV

Components:
Nuclear Repulsion  :          176.60829340 Eh            4805.75598 eV
Electronic Energy  :         -468.30580424 Eh          -12743.24879 eV
One Electron Energy:         -749.61241747 Eh          -20397.99089 eV
Two Electron Energy:          281.30661323 Eh            7654.74211 eV
Max COSX asymmetry :            0.00000544 Eh               0.00015 eV

Virial components:
Potential Energy   :         -582.07179657 Eh          -15838.97882 eV
Kinetic Energy     :          290.37428573 Eh            7901.48602 eV
Virial Ratio       :            2.00455696


DFT components:
N(Alpha)           :       20.000010971588 electrons
N(Beta)            :       20.000010971588 electrons
N(Total)           :       40.000021943177 electrons
E(X)               :      -25.775326572619 Eh       
E(C)               :       -1.335184777562 Eh       
E(XC)              :      -27.110511350181 Eh       
DFET-embed. en.    :        0.000000000000 Eh       

---------------
SCF CONVERGENCE
---------------

  Last Energy change         ...   -1.6686e-09  Tolerance :   1.0000e-08
  Last MAX-Density change    ...    3.9621e-05  Tolerance :   1.0000e-07
  Last RMS-Density change    ...    8.0137e-07  Tolerance :   5.0000e-09
  Last Orbital Gradient      ...    1.3076e-06  Tolerance :   1.0000e-05
  Last Orbital Rotation      ...    3.4717e-06  Tolerance :   1.0000e-05

             **** THE GBW FILE WAS UPDATED (TZVPD_LC_PBE_C1_wt_dlpno_neg.gbw) ****
             **** DENSITY TZVPD_LC_PBE_C1_wt_dlpno_neg.scfp WAS UPDATED ****
             **** ENERGY FILE WAS UPDATED (TZVPD_LC_PBE_C1_wt_dlpno_neg.en.tmp) ****
             **** THE GBW FILE WAS UPDATED (TZVPD_LC_PBE_C1_wt_dlpno_neg.gbw) ****
             **** DENSITY TZVPD_LC_PBE_C1_wt_dlpno_neg.scfp WAS UPDATED ****
----------------
ORBITAL ENERGIES
----------------

  NO   OCC          E(Eh)            E(eV) 
   0   2.0000     -24.562549      -668.3809 
   1   2.0000     -18.985320      -516.6168 
   2   2.0000     -10.302958      -280.3577 
   3   2.0000     -10.150156      -276.1998 
   4   2.0000     -10.117310      -275.3060 
   5   2.0000      -1.478584       -40.2343 
   6   2.0000      -1.200736       -32.6737 
   7   2.0000      -0.981082       -26.6966 
   8   2.0000      -0.857299       -23.3283 
   9   2.0000      -0.797333       -21.6965 
  10   2.0000      -0.707293       -19.2464 
  11   2.0000      -0.690746       -18.7961 
  12   2.0000      -0.661084       -17.9890 
  13   2.0000      -0.612409       -16.6645 
  14   2.0000      -0.578285       -15.7359 
  15   2.0000      -0.536513       -14.5993 
  16   2.0000      -0.513856       -13.9827 
  17   2.0000      -0.508863       -13.8469 
  18   2.0000      -0.482408       -13.1270 
  19   2.0000      -0.432392       -11.7660 
  20   0.0000       0.055569         1.5121 
  21   0.0000       0.068333         1.8594 
  22   0.0000       0.083802         2.2804 
  23   0.0000       0.089189         2.4270 
  24   0.0000       0.101139         2.7521 
  25   0.0000       0.124829         3.3968 
  26   0.0000       0.130289         3.5454 
  27   0.0000       0.138720         3.7748 
  28   0.0000       0.148036         4.0283 
  29   0.0000       0.150488         4.0950 
  30   0.0000       0.180175         4.9028 
  31   0.0000       0.187215         5.0944 
  32   0.0000       0.193400         5.2627 
  33   0.0000       0.200438         5.4542 
  34   0.0000       0.214296         5.8313 
  35   0.0000       0.231737         6.3059 
  36   0.0000       0.237093         6.4516 
  37   0.0000       0.259047         7.0490 
  38   0.0000       0.263559         7.1718 
  39   0.0000       0.282714         7.6930 
  40   0.0000       0.285508         7.7691 
  41   0.0000       0.294314         8.0087 
  42   0.0000       0.305313         8.3080 
  43   0.0000       0.323518         8.8034 
  44   0.0000       0.335148         9.1198 
  45   0.0000       0.338802         9.2193 
  46   0.0000       0.344439         9.3727 
  47   0.0000       0.353263         9.6128 
  48   0.0000       0.360999         9.8233 
  49   0.0000       0.369008        10.0412 
  50   0.0000       0.373377        10.1601 
  51   0.0000       0.386789        10.5251 
  52   0.0000       0.387948        10.5566 
  53   0.0000       0.394678        10.7397 
  54   0.0000       0.404508        11.0072 
  55   0.0000       0.422484        11.4964 
  56   0.0000       0.427005        11.6194 
  57   0.0000       0.439536        11.9604 
  58   0.0000       0.444607        12.0984 
  59   0.0000       0.455180        12.3861 
  60   0.0000       0.466362        12.6904 
  61   0.0000       0.473614        12.8877 
  62   0.0000       0.482172        13.1206 
  63   0.0000       0.490049        13.3349 
  64   0.0000       0.508618        13.8402 
  65   0.0000       0.514389        13.9972 
  66   0.0000       0.519071        14.1246 
  67   0.0000       0.526080        14.3154 
  68   0.0000       0.539909        14.6917 
  69   0.0000       0.544661        14.8210 
  70   0.0000       0.560073        15.2404 
  71   0.0000       0.575877        15.6704 
  72   0.0000       0.589339        16.0367 
  73   0.0000       0.632143        17.2015 
  74   0.0000       0.641266        17.4497 
  75   0.0000       0.642916        17.4946 
  76   0.0000       0.669444        18.2165 
  77   0.0000       0.681672        18.5492 
  78   0.0000       0.704366        19.1668 
  79   0.0000       0.713758        19.4223 
  80   0.0000       0.729106        19.8400 
  81   0.0000       0.736132        20.0312 
  82   0.0000       0.739485        20.1224 
  83   0.0000       0.764338        20.7987 
  84   0.0000       0.768527        20.9127 
  85   0.0000       0.772829        21.0297 
  86   0.0000       0.785311        21.3694 
  87   0.0000       0.790087        21.4994 
  88   0.0000       0.795281        21.6407 
  89   0.0000       0.802879        21.8475 
  90   0.0000       0.807596        21.9758 
  91   0.0000       0.824023        22.4228 
  92   0.0000       0.859414        23.3858 
  93   0.0000       0.872751        23.7488 
  94   0.0000       0.893351        24.3093 
  95   0.0000       0.905565        24.6417 
  96   0.0000       0.935606        25.4591 
  97   0.0000       0.936942        25.4955 
  98   0.0000       0.990411        26.9505 
  99   0.0000       1.004284        27.3280 
 100   0.0000       1.033261        28.1165 
 101   0.0000       1.060732        28.8640 
 102   0.0000       1.069663        29.1070 
 103   0.0000       1.082239        29.4492 
 104   0.0000       1.126699        30.6590 
 105   0.0000       1.156837        31.4791 
 106   0.0000       1.172837        31.9145 
 107   0.0000       1.211822        32.9753 
 108   0.0000       1.241109        33.7723 
 109   0.0000       1.281251        34.8646 
 110   0.0000       1.322028        35.9742 
 111   0.0000       1.324007        36.0281 
 112   0.0000       1.336855        36.3777 
 113   0.0000       1.376153        37.4470 
 114   0.0000       1.389336        37.8058 
 115   0.0000       1.409929        38.3661 
 116   0.0000       1.433218        38.9998 
 117   0.0000       1.468788        39.9677 
 118   0.0000       1.500015        40.8175 
 119   0.0000       1.595090        43.4046 
 120   0.0000       1.643474        44.7212 
 121   0.0000       1.772649        48.2362 
 122   0.0000       1.829128        49.7731 
 123   0.0000       1.854638        50.4673 
 124   0.0000       1.889740        51.4224 
 125   0.0000       1.907221        51.8981 
 126   0.0000       1.929082        52.4930 
 127   0.0000       1.934751        52.6473 
 128   0.0000       1.955470        53.2110 
 129   0.0000       1.959990        53.3340 
 130   0.0000       1.990492        54.1640 
 131   0.0000       2.003353        54.5140 
 132   0.0000       2.039464        55.4966 
 133   0.0000       2.077851        56.5412 
 134   0.0000       2.140435        58.2442 
 135   0.0000       2.141955        58.2856 
 136   0.0000       2.153441        58.5981 
 137   0.0000       2.213323        60.2276 
 138   0.0000       2.278086        61.9899 
 139   0.0000       2.292453        62.3808 
 140   0.0000       2.364270        64.3351 
 141   0.0000       2.371186        64.5233 
 142   0.0000       2.434283        66.2402 
 143   0.0000       2.485825        67.6427 
 144   0.0000       2.508159        68.2505 
 145   0.0000       2.545706        69.2722 
 146   0.0000       2.560760        69.6818 
 147   0.0000       2.571783        69.9818 
 148   0.0000       2.635560        71.7172 
 149   0.0000       2.653451        72.2041 
 150   0.0000       2.659309        72.3635 
 151   0.0000       2.676609        72.8342 
 152   0.0000       2.720023        74.0156 
 153   0.0000       2.753660        74.9309 
 154   0.0000       2.795206        76.0614 
 155   0.0000       2.819008        76.7091 
 156   0.0000       2.833449        77.1021 
 157   0.0000       2.862209        77.8847 
 158   0.0000       2.885880        78.5288 
 159   0.0000       2.939133        79.9779 
 160   0.0000       2.949679        80.2648 
 161   0.0000       3.028553        82.4111 
 162   0.0000       3.034160        82.5637 
 163   0.0000       3.092350        84.1471 
 164   0.0000       3.149003        85.6887 
 165   0.0000       3.174543        86.3837 
 166   0.0000       3.225223        87.7628 
 167   0.0000       3.273317        89.0715 
 168   0.0000       3.284285        89.3699 
 169   0.0000       3.323774        90.4445 
 170   0.0000       3.327696        90.5512 
 171   0.0000       3.359761        91.4238 
 172   0.0000       3.369350        91.6847 
 173   0.0000       3.431922        93.3874 
 174   0.0000       3.437256        93.5325 
 175   0.0000       3.476987        94.6136 
 176   0.0000       3.479218        94.6743 
 177   0.0000       3.537000        96.2467 
 178   0.0000       3.550913        96.6252 
 179   0.0000       3.579203        97.3951 
 180   0.0000       3.596331        97.8611 
 181   0.0000       3.614612        98.3586 
 182   0.0000       3.660553        99.6087 
 183   0.0000       3.678827       100.1060 
 184   0.0000       3.723774       101.3290 
 185   0.0000       3.732607       101.5694 
 186   0.0000       3.764699       102.4427 
 187   0.0000       3.857355       104.9640 
 188   0.0000       3.963235       107.8451 
 189   0.0000       3.986575       108.4802 
 190   0.0000       4.061768       110.5263 
 191   0.0000       4.092045       111.3502 
 192   0.0000       4.107140       111.7610 
 193   0.0000       4.185019       113.8802 
 194   0.0000       4.215162       114.7004 
 195   0.0000       4.291953       116.7900 
 196   0.0000       4.347698       118.3069 
 197   0.0000       4.431699       120.5927 
 198   0.0000       4.583871       124.7335 
 199   0.0000       4.652098       126.5900 
 200   0.0000       4.719789       128.4320 
 201   0.0000       4.751016       129.2817 
 202   0.0000       4.817290       131.0851 
 203   0.0000       4.854821       132.1064 
 204   0.0000       5.010326       136.3379 
 205   0.0000       5.069181       137.9394 
 206   0.0000       5.298229       144.1721 
 207   0.0000       5.325684       144.9192 
 208   0.0000       5.545939       150.9127 
 209   0.0000       5.629616       153.1897 
 210   0.0000       5.770197       157.0150 
 211   0.0000       6.104709       166.1176 
 212   0.0000       6.334384       172.3674 
 213   0.0000       6.393361       173.9722 
 214   0.0000       6.615747       180.0236 
 215   0.0000       6.689716       182.0364 
 216   0.0000       6.882610       187.2853 
 217   0.0000       6.928871       188.5442 
 218   0.0000       6.976524       189.8409 
 219   0.0000       7.002659       190.5520 
 220   0.0000       7.173414       195.1985 
 221   0.0000       7.226750       196.6499 
 222   0.0000       7.318640       199.1503 
 223   0.0000       7.492870       203.8914 
 224   0.0000       7.657085       208.3599 
 225   0.0000       7.932137       215.8444 
 226   0.0000       8.582608       233.5446 
 227   0.0000       8.638453       235.0642 
 228   0.0000       8.903809       242.2850 
 229   0.0000       9.106908       247.8116 
 230   0.0000       9.311177       253.3700 
 231   0.0000      22.587431       614.6352 
 232   0.0000      22.625706       615.6768 
 233   0.0000      23.391925       636.5266 
 234   0.0000      44.068609      1199.1678 
 235   0.0000      57.297856      1559.1539 

                    ********************************
                    * MULLIKEN POPULATION ANALYSIS *
                    ********************************

-----------------------
MULLIKEN ATOMIC CHARGES
-----------------------
   0 C :   -1.190071
   1 C :   -0.430107
   2 H :    0.342123
   3 H :    0.318802
   4 C :    0.514179
   5 F :   -0.166807
   6 O :   -0.467503
   7 H :    0.368193
   8 H :    0.355655
   9 H :    0.355535
Sum of atomic charges:    0.0000000

--------------------------------
MULLIKEN REDUCED ORBITAL CHARGES
--------------------------------
  0 C s       :     3.376620  s :     3.376620
      pz      :     1.254014  p :     3.753192
      px      :     1.272533
      py      :     1.226644
      dz2     :    -0.013859  d :     0.057372
      dxz     :     0.030338
      dyz     :     0.019651
      dx2y2   :    -0.006048
      dxy     :     0.027290
      f0      :     0.000035  f :     0.002887
      f+1     :     0.000362
      f-1     :     0.000350
      f+2     :     0.000542
      f-2     :     0.001189
      f+3     :     0.000168
      f-3     :     0.000241
  1 C s       :     3.154022  s :     3.154022
      pz      :     1.146389  p :     3.296984
      px      :     1.060107
      py      :     1.090489
      dz2     :    -0.030915  d :    -0.025580
      dxz     :     0.001278
      dyz     :     0.025277
      dx2y2   :    -0.004522
      dxy     :    -0.016698
      f0      :     0.000172  f :     0.004681
      f+1     :     0.000623
      f-1     :     0.000507
      f+2     :     0.000920
      f-2     :     0.001279
      f+3     :     0.000619
      f-3     :     0.000562
  2 H s       :     0.607754  s :     0.607754
      pz      :     0.015073  p :     0.050122
      px      :     0.007622
      py      :     0.027427
  3 H s       :     0.621071  s :     0.621071
      pz      :     0.021594  p :     0.060127
      px      :     0.027714
      py      :     0.010819
  4 C s       :     3.201366  s :     3.201366
      pz      :     0.681034  p :     1.941338
      px      :     0.606821
      py      :     0.653483
      dz2     :     0.034942  d :     0.313348
      dxz     :     0.072397
      dyz     :     0.029929
      dx2y2   :     0.052014
      dxy     :     0.124066
      f0      :     0.002590  f :     0.029768
      f+1     :     0.001720
      f-1     :     0.003522
      f+2     :     0.003907
      f-2     :     0.004205
      f+3     :     0.009094
      f-3     :     0.004729
  5 F s       :     3.981686  s :     3.981686
      pz      :     1.850652  p :     5.170545
      px      :     1.509507
      py      :     1.810387
      dz2     :     0.000318  d :     0.013738
      dxz     :     0.005168
      dyz     :     0.000912
      dx2y2   :     0.004278
      dxy     :     0.003062
      f0      :     0.000078  f :     0.000838
      f+1     :     0.000119
      f-1     :     0.000035
      f+2     :     0.000062
      f-2     :     0.000083
      f+3     :     0.000209
      f-3     :     0.000252
  6 O s       :     3.965216  s :     3.965216
      pz      :     1.403552  p :     4.473099
      px      :     1.782727
      py      :     1.286820
      dz2     :     0.007798  d :     0.027615
      dxz     :     0.001400
      dyz     :     0.008010
      dx2y2   :     0.008096
      dxy     :     0.002311
      f0      :     0.000068  f :     0.001573
      f+1     :     0.000049
      f-1     :     0.000363
      f+2     :     0.000252
      f-2     :     0.000212
      f+3     :     0.000304
      f-3     :     0.000325
  7 H s       :     0.571919  s :     0.571919
      pz      :     0.029466  p :     0.059888
      px      :     0.010882
      py      :     0.019540
  8 H s       :     0.579738  s :     0.579738
      pz      :     0.023126  p :     0.064606
      px      :     0.032156
      py      :     0.009325
  9 H s       :     0.581944  s :     0.581944
      pz      :     0.007696  p :     0.062521
      px      :     0.026566
      py      :     0.028260


                     *******************************
                     * LOEWDIN POPULATION ANALYSIS *
                     *******************************

----------------------
LOEWDIN ATOMIC CHARGES
----------------------
   0 C :   -0.111104
   1 C :   -0.176309
   2 H :    0.118088
   3 H :    0.132018
   4 C :   -0.501374
   5 F :    0.216331
   6 O :    0.081218
   7 H :    0.083575
   8 H :    0.077387
   9 H :    0.080169

-------------------------------
LOEWDIN REDUCED ORBITAL CHARGES
-------------------------------
  0 C s       :     2.714526  s :     2.714526
      pz      :     0.974184  p :     2.925986
      px      :     0.971294
      py      :     0.980508
      dz2     :     0.067582  d :     0.444997
      dxz     :     0.101785
      dyz     :     0.108535
      dx2y2   :     0.058190
      dxy     :     0.108906
      f0      :     0.003521  f :     0.025595
      f+1     :     0.003653
      f-1     :     0.003381
      f+2     :     0.003518
      f-2     :     0.004773
      f+3     :     0.002950
      f-3     :     0.003799
  1 C s       :     2.669230  s :     2.669230
      pz      :     0.942074  p :     2.796849
      px      :     0.915082
      py      :     0.939693
      dz2     :     0.099723  d :     0.673629
      dxz     :     0.149161
      dyz     :     0.151015
      dx2y2   :     0.129322
      dxy     :     0.144408
      f0      :     0.004315  f :     0.036601
      f+1     :     0.005580
      f-1     :     0.004094
      f+2     :     0.005299
      f-2     :     0.005859
      f+3     :     0.005811
      f-3     :     0.005642
  2 H s       :     0.677693  s :     0.677693
      pz      :     0.064798  p :     0.204219
      px      :     0.061488
      py      :     0.077933
  3 H s       :     0.667995  s :     0.667995
      pz      :     0.077539  p :     0.199986
      px      :     0.065610
      py      :     0.056837
  4 C s       :     2.646502  s :     2.646502
      pz      :     0.690985  p :     2.332792
      px      :     0.801528
      py      :     0.840279
      dz2     :     0.168272  d :     1.343332
      dxz     :     0.232891
      dyz     :     0.205453
      dx2y2   :     0.338197
      dxy     :     0.398519
      f0      :     0.015066  f :     0.178748
      f+1     :     0.014228
      f-1     :     0.016082
      f+2     :     0.024682
      f-2     :     0.023415
      f+3     :     0.052344
      f-3     :     0.032931
  5 F s       :     3.498626  s :     3.498626
      pz      :     1.718143  p :     5.067429
      px      :     1.623323
      py      :     1.725964
      dz2     :     0.022834  d :     0.215470
      dxz     :     0.047411
      dyz     :     0.014736
      dx2y2   :     0.069805
      dxy     :     0.060685
      f0      :     0.000193  f :     0.002144
      f+1     :     0.000300
      f-1     :     0.000096
      f+2     :     0.000121
      f-2     :     0.000221
      f+3     :     0.000632
      f-3     :     0.000582
  6 O s       :     3.364797  s :     3.364797
      pz      :     1.334407  p :     4.339734
      px      :     1.587713
      py      :     1.417614
      dz2     :     0.024268  d :     0.209089
      dxz     :     0.021768
      dyz     :     0.058822
      dx2y2   :     0.050809
      dxy     :     0.053422
      f0      :     0.000464  f :     0.005161
      f+1     :     0.000083
      f-1     :     0.000696
      f+2     :     0.001086
      f-2     :     0.000792
      f+3     :     0.001081
      f-3     :     0.000960
  7 H s       :     0.698163  s :     0.698163
      pz      :     0.080451  p :     0.218261
      px      :     0.074744
      py      :     0.063067
  8 H s       :     0.701954  s :     0.701954
      pz      :     0.065127  p :     0.220659
      px      :     0.083332
      py      :     0.072200
  9 H s       :     0.689282  s :     0.689282
      pz      :     0.077934  p :     0.230549
      px      :     0.068724
      py      :     0.083890


                      *****************************
                      * MAYER POPULATION ANALYSIS *
                      *****************************

  NA   - Mulliken gross atomic population
  ZA   - Total nuclear charge
  QA   - Mulliken gross atomic charge
  VA   - Mayer's total valence
  BVA  - Mayer's bonded valence
  FA   - Mayer's free valence

  ATOM       NA         ZA         QA         VA         BVA        FA
  0 C      7.1901     6.0000    -1.1901     3.4611     3.4611     0.0000
  1 C      6.4301     6.0000    -0.4301     3.2719     3.2719     0.0000
  2 H      0.6579     1.0000     0.3421     0.9894     0.9894     0.0000
  3 H      0.6812     1.0000     0.3188     1.0002     1.0002     0.0000
  4 C      5.4858     6.0000     0.5142     3.7674     3.7674     0.0000
  5 F      9.1668     9.0000    -0.1668     1.1353     1.1353     0.0000
  6 O      8.4675     8.0000    -0.4675     1.8378     1.8378    -0.0000
  7 H      0.6318     1.0000     0.3682     0.9929     0.9929     0.0000
  8 H      0.6443     1.0000     0.3557     1.0005     1.0005     0.0000
  9 H      0.6445     1.0000     0.3555     1.0107     1.0107     0.0000

  Mayer bond orders larger than 0.100000
B(  0-C ,  1-C ) :   0.6230 B(  0-C ,  7-H ) :   0.8988 B(  0-C ,  8-H ) :   0.9184 
B(  0-C ,  9-H ) :   0.9548 B(  1-C ,  2-H ) :   0.9064 B(  1-C ,  3-H ) :   0.9143 
B(  1-C ,  4-C ) :   0.9322 B(  4-C ,  5-F ) :   1.0409 B(  4-C ,  6-O ) :   1.7420 


-------
TIMINGS
-------

Total SCF time: 0 days 0 hours 0 min 27 sec 

Total time                  ....      27.231 sec
Sum of individual times     ....      27.012 sec  ( 99.2%)

Fock matrix formation       ....      25.797 sec  ( 94.7%)
  Split-RI-J                ....       1.251 sec  (  4.8% of F)
  Chain of spheres X        ....      20.654 sec  ( 80.1% of F)
  XC integration            ....       3.834 sec  ( 14.9% of F)
    Basis function eval.    ....       1.044 sec  ( 27.2% of XC)
    Density eval.           ....       0.956 sec  ( 24.9% of XC)
    XC-Functional eval.     ....       0.246 sec  (  6.4% of XC)
    XC-Potential eval.      ....       1.426 sec  ( 37.2% of XC)
Diagonalization             ....       0.094 sec  (  0.3%)
Density matrix formation    ....       0.006 sec  (  0.0%)
Population analysis         ....       0.012 sec  (  0.0%)
Initial guess               ....       0.187 sec  (  0.7%)
Orbital Transformation      ....       0.000 sec  (  0.0%)
Orbital Orthonormalization  ....       0.000 sec  (  0.0%)
DIIS solution               ....       0.054 sec  (  0.2%)
SOSCF solution              ....       0.059 sec  (  0.2%)
Grid generation             ....       0.801 sec  (  2.9%)

Maximum memory used throughout the entire SCF-calculation: 24.2 MB

-------------------------   --------------------
FINAL SINGLE POINT ENERGY      -291.697510843930
-------------------------   --------------------


                            ***************************************
                            *     ORCA property calculations      *
                            ***************************************

                                    ---------------------
                                    Active property flags
                                    ---------------------
   (+) Dipole Moment


------------------------------------------------------------------------------
                       ORCA ELECTRIC PROPERTIES CALCULATION
------------------------------------------------------------------------------

Dipole Moment Calculation                       ... on
Quadrupole Moment Calculation                   ... off
Polarizability Calculation                      ... off
GBWName                                         ... TZVPD_LC_PBE_C1_wt_dlpno_neg.gbw
Electron density file                           ... TZVPD_LC_PBE_C1_wt_dlpno_neg.scfp
The origin for moment calculation is the CENTER OF MASS  = ( 1.314118,  1.452275  7.073288)

-------------
DIPOLE MOMENT
-------------
                                X             Y             Z
Electronic contribution:      7.70938      -0.12901       4.06740
Nuclear contribution   :     -8.12386       1.06915      -4.71960
                        -----------------------------------------
Total Dipole Moment    :     -0.41449       0.94014      -0.65219
                        -----------------------------------------
Magnitude (a.u.)       :      1.21697
Magnitude (Debye)      :      3.09329



--------------------
Rotational spectrum 
--------------------
 
Rotational constants in cm-1:     0.309513     0.127560     0.099675 
Rotational constants in MHz :  9278.979128  3824.146597  2988.174827 

 Dipole components along the rotational axes: 
x,y,z [a.u.] :    -0.682213     0.995825    -0.154696 
x,y,z [Debye]:    -1.734048     2.531187    -0.393206 

 

Timings for individual modules:

Sum of individual times         ...       31.212 sec (=   0.520 min)
GTO integral calculation        ...        1.885 sec (=   0.031 min)   6.0 %
SCF iterations                  ...       29.326 sec (=   0.489 min)  94.0 %
                             ****ORCA TERMINATED NORMALLY****
TOTAL RUN TIME: 0 days 0 hours 0 minutes 31 seconds 702 msec
