
                                        *****************
                                        * O   R   C   A *
                                        *****************

                                            #,                                       
                                            ###                                      
                                            ####                                     
                                            #####                                    
                                            ######                                   
                                           ########,                                 
                                     ,,################,,,,,                         
                               ,,#################################,,                 
                          ,,##########################################,,             
                       ,#########################################, ''#####,          
                    ,#############################################,,   '####,        
                  ,##################################################,,,,####,       
                ,###########''''           ''''###############################       
              ,#####''   ,,,,##########,,,,          '''####'''          '####       
            ,##' ,,,,###########################,,,                        '##       
           ' ,,###''''                  '''############,,,                           
         ,,##''                                '''############,,,,        ,,,,,,###''
      ,#''                                            '''#######################'''  
     '                                                          ''''####''''         
             ,#######,   #######,   ,#######,      ##                                
            ,#'     '#,  ##    ##  ,#'     '#,    #''#        ######   ,####,        
            ##       ##  ##   ,#'  ##            #'  '#       #        #'  '#        
            ##       ##  #######   ##           ,######,      #####,   #    #        
            '#,     ,#'  ##    ##  '#,     ,#' ,#      #,         ##   #,  ,#        
             '#######'   ##     ##  '#######'  #'      '#     #####' # '####'        



                  #######################################################
                  #                        -***-                        #
                  #          Department of theory and spectroscopy      #
                  #    Directorship and core code : Frank Neese         #
                  #        Max Planck Institute fuer Kohlenforschung    #
                  #                Kaiser Wilhelm Platz 1               #
                  #                 D-45470 Muelheim/Ruhr               #
                  #                      Germany                        #
                  #                                                     #
                  #                  All rights reserved                #
                  #                        -***-                        #
                  #######################################################


                         Program Version 5.0.0 -  RELEASE  -
                                (SVN: $Rev: 19529$)
                ($Date: 2021-06-28 11:36:33 +0200 (Mo, 28 Jun 2021) $)


 With contributions from (in alphabetic order):
   Daniel Aravena         : Magnetic Suceptibility
   Michael Atanasov       : Ab Initio Ligand Field Theory (pilot matlab implementation)
   Alexander A. Auer      : GIAO ZORA, VPT2 properties, NMR spectrum
   Ute Becker             : Parallelization
   Giovanni Bistoni       : ED, misc. LED, open-shell LED, HFLD
   Martin Brehm           : Molecular dynamics
   Dmytro Bykov           : SCF Hessian
   Vijay G. Chilkuri      : MRCI spin determinant printing, contributions to CSF-ICE
   Dipayan Datta          : RHF DLPNO-CCSD density
   Achintya Kumar Dutta   : EOM-CC, STEOM-CC
   Dmitry Ganyushin       : Spin-Orbit,Spin-Spin,Magnetic field MRCI
   Miquel Garcia          : C-PCM Hessian, Gaussian charge scheme
   Yang Guo               : DLPNO-NEVPT2, F12-NEVPT2, CIM, IAO-localization
   Andreas Hansen         : Spin unrestricted coupled pair/coupled cluster methods
   Benjamin Helmich-Paris : MC-RPA, TRAH-SCF, COSX integrals
   Lee Huntington         : MR-EOM, pCC
   Robert Izsak           : Overlap fitted RIJCOSX, COSX-SCS-MP3, EOM
   Marcus Kettner         : VPT2
   Christian Kollmar      : KDIIS, OOCD, Brueckner-CCSD(T), CCSD density, CASPT2, CASPT2-K
   Simone Kossmann        : Meta GGA functionals, TD-DFT gradient, OOMP2, MP2 Hessian
   Martin Krupicka        : Initial AUTO-CI
   Lucas Lang             : DCDCAS
   Marvin Lechner         : AUTO-CI (C++ implementation), FIC-MRCC
   Dagmar Lenk            : GEPOL surface, SMD
   Dimitrios Liakos       : Extrapolation schemes; Compound Job, initial MDCI parallelization
   Dimitrios Manganas     : Further ROCIS development; embedding schemes
   Dimitrios Pantazis     : SARC Basis sets
   Anastasios Papadopoulos: AUTO-CI, single reference methods and gradients
   Taras Petrenko         : DFT Hessian,TD-DFT gradient, ASA, ECA, R-Raman, ABS, FL, XAS/XES, NRVS
   Peter Pinski           : DLPNO-MP2, DLPNO-MP2 Gradient
   Christoph Reimann      : Effective Core Potentials
   Marius Retegan         : Local ZFS, SOC
   Christoph Riplinger    : Optimizer, TS searches, QM/MM, DLPNO-CCSD(T), (RO)-DLPNO pert. Triples
   Tobias Risthaus        : Range-separated hybrids, TD-DFT gradient, RPA, STAB
   Michael Roemelt        : Original ROCIS implementation
   Masaaki Saitow         : Open-shell DLPNO-CCSD energy and density
   Barbara Sandhoefer     : DKH picture change effects
   Avijit Sen             : IP-ROCIS
   Kantharuban Sivalingam : CASSCF convergence, NEVPT2, FIC-MRCI
   Bernardo de Souza      : ESD, SOC TD-DFT
   Georgi Stoychev        : AutoAux, RI-MP2 NMR
   Willem Van den Heuvel  : Paramagnetic NMR
   Boris Wezisla          : Elementary symmetry handling
   Frank Wennmohs         : Technical directorship


 We gratefully acknowledge several colleagues who have allowed us to
 interface, adapt or use parts of their codes:
   Stefan Grimme, W. Hujo, H. Kruse, P. Pracht,  : VdW corrections, initial TS optimization,
                  C. Bannwarth, S. Ehlert          DFT functionals, gCP, sTDA/sTD-DF
   Ed Valeev, F. Pavosevic, A. Kumar             : LibInt (2-el integral package), F12 methods
   Garnet Chan, S. Sharma, J. Yang, R. Olivares  : DMRG
   Ulf Ekstrom                                   : XCFun DFT Library
   Mihaly Kallay                                 : mrcc  (arbitrary order and MRCC methods)
   Jiri Pittner, Ondrej Demel                    : Mk-CCSD
   Frank Weinhold                                : gennbo (NPA and NBO analysis)
   Christopher J. Cramer and Donald G. Truhlar   : smd solvation model
   Lars Goerigk                                  : TD-DFT with DH, B97 family of functionals
   V. Asgeirsson, H. Jonsson                     : NEB implementation
   FAccTs GmbH                                   : IRC, NEB, NEB-TS, DLPNO-Multilevel, CI-OPT
                                                   MM, QMMM, 2- and 3-layer-ONIOM, Crystal-QMMM,
                                                   LR-CPCM, SF, NACMEs, symmetry and pop. for TD-DFT,
                                                   nearIR, NL-DFT gradient (VV10), updates on ESD,
                                                   ML-optimized integration grids
   S Lehtola, MJT Oliveira, MAL Marques          : LibXC Library
   Liviu Ungur et al                             : ANISO software


 Your calculation uses the libint2 library for the computation of 2-el integrals
 For citations please refer to: http://libint.valeyev.net

 Your ORCA version has been built with support for libXC version: 5.1.0
 For citations please refer to: https://tddft.org/programs/libxc/

 This ORCA versions uses:
   CBLAS   interface :  Fast vector & matrix operations
   LAPACKE interface :  Fast linear algebra routines
   SCALAPACK package :  Parallel linear algebra routines
   Shared memory     :  Shared parallel matrices
   BLAS/LAPACK       :  OpenBLAS 0.3.15  USE64BITINT DYNAMIC_ARCH NO_AFFINITY Haswell SINGLE_THREADED
        Core in use  :  Haswell
   Copyright (c) 2011-2014, The OpenBLAS Project


Your calculation utilizes the atom-pairwise dispersion correction
with the zero-damping scheme (D30)
Cite in your paper:
S.Grimme, J.Antony, S.Ehrlich and H.Krieg, J.Chem.Phys., 132, (2010), 154104 
   

XCFun DFT library Copyright 2009-2010 Ulf Ekstrom and contributors.
See http://admol.org/xcfun for more information.
This is free software; see the source code for copying conditions.
There is ABSOLUTELY NO WARRANTY; not even for MERCHANTABILITY or FITNESS FOR A PARTICULAR PURPOSE.
For details see the documentation.
Scientific users of this library should cite U. Ekstrom, L. Visscher, R. Bast, A. J. Thorvaldsen and K. Ruud;
J.Chem.Theor.Comp. 2010, DOI: 10.1021/ct100117s
XCFun Version 0.99 

================================================================================

----- Orbital basis set information -----
Your calculation utilizes the basis: def2-TZVP
   F. Weigend and R. Ahlrichs, Phys. Chem. Chem. Phys. 7, 3297 (2005).

----- AuxJ basis set information -----
Your calculation utilizes the auxiliary basis: def2/J
   F. Weigend, Phys. Chem. Chem. Phys. 8, 1057 (2006).

================================================================================
                                        WARNINGS
                       Please study these warnings very carefully!
================================================================================


INFO   : the flag for use of the SHARK integral package has been found!

================================================================================
                                       INPUT FILE
================================================================================
NAME = C1_neg.com
|  1> !wB97X-D3 RIJCOSX def2-TZVP def2/J TightSCF 
|  2> *xyz 0 1
|  3> C         -7.33044       -2.67899       -3.20681
|  4> S         -6.01966       -2.92697       -4.41913
|  5> F         -5.64583       -1.58838       -4.91931
|  6> O         -4.88196       -3.50370       -3.66724
|  7> O         -6.54927       -3.80515       -5.42507
|  8> C         -6.28692       -0.73588       -1.89353
|  9> C         -7.46900       -1.24615       -2.71383
| 10> H         -7.60191       -0.60135       -3.58533
| 11> H         -8.38979       -1.17344       -2.12692
| 12> H         -7.11825       -3.37982       -2.39805
| 13> H         -8.24184       -3.00474       -3.70651
| 14> H         -5.39124       -0.81034       -2.47415
| 15> H         -6.18709       -1.32597       -1.00655
| 16> H         -6.45393        0.28631       -1.62495
| 17> *
| 18> %MaxCore 64000
| 19> 
| 20> %pal nprocs 8
| 21> end  
| 22> 
| 23> %scf
| 24>   MaxIter 150
| 25> end
| 26> 
| 27> 
| 28>                          ****END OF INPUT****
================================================================================

                       ****************************
                       * Single Point Calculation *
                       ****************************

---------------------------------
CARTESIAN COORDINATES (ANGSTROEM)
---------------------------------
  C     -7.330440   -2.678990   -3.206810
  S     -6.019660   -2.926970   -4.419130
  F     -5.645830   -1.588380   -4.919310
  O     -4.881960   -3.503700   -3.667240
  O     -6.549270   -3.805150   -5.425070
  C     -6.286920   -0.735880   -1.893530
  C     -7.469000   -1.246150   -2.713830
  H     -7.601910   -0.601350   -3.585330
  H     -8.389790   -1.173440   -2.126920
  H     -7.118250   -3.379820   -2.398050
  H     -8.241840   -3.004740   -3.706510
  H     -5.391240   -0.810340   -2.474150
  H     -6.187090   -1.325970   -1.006550
  H     -6.453930    0.286310   -1.624950

----------------------------
CARTESIAN COORDINATES (A.U.)
----------------------------
  NO LB      ZA    FRAG     MASS         X           Y           Z
   0 C     6.0000    0    12.011  -13.852524   -5.062557   -6.059993
   1 S    16.0000    0    32.060  -11.375509   -5.531172   -8.350945
   2 F     9.0000    0    18.998  -10.669072   -3.001603   -9.296149
   3 O     8.0000    0    15.999   -9.225567   -6.621033   -6.930079
   4 O     8.0000    0    15.999  -12.376327   -7.190691  -10.251897
   5 C     6.0000    0    12.011  -11.880557   -1.390612   -3.578253
   6 C     6.0000    0    12.011  -14.114364   -2.354882   -5.128395
   7 H     1.0000    0     1.008  -14.365528   -1.136387   -6.775292
   8 H     1.0000    0     1.008  -15.854405   -2.217480   -4.019296
   9 H     1.0000    0     1.008  -13.451543   -6.386934   -4.531658
  10 H     1.0000    0     1.008  -15.574820   -5.678136   -7.004289
  11 H     1.0000    0     1.008  -10.187967   -1.531321   -4.675466
  12 H     1.0000    0     1.008  -11.691906   -2.505720   -1.902104
  13 H     1.0000    0     1.008  -12.196160    0.541047   -3.070710

--------------------------------
INTERNAL COORDINATES (ANGSTROEM)
--------------------------------
 C      0   0   0     0.000000000000     0.00000000     0.00000000
 S      1   0   0     1.802597589924     0.00000000     0.00000000
 F      2   1   0     1.477075519193   106.68484156     0.00000000
 O      2   1   3     1.480647613377   105.71170368   116.27732212
 O      2   1   3     1.436524329101   106.67637160   237.53370600
 C      1   2   3     2.566966073188    98.77802040   314.15443074
 C      1   2   3     1.521597390771   114.43469957   344.25628115
 H      7   1   2     1.092219922040   107.96802915    55.17729886
 H      7   1   2     1.094351093708   108.23670202   170.25015994
 H      1   2   3     1.090999552062   105.59041318   220.00070323
 H      1   2   3     1.089248875372   104.99648834   105.87797466
 H      6   1   2     1.070003055323    90.57281660   355.17530970
 H      6   1   2     1.070002690370    92.55450352   245.65532750
 H      6   1   2     1.069999977850   142.00940247   118.84310249

---------------------------
INTERNAL COORDINATES (A.U.)
---------------------------
 C      0   0   0     0.000000000000     0.00000000     0.00000000
 S      1   0   0     3.406415774623     0.00000000     0.00000000
 F      2   1   0     2.791268210395   106.68484156     0.00000000
 O      2   1   3     2.798018490127   105.71170368   116.27732212
 O      2   1   3     2.714637566716   106.67637160   237.53370600
 C      1   2   3     4.850862873393    98.77802040   314.15443074
 C      1   2   3     2.875402354646   114.43469957   344.25628115
 H      7   1   2     2.063996530667   107.96802915    55.17729886
 H      7   1   2     2.068023861465   108.23670202   170.25015994
 H      1   2   3     2.061690365628   105.59041318   220.00070323
 H      1   2   3     2.058382066136   104.99648834   105.87797466
 H      6   1   2     2.022012737019    90.57281660   355.17530970
 H      6   1   2     2.022012047359    92.55450352   245.65532750
 H      6   1   2     2.022006921439   142.00940247   118.84310249

---------------------
BASIS SET INFORMATION
---------------------
There are 5 groups of distinct atoms

 Group   1 Type C   : 11s6p2d1f contracted to 5s3p2d1f pattern {62111/411/11/1}
 Group   2 Type S   : 14s9p3d1f contracted to 5s5p2d1f pattern {73211/51111/21/1}
 Group   3 Type F   : 11s6p2d1f contracted to 5s3p2d1f pattern {62111/411/11/1}
 Group   4 Type O   : 11s6p2d1f contracted to 5s3p2d1f pattern {62111/411/11/1}
 Group   5 Type H   : 5s1p contracted to 3s1p pattern {311/1}

Atom   0C    basis set group =>   1
Atom   1S    basis set group =>   2
Atom   2F    basis set group =>   3
Atom   3O    basis set group =>   4
Atom   4O    basis set group =>   4
Atom   5C    basis set group =>   1
Atom   6C    basis set group =>   1
Atom   7H    basis set group =>   5
Atom   8H    basis set group =>   5
Atom   9H    basis set group =>   5
Atom  10H    basis set group =>   5
Atom  11H    basis set group =>   5
Atom  12H    basis set group =>   5
Atom  13H    basis set group =>   5
---------------------------------
AUXILIARY/J BASIS SET INFORMATION
---------------------------------
There are 5 groups of distinct atoms

 Group   1 Type C   : 12s5p4d2f1g contracted to 6s4p3d1f1g pattern {711111/2111/211/2/1}
 Group   2 Type S   : 14s5p5d2f1g contracted to 8s4p3d1f1g pattern {71111111/2111/311/2/1}
 Group   3 Type F   : 12s5p4d2f1g contracted to 6s4p3d1f1g pattern {711111/2111/211/2/1}
 Group   4 Type O   : 12s5p4d2f1g contracted to 6s4p3d1f1g pattern {711111/2111/211/2/1}
 Group   5 Type H   : 5s2p1d contracted to 3s1p1d pattern {311/2/1}

Atom   0C    basis set group =>   1
Atom   1S    basis set group =>   2
Atom   2F    basis set group =>   3
Atom   3O    basis set group =>   4
Atom   4O    basis set group =>   4
Atom   5C    basis set group =>   1
Atom   6C    basis set group =>   1
Atom   7H    basis set group =>   5
Atom   8H    basis set group =>   5
Atom   9H    basis set group =>   5
Atom  10H    basis set group =>   5
Atom  11H    basis set group =>   5
Atom  12H    basis set group =>   5
Atom  13H    basis set group =>   5


           ************************************************************
           *        Program running with 8 parallel MPI-processes     *
           *              working on a common directory               *
           ************************************************************
------------------------------------------------------------------------------
                           ORCA GTO INTEGRAL CALCULATION
                           -- RI-GTO INTEGRALS CHOSEN --
------------------------------------------------------------------------------
------------------------------------------------------------------------------
                   ___                                                        
                  /   \      - P O W E R E D   B Y -                         
                 /     \                                                     
                 |  |  |   _    _      __       _____    __    __             
                 |  |  |  | |  | |    /  \     |  _  \  |  |  /  |          
                  \  \/   | |  | |   /    \    | | | |  |  | /  /          
                 / \  \   | |__| |  /  /\  \   | |_| |  |  |/  /          
                |  |  |   |  __  | /  /__\  \  |    /   |      \           
                |  |  |   | |  | | |   __   |  |    \   |  |\   \          
                \     /   | |  | | |  |  |  |  | |\  \  |  | \   \       
                 \___/    |_|  |_| |__|  |__|  |_| \__\ |__|  \__/        
                                                                              
                      - O R C A' S   B I G   F R I E N D -                    
                                      &                                       
                       - I N T E G R A L  F E E D E R -                       
                                                                              
 v1 FN, 2020, v2 2021                                                         
------------------------------------------------------------------------------


Reading SHARK input file C1_neg.SHARKINP.tmp ... ok
----------------------
SHARK INTEGRAL PACKAGE
----------------------

Number of atoms                             ...     14
Number of basis functions                   ...    265
Number of shells                            ...    107
Maximum angular momentum                    ...      3
Integral batch strategy                     ... SHARK/LIBINT Hybrid
RI-J (if used) integral strategy            ... SPLIT-RIJ (Revised 2003 algorithm where possible)
Printlevel                                  ...      1
Contraction scheme used                     ... SEGMENTED contraction
Coulomb Range Separation                    ... NOT USED
Exchange Range Separation                   ... Long Range
   Mu parameter                             ...  0.250000
   Scaling (regular/separated)              ...  0.195728  0.804272
Finite Nucleus Model                        ... NOT USED
Auxiliary Coulomb fitting basis             ... AVAILABLE
   # of basis functions in Aux-J            ...    422
   # of shells in Aux-J                     ...    142
   Maximum angular momentum in Aux-J        ...      4
Auxiliary J/K fitting basis                 ... NOT available
Auxiliary Correlation fitting basis         ... NOT available
Auxiliary 'external' fitting basis          ... NOT available
Integral threshold                          ...     2.500000e-11
Primitive cut-off                           ...     2.500000e-12
Primitive pair pre-selection threshold      ...     2.500000e-12

Calculating pre-screening integrals         ... done (  0.1 sec) Dimension = 107
Organizing shell pair data                  ... done (  0.1 sec)
Shell pair information
Total number of shell pairs                 ...      5778
Shell pairs after pre-screening             ...      5305
Total number of primitive shell pairs       ...     18144
Primitive shell pairs kept                  ...     12401
          la=0 lb=0:   1410 shell pairs
          la=1 lb=0:   1554 shell pairs
          la=1 lb=1:    447 shell pairs
          la=2 lb=0:    712 shell pairs
          la=2 lb=1:    402 shell pairs
          la=2 lb=2:    101 shell pairs
          la=3 lb=0:    354 shell pairs
          la=3 lb=1:    202 shell pairs
          la=3 lb=2:     96 shell pairs
          la=3 lb=3:     27 shell pairs

Calculating one electron integrals          ... done (  0.0 sec)
Calculating RI/J V-Matrix + Cholesky decomp.... done (  0.0 sec)
Calculating Nuclear repulsion               ... done (  0.0 sec) ENN=    448.174123387646 Eh

SHARK setup successfully completed in   0.3 seconds

Maximum memory used throughout the entire GTOINT-calculation: 15.3 MB


           ************************************************************
           *        Program running with 8 parallel MPI-processes     *
           *              working on a common directory               *
           ************************************************************
-------------------------------------------------------------------------------
                                 ORCA SCF
-------------------------------------------------------------------------------

------------
SCF SETTINGS
------------
Hamiltonian:
 Density Functional     Method          .... DFT(GTOs)
 Exchange Functional    Exchange        .... WB97X-D3
 Correlation Functional Correlation     .... WB97X-D3
 Gradients option       PostSCFGGA      .... off
 Hybrid DFT is turned on
   Fraction HF Exchange ScalHFX         ....  0.195728
   Scaling of DF-GGA-X  ScalDFX         ....  0.000000
   Scaling of DF-GGA-C  ScalDFC         ....  1.000000
   Scaling of DF-LDA-C  ScalLDAC        ....  1.000000
   Perturbative correction              ....  0.000000
   Density functional embedding theory  .... OFF
 Long-range corrected/Screened/Range-Separated Hybrid DFT is turned on
   Amount of maximum screened exact exchange              ....  0.804272
   Range separation parameter mu (erf(mu*r12)/r12)        ....  0.250000
 RI-approximation to the Coulomb term is turned on
   Number of AuxJ basis functions       .... 422
   RIJ-COSX (HFX calculated with COS-X)).... on


General Settings:
 Integral files         IntName         .... C1_neg
 Hartree-Fock type      HFTyp           .... RHF
 Total Charge           Charge          ....    0
 Multiplicity           Mult            ....    1
 Number of Electrons    NEL             ....   66
 Basis Dimension        Dim             ....  265
 Nuclear Repulsion      ENuc            ....    448.1741233876 Eh

Convergence Acceleration:
 DIIS                   CNVDIIS         .... on
   Start iteration      DIISMaxIt       ....    12
   Startup error        DIISStart       ....  0.200000
   # of expansion vecs  DIISMaxEq       ....     5
   Bias factor          DIISBfac        ....   1.050
   Max. coefficient     DIISMaxC        ....  10.000
 Trust-Rad. Augm. Hess. CNVTRAH         .... auto
   Auto Start mean grad. ratio tolernc. ....  1.125000
   Auto Start start iteration           ....    20
   Auto Start num. interpolation iter.  ....    10
   Max. Number of Micro iterations      ....    16
   Max. Number of Macro iterations      .... Maxiter - #DIIS iter
   Number of Davidson start vectors     ....     2
   Converg. threshold I  (grad. norm)   ....   1.000e-05
   Converg. threshold II (energy diff.) ....   1.000e-08
   Grad. Scal. Fac. for Micro threshold ....   0.100
   Minimum threshold for Micro iter.    ....   0.010
   NR start threshold (gradient norm)   ....   0.001
   Initial trust radius                 ....   0.400
   Minimum AH scaling param. (alpha)    ....   1.000
   Maximum AH scaling param. (alpha)    .... 1000.000
   Orbital update algorithm             .... Taylor
   White noise on init. David. guess    .... on
   Maximum white noise                  ....   0.010
   Quad. conv. algorithm                .... NR
 SOSCF                  CNVSOSCF        .... on
   Start iteration      SOSCFMaxIt      ....   150
   Startup grad/error   SOSCFStart      ....  0.003300
 Level Shifting         CNVShift        .... on
   Level shift para.    LevelShift      ....    0.2500
   Turn off err/grad.   ShiftErr        ....    0.0010
 Zerner damping         CNVZerner       .... off
 Static damping         CNVDamp         .... on
   Fraction old density DampFac         ....    0.7000
   Max. Damping (<1)    DampMax         ....    0.9800
   Min. Damping (>=0)   DampMin         ....    0.0000
   Turn off err/grad.   DampErr         ....    0.1000
 Fernandez-Rico         CNVRico         .... off

SCF Procedure:
 Maximum # iterations   MaxIter         ....   150
 SCF integral mode      SCFMode         .... Direct
   Integral package                     .... SHARK and LIBINT hybrid scheme
 Reset frequency        DirectResetFreq ....    20
 Integral Threshold     Thresh          ....  2.500e-11 Eh
 Primitive CutOff       TCut            ....  2.500e-12 Eh

Convergence Tolerance:
 Convergence Check Mode ConvCheckMode   .... Total+1el-Energy
 Convergence forced     ConvForced      .... 0
 Energy Change          TolE            ....  1.000e-08 Eh
 1-El. energy change                    ....  1.000e-05 Eh
 Orbital Gradient       TolG            ....  1.000e-05
 Orbital Rotation angle TolX            ....  1.000e-05
 DIIS Error             TolErr          ....  5.000e-07


Diagonalization of the overlap matrix:
Smallest eigenvalue                        ... 2.642e-04
Time for diagonalization                   ...    0.021 sec
Threshold for overlap eigenvalues          ... 1.000e-08
Number of eigenvalues below threshold      ... 0
Time for construction of square roots      ...    0.017 sec
Total time needed                          ...    0.039 sec

Time for model grid setup =    0.074 sec

------------------------------
INITIAL GUESS: MODEL POTENTIAL
------------------------------
Loading Hartree-Fock densities                     ... done
Calculating cut-offs                               ... done
Initializing the effective Hamiltonian             ... done
Setting up the integral package (SHARK)            ... done
Starting the Coulomb interaction                   ... done (   0.0 sec)
Reading the grid                                   ... done
Mapping shells                                     ... done
Starting the XC term evaluation                    ... done (   0.1 sec)
  promolecular density results
     # of electrons  =     65.995781680
     EX              =    -68.755948615
     EC              =     -2.326807613
     EX+EC           =    -71.082756228
Transforming the Hamiltonian                       ... done (   0.0 sec)
Diagonalizing the Hamiltonian                      ... done (   0.0 sec)
Back transforming the eigenvectors                 ... done (   0.0 sec)
Now organizing SCF variables                       ... done
                      ------------------
                      INITIAL GUESS DONE (   0.2 sec)
                      ------------------
-------------------
DFT GRID GENERATION
-------------------

General Integration Accuracy     IntAcc      ... 4.388
Radial Grid Type                 RadialGrid  ... OptM3 with GC (2021)
Angular Grid (max. ang.)         AngularGrid ... 4 (Lebedev-302)
Angular grid pruning method      GridPruning ... 4 (adaptive)
Weight generation scheme         WeightScheme... Becke
Basis function cutoff            BFCut       ... 1.0000e-11
Integration weight cutoff        WCut        ... 1.0000e-14
Angular grids for H and He will be reduced by one unit
Partially contracted basis set               ... off
Rotationally invariant grid construction     ... off

Total number of grid points                  ...    66181
Total number of batches                      ...     1040
Average number of points per batch           ...       63
Average number of grid points per atom       ...     4727
Time for grid setup =    0.406 sec

--------------------
COSX GRID GENERATION
--------------------

GRIDX 1
-------
General Integration Accuracy     IntAcc      ... 3.816
Radial Grid Type                 RadialGrid  ... OptM3 with GC (2021)
Angular Grid (max. ang.)         AngularGrid ... 1 (Lebedev-50)
Angular grid pruning method      GridPruning ... 4 (adaptive)
Weight generation scheme         WeightScheme... Becke
Basis function cutoff            BFCut       ... 1.0000e-11
Integration weight cutoff        WCut        ... 1.0000e-14
Angular grids for H and He will be reduced by one unit
Partially contracted basis set               ... on
Rotationally invariant grid construction     ... off

Total number of grid points                  ...     8374
Total number of batches                      ...      139
Average number of points per batch           ...       60
Average number of grid points per atom       ...      598
UseSFitting                                  ... on

GRIDX 2
-------
General Integration Accuracy     IntAcc      ... 4.020
Radial Grid Type                 RadialGrid  ... OptM3 with GC (2021)
Angular Grid (max. ang.)         AngularGrid ... 2 (Lebedev-110)
Angular grid pruning method      GridPruning ... 4 (adaptive)
Weight generation scheme         WeightScheme... Becke
Basis function cutoff            BFCut       ... 1.0000e-11
Integration weight cutoff        WCut        ... 1.0000e-14
Angular grids for H and He will be reduced by one unit
Partially contracted basis set               ... on
Rotationally invariant grid construction     ... off

Total number of grid points                  ...    18216
Total number of batches                      ...      291
Average number of points per batch           ...       62
Average number of grid points per atom       ...     1301
UseSFitting                                  ... on

GRIDX 3
-------
General Integration Accuracy     IntAcc      ... 4.338
Radial Grid Type                 RadialGrid  ... OptM3 with GC (2021)
Angular Grid (max. ang.)         AngularGrid ... 3 (Lebedev-194)
Angular grid pruning method      GridPruning ... 4 (adaptive)
Weight generation scheme         WeightScheme... Becke
Basis function cutoff            BFCut       ... 1.0000e-11
Integration weight cutoff        WCut        ... 1.0000e-14
Angular grids for H and He will be reduced by one unit
Partially contracted basis set               ... on
Rotationally invariant grid construction     ... off

Total number of grid points                  ...    40556
Total number of batches                      ...      640
Average number of points per batch           ...       63
Average number of grid points per atom       ...     2897
UseSFitting                                  ... on

Time for X-Grid setup             =    0.331 sec

--------------
SCF ITERATIONS
--------------
ITER       Energy         Delta-E        Max-DP      RMS-DP      [F,P]     Damp
               ***  Starting incremental Fock matrix formation  ***
  0   -766.7059337058   0.000000000000 0.12321765  0.00118815  0.2971700 0.7000
  1   -766.8662205634  -0.160286857673 0.05921097  0.00075679  0.1288377 0.7000
                               ***Turning on DIIS***
  2   -766.9308426879  -0.064622124422 0.03933327  0.00121170  0.0547081 0.0000
  3   -767.0410516318  -0.110208943912 0.05804058  0.00052733  0.0655532 0.0000
  4   -767.0589051902  -0.017853558418 0.00556918  0.00012543  0.0107161 0.0000
                      *** Initiating the SOSCF procedure ***
                           *** Shutting down DIIS ***
                      *** Re-Reading the Fockian *** 
                      *** Removing any level shift *** 
ITER      Energy       Delta-E        Grad      Rot      Max-DP    RMS-DP
  5   -767.05957233  -0.0006671398  0.000496  0.000496  0.001300  0.000040
               *** Restarting incremental Fock matrix formation ***
  6   -767.05962213  -0.0000497961  0.000254  0.000439  0.000731  0.000023
  7   -767.05962723  -0.0000050994  0.000119  0.000356  0.000569  0.000015
  8   -767.05962807  -0.0000008466  0.000080  0.000074  0.000214  0.000005
  9   -767.05962839  -0.0000003130  0.000020  0.000024  0.000139  0.000002
 10   -767.05962840  -0.0000000175  0.000014  0.000017  0.000050  0.000001
 11   -767.05962841  -0.0000000118  0.000004  0.000005  0.000013  0.000000
                  ***Gradient check signals convergence***
              ***Rediagonalizing the Fockian in SOSCF/NRSCF***

               *****************************************************
               *                     SUCCESS                       *
               *           SCF CONVERGED AFTER  12 CYCLES          *
               *****************************************************

Old exchange energy                            =    -20.806198081 Eh
New exchange energy                            =    -20.806207063 Eh
Exchange energy change after final integration =     -0.000008981 Eh
Total energy after final integration           =   -767.059637393 Eh
Final COS-X integration done in                =     4.417 sec

----------------
TOTAL SCF ENERGY
----------------

Total Energy       :         -767.05963739 Eh          -20872.75388 eV

Components:
Nuclear Repulsion  :          448.17412339 Eh           12195.43790 eV
Electronic Energy  :        -1215.23376078 Eh          -33068.19179 eV
One Electron Energy:        -1944.45104920 Eh          -52911.20300 eV
Two Electron Energy:          729.21728842 Eh           19843.01122 eV
Max COSX asymmetry :            0.00000254 Eh               0.00007 eV

Virial components:
Potential Energy   :        -1531.98250677 Eh          -41687.36335 eV
Kinetic Energy     :          764.92286938 Eh           20814.60947 eV
Virial Ratio       :            2.00279344


DFT components:
N(Alpha)           :       33.000059668301 electrons
N(Beta)            :       33.000059668301 electrons
N(Total)           :       66.000119336601 electrons
E(XC)              :      -51.578575060605 Eh       
DFET-embed. en.    :        0.000000000000 Eh       

---------------
SCF CONVERGENCE
---------------

  Last Energy change         ...    3.0969e-09  Tolerance :   1.0000e-08
  Last MAX-Density change    ...    1.7764e-15  Tolerance :   1.0000e-07
  Last RMS-Density change    ...    2.2713e-17  Tolerance :   5.0000e-09
  Last Orbital Gradient      ...    2.0227e-06  Tolerance :   1.0000e-05
  Last Orbital Rotation      ...    1.8074e-06  Tolerance :   1.0000e-05

             **** THE GBW FILE WAS UPDATED (C1_neg.gbw) ****
             **** DENSITY C1_neg.scfp WAS UPDATED ****
             **** ENERGY FILE WAS UPDATED (C1_neg.en.tmp) ****
             **** THE GBW FILE WAS UPDATED (C1_neg.gbw) ****
             **** DENSITY C1_neg.scfp WAS UPDATED ****
----------------
ORBITAL ENERGIES
----------------

  NO   OCC          E(Eh)            E(eV) 
   0   2.0000     -89.192938     -2427.0632 
   1   2.0000     -24.890576      -677.3070 
   2   2.0000     -19.244585      -523.6718 
   3   2.0000     -19.229350      -523.2572 
   4   2.0000     -10.336610      -281.2735 
   5   2.0000     -10.309989      -280.5491 
   6   2.0000     -10.278103      -279.6814 
   7   2.0000      -8.256321      -224.6659 
   8   2.0000      -6.213856      -169.0876 
   9   2.0000      -6.207220      -168.9070 
  10   2.0000      -6.206870      -168.8975 
  11   2.0000      -1.472705       -40.0744 
  12   2.0000      -1.222200       -33.2578 
  13   2.0000      -1.121544       -30.5188 
  14   2.0000      -0.956853       -26.0373 
  15   2.0000      -0.867172       -23.5970 
  16   2.0000      -0.811462       -22.0810 
  17   2.0000      -0.748383       -20.3645 
  18   2.0000      -0.690275       -18.7833 
  19   2.0000      -0.673016       -18.3137 
  20   2.0000      -0.644863       -17.5476 
  21   2.0000      -0.596096       -16.2206 
  22   2.0000      -0.583344       -15.8736 
  23   2.0000      -0.562575       -15.3085 
  24   2.0000      -0.546083       -14.8597 
  25   2.0000      -0.533216       -14.5095 
  26   2.0000      -0.490990       -13.3605 
  27   2.0000      -0.484363       -13.1802 
  28   2.0000      -0.474052       -12.8996 
  29   2.0000      -0.463916       -12.6238 
  30   2.0000      -0.426830       -11.6146 
  31   2.0000      -0.414189       -11.2707 
  32   2.0000      -0.403386       -10.9767 
  33   0.0000       0.085425         2.3245 
  34   0.0000       0.122405         3.3308 
  35   0.0000       0.140336         3.8187 
  36   0.0000       0.147733         4.0200 
  37   0.0000       0.151087         4.1113 
  38   0.0000       0.155476         4.2307 
  39   0.0000       0.172323         4.6891 
  40   0.0000       0.181275         4.9327 
  41   0.0000       0.197476         5.3736 
  42   0.0000       0.202988         5.5236 
  43   0.0000       0.210480         5.7274 
  44   0.0000       0.240731         6.5506 
  45   0.0000       0.269135         7.3235 
  46   0.0000       0.280590         7.6352 
  47   0.0000       0.296910         8.0793 
  48   0.0000       0.304110         8.2753 
  49   0.0000       0.314064         8.5461 
  50   0.0000       0.340032         9.2527 
  51   0.0000       0.354273         9.6402 
  52   0.0000       0.379174        10.3179 
  53   0.0000       0.401138        10.9155 
  54   0.0000       0.407554        11.0901 
  55   0.0000       0.435785        11.8583 
  56   0.0000       0.455645        12.3987 
  57   0.0000       0.468180        12.7398 
  58   0.0000       0.477242        12.9864 
  59   0.0000       0.487139        13.2557 
  60   0.0000       0.491115        13.3639 
  61   0.0000       0.505998        13.7689 
  62   0.0000       0.515434        14.0257 
  63   0.0000       0.534550        14.5459 
  64   0.0000       0.538655        14.6575 
  65   0.0000       0.550665        14.9844 
  66   0.0000       0.554822        15.0975 
  67   0.0000       0.567531        15.4433 
  68   0.0000       0.574975        15.6459 
  69   0.0000       0.581937        15.8353 
  70   0.0000       0.604345        16.4451 
  71   0.0000       0.615028        16.7358 
  72   0.0000       0.657499        17.8915 
  73   0.0000       0.662177        18.0188 
  74   0.0000       0.681032        18.5318 
  75   0.0000       0.689781        18.7699 
  76   0.0000       0.726154        19.7597 
  77   0.0000       0.743525        20.2324 
  78   0.0000       0.759646        20.6710 
  79   0.0000       0.798754        21.7352 
  80   0.0000       0.818918        22.2839 
  81   0.0000       0.826769        22.4975 
  82   0.0000       0.865593        23.5540 
  83   0.0000       0.898828        24.4583 
  84   0.0000       0.924317        25.1519 
  85   0.0000       0.937187        25.5021 
  86   0.0000       0.963696        26.2235 
  87   0.0000       0.981424        26.7059 
  88   0.0000       1.001206        27.2442 
  89   0.0000       1.006867        27.3982 
  90   0.0000       1.041001        28.3271 
  91   0.0000       1.054621        28.6977 
  92   0.0000       1.095593        29.8126 
  93   0.0000       1.130817        30.7711 
  94   0.0000       1.151999        31.3475 
  95   0.0000       1.182754        32.1844 
  96   0.0000       1.201251        32.6877 
  97   0.0000       1.233847        33.5747 
  98   0.0000       1.260794        34.3080 
  99   0.0000       1.263964        34.3942 
 100   0.0000       1.302380        35.4396 
 101   0.0000       1.387708        37.7615 
 102   0.0000       1.417035        38.5595 
 103   0.0000       1.443140        39.2698 
 104   0.0000       1.499069        40.7917 
 105   0.0000       1.526031        41.5254 
 106   0.0000       1.555825        42.3361 
 107   0.0000       1.576901        42.9096 
 108   0.0000       1.596829        43.4519 
 109   0.0000       1.611396        43.8483 
 110   0.0000       1.617075        44.0029 
 111   0.0000       1.636698        44.5368 
 112   0.0000       1.644638        44.7529 
 113   0.0000       1.657854        45.1125 
 114   0.0000       1.661758        45.2187 
 115   0.0000       1.678699        45.6797 
 116   0.0000       1.706979        46.4493 
 117   0.0000       1.713942        46.6387 
 118   0.0000       1.730233        47.0820 
 119   0.0000       1.741985        47.4018 
 120   0.0000       1.760496        47.9055 
 121   0.0000       1.795106        48.8473 
 122   0.0000       1.811998        49.3070 
 123   0.0000       1.830191        49.8020 
 124   0.0000       1.879977        51.1568 
 125   0.0000       1.886332        51.3297 
 126   0.0000       1.921721        52.2927 
 127   0.0000       1.946110        52.9563 
 128   0.0000       1.998653        54.3861 
 129   0.0000       2.022773        55.0424 
 130   0.0000       2.029141        55.2157 
 131   0.0000       2.051553        55.8256 
 132   0.0000       2.058892        56.0253 
 133   0.0000       2.091954        56.9250 
 134   0.0000       2.132791        58.0362 
 135   0.0000       2.150654        58.5223 
 136   0.0000       2.181626        59.3651 
 137   0.0000       2.260745        61.5180 
 138   0.0000       2.274886        61.9028 
 139   0.0000       2.295079        62.4523 
 140   0.0000       2.323316        63.2207 
 141   0.0000       2.358820        64.1868 
 142   0.0000       2.383277        64.8523 
 143   0.0000       2.393526        65.1312 
 144   0.0000       2.405384        65.4538 
 145   0.0000       2.412218        65.6398 
 146   0.0000       2.440764        66.4166 
 147   0.0000       2.481196        67.5168 
 148   0.0000       2.489897        67.7535 
 149   0.0000       2.500890        68.0527 
 150   0.0000       2.516162        68.4683 
 151   0.0000       2.521948        68.6257 
 152   0.0000       2.542347        69.1808 
 153   0.0000       2.576073        70.0985 
 154   0.0000       2.598955        70.7211 
 155   0.0000       2.638829        71.8062 
 156   0.0000       2.657032        72.3015 
 157   0.0000       2.691037        73.2268 
 158   0.0000       2.698761        73.4370 
 159   0.0000       2.714084        73.8540 
 160   0.0000       2.733799        74.3904 
 161   0.0000       2.751268        74.8658 
 162   0.0000       2.770676        75.3939 
 163   0.0000       2.782623        75.7190 
 164   0.0000       2.802667        76.2644 
 165   0.0000       2.806757        76.3757 
 166   0.0000       2.819447        76.7210 
 167   0.0000       2.850433        77.5642 
 168   0.0000       2.896070        78.8061 
 169   0.0000       2.934580        79.8540 
 170   0.0000       2.999800        81.6287 
 171   0.0000       3.010452        81.9186 
 172   0.0000       3.058339        83.2216 
 173   0.0000       3.074753        83.6683 
 174   0.0000       3.098331        84.3099 
 175   0.0000       3.136043        85.3361 
 176   0.0000       3.150095        85.7184 
 177   0.0000       3.169554        86.2480 
 178   0.0000       3.180451        86.5445 
 179   0.0000       3.190210        86.8100 
 180   0.0000       3.236911        88.0808 
 181   0.0000       3.262543        88.7783 
 182   0.0000       3.282535        89.3223 
 183   0.0000       3.326728        90.5249 
 184   0.0000       3.332525        90.6826 
 185   0.0000       3.386451        92.1500 
 186   0.0000       3.400387        92.5292 
 187   0.0000       3.431181        93.3672 
 188   0.0000       3.449415        93.8634 
 189   0.0000       3.484414        94.8157 
 190   0.0000       3.502702        95.3134 
 191   0.0000       3.535470        96.2050 
 192   0.0000       3.576429        97.3196 
 193   0.0000       3.592725        97.7630 
 194   0.0000       3.630108        98.7803 
 195   0.0000       3.654526        99.4447 
 196   0.0000       3.688432       100.3673 
 197   0.0000       3.706345       100.8548 
 198   0.0000       3.763480       102.4095 
 199   0.0000       3.847330       104.6912 
 200   0.0000       3.899978       106.1238 
 201   0.0000       3.933679       107.0409 
 202   0.0000       3.953148       107.5706 
 203   0.0000       3.994764       108.7030 
 204   0.0000       4.055832       110.3648 
 205   0.0000       4.071041       110.7786 
 206   0.0000       4.121115       112.1412 
 207   0.0000       4.156106       113.0934 
 208   0.0000       4.272337       116.2562 
 209   0.0000       4.348309       118.3235 
 210   0.0000       4.436064       120.7114 
 211   0.0000       4.475787       121.7923 
 212   0.0000       4.508996       122.6960 
 213   0.0000       4.583404       124.7208 
 214   0.0000       4.636217       126.1579 
 215   0.0000       4.679557       127.3372 
 216   0.0000       4.731370       128.7471 
 217   0.0000       4.881862       132.8422 
 218   0.0000       4.918490       133.8389 
 219   0.0000       5.226082       142.2089 
 220   0.0000       5.236862       142.5023 
 221   0.0000       5.244653       142.7143 
 222   0.0000       5.248002       142.8054 
 223   0.0000       5.267511       143.3363 
 224   0.0000       5.286361       143.8492 
 225   0.0000       5.311084       144.5219 
 226   0.0000       5.409911       147.2112 
 227   0.0000       5.458357       148.5294 
 228   0.0000       5.553854       151.1281 
 229   0.0000       5.590916       152.1366 
 230   0.0000       5.641355       153.5091 
 231   0.0000       5.703930       155.2118 
 232   0.0000       5.772674       157.0824 
 233   0.0000       6.367214       173.2607 
 234   0.0000       6.410118       174.4282 
 235   0.0000       6.449060       175.4878 
 236   0.0000       6.486862       176.5165 
 237   0.0000       6.697102       182.2374 
 238   0.0000       6.745434       183.5526 
 239   0.0000       6.794237       184.8806 
 240   0.0000       6.866116       186.8365 
 241   0.0000       6.883781       187.3172 
 242   0.0000       6.888160       187.4364 
 243   0.0000       6.924240       188.4181 
 244   0.0000       6.945427       188.9947 
 245   0.0000       6.956497       189.2959 
 246   0.0000       6.995300       190.3518 
 247   0.0000       7.014815       190.8828 
 248   0.0000       7.049094       191.8156 
 249   0.0000       7.131309       194.0528 
 250   0.0000       8.352894       227.2938 
 251   0.0000       8.371971       227.8129 
 252   0.0000       8.704155       236.8521 
 253   0.0000       8.719996       237.2831 
 254   0.0000       8.780221       238.9220 
 255   0.0000       9.446588       257.0547 
 256   0.0000       9.635052       262.1831 
 257   0.0000       9.750311       265.3195 
 258   0.0000      22.183535       603.6447 
 259   0.0000      22.480275       611.7194 
 260   0.0000      22.525379       612.9467 
 261   0.0000      22.561874       613.9398 
 262   0.0000      43.539320      1184.7651 
 263   0.0000      43.757439      1190.7004 
 264   0.0000      57.086333      1553.3981 

                    ********************************
                    * MULLIKEN POPULATION ANALYSIS *
                    ********************************

-----------------------
MULLIKEN ATOMIC CHARGES
-----------------------
   0 C :   -0.266937
   1 S :    0.890048
   2 F :   -0.124067
   3 O :   -0.460054
   4 O :   -0.422183
   5 C :   -0.339895
   6 C :   -0.216337
   7 H :    0.118809
   8 H :    0.120462
   9 H :    0.165246
  10 H :    0.168767
  11 H :    0.123238
  12 H :    0.117436
  13 H :    0.125467
Sum of atomic charges:   -0.0000000

--------------------------------
MULLIKEN REDUCED ORBITAL CHARGES
--------------------------------
  0 C s       :     3.213013  s :     3.213013
      pz      :     0.993953  p :     2.965958
      px      :     0.967887
      py      :     1.004117
      dz2     :     0.006254  d :     0.083531
      dxz     :     0.021859
      dyz     :     0.021520
      dx2y2   :     0.016827
      dxy     :     0.017070
      f0      :     0.000195  f :     0.004435
      f+1     :     0.000479
      f-1     :     0.000739
      f+2     :     0.001370
      f-2     :     0.000466
      f+3     :     0.000775
      f-3     :     0.000411
  1 S s       :     5.364571  s :     5.364571
      pz      :     2.866918  p :     8.509609
      px      :     2.893760
      py      :     2.748931
      dz2     :     0.215091  d :     1.113012
      dxz     :     0.255996
      dyz     :     0.209045
      dx2y2   :     0.230452
      dxy     :     0.202428
      f0      :     0.013715  f :     0.122760
      f+1     :     0.015340
      f-1     :     0.019926
      f+2     :     0.020303
      f-2     :     0.015012
      f+3     :     0.020880
      f-3     :     0.017584
  2 F s       :     3.907679  s :     3.907679
      pz      :     1.816903  p :     5.196134
      px      :     1.831376
      py      :     1.547854
      dz2     :     0.002570  d :     0.019418
      dxz     :     0.001262
      dyz     :     0.005316
      dx2y2   :     0.005528
      dxy     :     0.004742
      f0      :     0.000081  f :     0.000835
      f+1     :     0.000018
      f-1     :     0.000143
      f+2     :     0.000149
      f-2     :     0.000099
      f+3     :     0.000174
      f-3     :     0.000172
  3 O s       :     3.856335  s :     3.856335
      pz      :     1.548792  p :     4.568501
      px      :     1.447722
      py      :     1.571988
      dz2     :     0.005627  d :     0.033317
      dxz     :     0.008454
      dyz     :     0.004229
      dx2y2   :     0.007258
      dxy     :     0.007749
      f0      :     0.000168  f :     0.001900
      f+1     :     0.000368
      f-1     :     0.000120
      f+2     :     0.000311
      f-2     :     0.000378
      f+3     :     0.000292
      f-3     :     0.000264
  4 O s       :     3.846173  s :     3.846173
      pz      :     1.492366  p :     4.537997
      px      :     1.603056
      py      :     1.442575
      dz2     :     0.009090  d :     0.035917
      dxz     :     0.006220
      dyz     :     0.009062
      dx2y2   :     0.005704
      dxy     :     0.005840
      f0      :     0.000295  f :     0.002096
      f+1     :     0.000214
      f-1     :     0.000420
      f+2     :     0.000405
      f-2     :     0.000409
      f+3     :     0.000165
      f-3     :     0.000187
  5 C s       :     3.252718  s :     3.252718
      pz      :     1.016983  p :     3.035424
      px      :     0.965317
      py      :     1.053124
      dz2     :     0.009136  d :     0.048715
      dxz     :     0.010424
      dyz     :     0.008314
      dx2y2   :     0.015150
      dxy     :     0.005693
      f0      :     0.000072  f :     0.003038
      f+1     :     0.000609
      f-1     :     0.000333
      f+2     :     0.001034
      f-2     :     0.000331
      f+3     :     0.000353
      f-3     :     0.000305
  6 C s       :     3.201459  s :     3.201459
      pz      :     1.009219  p :     2.909128
      px      :     0.996934
      py      :     0.902975
      dz2     :     0.014172  d :     0.100387
      dxz     :     0.016045
      dyz     :     0.025946
      dx2y2   :     0.025671
      dxy     :     0.018553
      f0      :     0.000231  f :     0.005362
      f+1     :     0.000680
      f-1     :     0.000778
      f+2     :     0.001438
      f-2     :     0.000612
      f+3     :     0.001029
      f-3     :     0.000595
  7 H s       :     0.859503  s :     0.859503
      pz      :     0.009692  p :     0.021689
      px      :     0.004426
      py      :     0.007571
  8 H s       :     0.857992  s :     0.857992
      pz      :     0.006617  p :     0.021546
      px      :     0.010860
      py      :     0.004069
  9 H s       :     0.812553  s :     0.812553
      pz      :     0.009366  p :     0.022202
      px      :     0.004141
      py      :     0.008695
 10 H s       :     0.809140  s :     0.809140
      pz      :     0.005826  p :     0.022093
      px      :     0.010744
      py      :     0.005524
 11 H s       :     0.854141  s :     0.854141
      pz      :     0.006781  p :     0.022621
      px      :     0.011317
      py      :     0.004523
 12 H s       :     0.860460  s :     0.860460
      pz      :     0.010702  p :     0.022104
      px      :     0.004626
      py      :     0.006776
 13 H s       :     0.852464  s :     0.852464
      pz      :     0.005158  p :     0.022069
      px      :     0.004569
      py      :     0.012342


                     *******************************
                     * LOEWDIN POPULATION ANALYSIS *
                     *******************************

----------------------
LOEWDIN ATOMIC CHARGES
----------------------
   0 C :   -0.360016
   1 S :    0.561978
   2 F :    0.061721
   3 O :   -0.317387
   4 O :   -0.261300
   5 C :   -0.298816
   6 C :   -0.317238
   7 H :    0.137405
   8 H :    0.142360
   9 H :    0.150579
  10 H :    0.144576
  11 H :    0.116218
  12 H :    0.120046
  13 H :    0.119874

-------------------------------
LOEWDIN REDUCED ORBITAL CHARGES
-------------------------------
  0 C s       :     2.842796  s :     2.842796
      pz      :     1.034012  p :     3.131797
      px      :     1.021835
      py      :     1.075950
      dz2     :     0.035834  d :     0.353263
      dxz     :     0.090282
      dyz     :     0.087600
      dx2y2   :     0.075931
      dxy     :     0.063616
      f0      :     0.003183  f :     0.032159
      f+1     :     0.003464
      f-1     :     0.006132
      f+2     :     0.005667
      f-2     :     0.003244
      f+3     :     0.006194
      f-3     :     0.004275
  1 S s       :     4.764188  s :     4.764188
      pz      :     2.879435  p :     8.564342
      px      :     2.896555
      py      :     2.788352
      dz2     :     0.300982  d :     1.740483
      dxz     :     0.408457
      dyz     :     0.347988
      dx2y2   :     0.366155
      dxy     :     0.316901
      f0      :     0.042831  f :     0.369009
      f+1     :     0.043423
      f-1     :     0.055468
      f+2     :     0.061552
      f-2     :     0.052110
      f+3     :     0.060990
      f-3     :     0.052636
  2 F s       :     3.673118  s :     3.673118
      pz      :     1.785825  p :     5.226706
      px      :     1.792946
      py      :     1.647935
      dz2     :     0.004487  d :     0.036849
      dxz     :     0.002047
      dyz     :     0.010386
      dx2y2   :     0.011431
      dxy     :     0.008498
      f0      :     0.000179  f :     0.001606
      f+1     :     0.000030
      f-1     :     0.000242
      f+2     :     0.000301
      f-2     :     0.000204
      f+3     :     0.000340
      f-3     :     0.000310
  3 O s       :     3.588750  s :     3.588750
      pz      :     1.566527  p :     4.661046
      px      :     1.531124
      py      :     1.563395
      dz2     :     0.007415  d :     0.063427
      dxz     :     0.020594
      dyz     :     0.007828
      dx2y2   :     0.011811
      dxy     :     0.015779
      f0      :     0.000481  f :     0.004164
      f+1     :     0.000606
      f-1     :     0.000174
      f+2     :     0.000680
      f-2     :     0.001014
      f+3     :     0.000431
      f-3     :     0.000778
  4 O s       :     3.560951  s :     3.560951
      pz      :     1.549772  p :     4.626819
      px      :     1.582009
      py      :     1.495038
      dz2     :     0.012067  d :     0.068854
      dxz     :     0.013031
      dyz     :     0.024819
      dx2y2   :     0.008232
      dxy     :     0.010705
      f0      :     0.000518  f :     0.004676
      f+1     :     0.000486
      f-1     :     0.001073
      f+2     :     0.000824
      f-2     :     0.001133
      f+3     :     0.000374
      f-3     :     0.000268
  5 C s       :     2.816198  s :     2.816198
      pz      :     1.068131  p :     3.198773
      px      :     1.060231
      py      :     1.070411
      dz2     :     0.045456  d :     0.258203
      dxz     :     0.061920
      dyz     :     0.047280
      dx2y2   :     0.075927
      dxy     :     0.027620
      f0      :     0.002616  f :     0.025642
      f+1     :     0.004479
      f-1     :     0.003716
      f+2     :     0.004194
      f-2     :     0.003168
      f+3     :     0.003712
      f-3     :     0.003759
  6 C s       :     2.779657  s :     2.779657
      pz      :     1.035088  p :     3.086562
      px      :     1.040666
      py      :     1.010809
      dz2     :     0.054917  d :     0.411441
      dxz     :     0.076909
      dyz     :     0.104397
      dx2y2   :     0.105218
      dxy     :     0.070000
      f0      :     0.003607  f :     0.039578
      f+1     :     0.004702
      f-1     :     0.007269
      f+2     :     0.006401
      f-2     :     0.004066
      f+3     :     0.008374
      f-3     :     0.005160
  7 H s       :     0.803408  s :     0.803408
      pz      :     0.026065  p :     0.059187
      px      :     0.013476
      py      :     0.019646
  8 H s       :     0.798936  s :     0.798936
      pz      :     0.019215  p :     0.058703
      px      :     0.027222
      py      :     0.012266
  9 H s       :     0.786010  s :     0.786010
      pz      :     0.027588  p :     0.063411
      px      :     0.012781
      py      :     0.023042
 10 H s       :     0.792039  s :     0.792039
      pz      :     0.017145  p :     0.063385
      px      :     0.030824
      py      :     0.015416
 11 H s       :     0.818394  s :     0.818394
      pz      :     0.021100  p :     0.065388
      px      :     0.029647
      py      :     0.014641
 12 H s       :     0.815461  s :     0.815461
      pz      :     0.028885  p :     0.064493
      px      :     0.014436
      py      :     0.021172
 13 H s       :     0.815764  s :     0.815764
      pz      :     0.015620  p :     0.064362
      px      :     0.014832
      py      :     0.033910


                      *****************************
                      * MAYER POPULATION ANALYSIS *
                      *****************************

  NA   - Mulliken gross atomic population
  ZA   - Total nuclear charge
  QA   - Mulliken gross atomic charge
  VA   - Mayer's total valence
  BVA  - Mayer's bonded valence
  FA   - Mayer's free valence

  ATOM       NA         ZA         QA         VA         BVA        FA
  0 C      6.2669     6.0000    -0.2669     3.8757     3.8757     0.0000
  1 S     15.1100    16.0000     0.8900     5.8832     5.8832    -0.0000
  2 F      9.1241     9.0000    -0.1241     1.1967     1.1967     0.0000
  3 O      8.4601     8.0000    -0.4601     1.9950     1.9950     0.0000
  4 O      8.4222     8.0000    -0.4222     2.0696     2.0696    -0.0000
  5 C      6.3399     6.0000    -0.3399     3.9087     3.9087    -0.0000
  6 C      6.2163     6.0000    -0.2163     3.8891     3.8891    -0.0000
  7 H      0.8812     1.0000     0.1188     0.9687     0.9687    -0.0000
  8 H      0.8795     1.0000     0.1205     0.9661     0.9661     0.0000
  9 H      0.8348     1.0000     0.1652     0.9700     0.9700     0.0000
 10 H      0.8312     1.0000     0.1688     0.9657     0.9657    -0.0000
 11 H      0.8768     1.0000     0.1232     0.9878     0.9878     0.0000
 12 H      0.8826     1.0000     0.1174     0.9734     0.9734    -0.0000
 13 H      0.8745     1.0000     0.1255     0.9700     0.9700    -0.0000

  Mayer bond orders larger than 0.100000
B(  0-C ,  1-S ) :   0.9097 B(  0-C ,  6-C ) :   0.9757 B(  0-C ,  9-H ) :   0.9425 
B(  0-C , 10-H ) :   0.9450 B(  1-S ,  2-F ) :   1.1009 B(  1-S ,  3-O ) :   1.8753 
B(  1-S ,  4-O ) :   1.9454 B(  5-C ,  6-C ) :   0.9780 B(  5-C , 11-H ) :   0.9746 
B(  5-C , 12-H ) :   0.9725 B(  5-C , 13-H ) :   0.9754 B(  6-C ,  7-H ) :   0.9737 
B(  6-C ,  8-H ) :   0.9600 

-------
TIMINGS
-------

Total SCF time: 0 days 0 hours 0 min 29 sec 

Total time                  ....      29.061 sec
Sum of individual times     ....      28.785 sec  ( 99.0%)

Fock matrix formation       ....      27.544 sec  ( 94.8%)
  Split-RI-J                ....       1.531 sec  (  5.6% of F)
  Chain of spheres X        ....      23.298 sec  ( 84.6% of F)
  XC integration            ....       2.259 sec  (  8.2% of F)
    Basis function eval.    ....       0.708 sec  ( 31.4% of XC)
    Density eval.           ....       0.549 sec  ( 24.3% of XC)
    XC-Functional eval.     ....       0.176 sec  (  7.8% of XC)
    XC-Potential eval.      ....       0.629 sec  ( 27.8% of XC)
Diagonalization             ....       0.110 sec  (  0.4%)
Density matrix formation    ....       0.011 sec  (  0.0%)
Population analysis         ....       0.016 sec  (  0.1%)
Initial guess               ....       0.138 sec  (  0.5%)
Orbital Transformation      ....       0.000 sec  (  0.0%)
Orbital Orthonormalization  ....       0.000 sec  (  0.0%)
DIIS solution               ....       0.058 sec  (  0.2%)
SOSCF solution              ....       0.095 sec  (  0.3%)
Grid generation             ....       0.812 sec  (  2.8%)

Maximum memory used throughout the entire SCF-calculation: 73.7 MB


-------------------------------------------------------------------------------
                          DFT DISPERSION CORRECTION                            
                                                                               
                              DFTD3 V3.1  Rev 1                                
                              USING zero damping                               
-------------------------------------------------------------------------------
The omegaB97X-D3 functional is recognized. Fit by Chai et al.
Active option DFTDOPT                   ...         3   

molecular C6(AA) [au] = 2097.114636 


            DFT-D V3
 parameters
 s6 scaling factor         :     1.0000 
 rs6 scaling factor        :     1.2810 
 s8 scaling factor         :     1.0000 
 rs8 scaling factor        :     1.0940 
 Damping factor alpha6     :    14.0000 
 Damping factor alpha8     :    16.0000 
 ad hoc parameters k1-k3   :    16.0000     1.3333    -4.0000 

 Edisp/kcal,au: -2.815895435229  -0.004487414535 
 E6   /kcal   :  -1.029413955 
 E8   /kcal   :  -1.786481480 
 % E8         :  63.442749248 

-------------------------   ----------------
Dispersion correction           -0.004487415
-------------------------   ----------------


-------------------------   --------------------
FINAL SINGLE POINT ENERGY      -767.064124807294
-------------------------   --------------------


                            ***************************************
                            *     ORCA property calculations      *
                            ***************************************

                                    ---------------------
                                    Active property flags
                                    ---------------------
   (+) Dipole Moment


------------------------------------------------------------------------------
                       ORCA ELECTRIC PROPERTIES CALCULATION
------------------------------------------------------------------------------

Dipole Moment Calculation                       ... on
Quadrupole Moment Calculation                   ... off
Polarizability Calculation                      ... off
GBWName                                         ... C1_neg.gbw
Electron density file                           ... C1_neg.scfp
The origin for moment calculation is the CENTER OF MASS  = (-11.777519, -4.599369 -7.363199)

-------------
DIPOLE MOMENT
-------------
                                X             Y             Z
Electronic contribution:      4.80922      -4.56758      -9.85502
Nuclear contribution   :     -5.93570       5.78812      10.65621
                        -----------------------------------------
Total Dipole Moment    :     -1.12648       1.22054       0.80119
                        -----------------------------------------
Magnitude (a.u.)       :      1.84407
Magnitude (Debye)      :      4.68724



--------------------
Rotational spectrum 
--------------------
 
Rotational constants in cm-1:     0.129417     0.054385     0.051980 
Rotational constants in MHz :  3879.823072  1630.427453  1558.324762 

 Dipole components along the rotational axes: 
x,y,z [a.u.] :     1.654177     0.635917    -0.509790 
x,y,z [Debye]:     4.204584     1.616373    -1.295784 

 

Timings for individual modules:

Sum of individual times         ...       30.049 sec (=   0.501 min)
GTO integral calculation        ...        0.627 sec (=   0.010 min)   2.1 %
SCF iterations                  ...       29.422 sec (=   0.490 min)  97.9 %
                             ****ORCA TERMINATED NORMALLY****
TOTAL RUN TIME: 0 days 0 hours 0 minutes 30 seconds 614 msec
