
                                        *****************
                                        * O   R   C   A *
                                        *****************

                                            #,                                       
                                            ###                                      
                                            ####                                     
                                            #####                                    
                                            ######                                   
                                           ########,                                 
                                     ,,################,,,,,                         
                               ,,#################################,,                 
                          ,,##########################################,,             
                       ,#########################################, ''#####,          
                    ,#############################################,,   '####,        
                  ,##################################################,,,,####,       
                ,###########''''           ''''###############################       
              ,#####''   ,,,,##########,,,,          '''####'''          '####       
            ,##' ,,,,###########################,,,                        '##       
           ' ,,###''''                  '''############,,,                           
         ,,##''                                '''############,,,,        ,,,,,,###''
      ,#''                                            '''#######################'''  
     '                                                          ''''####''''         
             ,#######,   #######,   ,#######,      ##                                
            ,#'     '#,  ##    ##  ,#'     '#,    #''#        ######   ,####,        
            ##       ##  ##   ,#'  ##            #'  '#       #        #'  '#        
            ##       ##  #######   ##           ,######,      #####,   #    #        
            '#,     ,#'  ##    ##  '#,     ,#' ,#      #,         ##   #,  ,#        
             '#######'   ##     ##  '#######'  #'      '#     #####' # '####'        



                  #######################################################
                  #                        -***-                        #
                  #          Department of theory and spectroscopy      #
                  #    Directorship and core code : Frank Neese         #
                  #        Max Planck Institute fuer Kohlenforschung    #
                  #                Kaiser Wilhelm Platz 1               #
                  #                 D-45470 Muelheim/Ruhr               #
                  #                      Germany                        #
                  #                                                     #
                  #                  All rights reserved                #
                  #                        -***-                        #
                  #######################################################


                         Program Version 5.0.0 -  RELEASE  -
                                (SVN: $Rev: 19529$)
                ($Date: 2021-06-28 11:36:33 +0200 (Mo, 28 Jun 2021) $)


 With contributions from (in alphabetic order):
   Daniel Aravena         : Magnetic Suceptibility
   Michael Atanasov       : Ab Initio Ligand Field Theory (pilot matlab implementation)
   Alexander A. Auer      : GIAO ZORA, VPT2 properties, NMR spectrum
   Ute Becker             : Parallelization
   Giovanni Bistoni       : ED, misc. LED, open-shell LED, HFLD
   Martin Brehm           : Molecular dynamics
   Dmytro Bykov           : SCF Hessian
   Vijay G. Chilkuri      : MRCI spin determinant printing, contributions to CSF-ICE
   Dipayan Datta          : RHF DLPNO-CCSD density
   Achintya Kumar Dutta   : EOM-CC, STEOM-CC
   Dmitry Ganyushin       : Spin-Orbit,Spin-Spin,Magnetic field MRCI
   Miquel Garcia          : C-PCM Hessian, Gaussian charge scheme
   Yang Guo               : DLPNO-NEVPT2, F12-NEVPT2, CIM, IAO-localization
   Andreas Hansen         : Spin unrestricted coupled pair/coupled cluster methods
   Benjamin Helmich-Paris : MC-RPA, TRAH-SCF, COSX integrals
   Lee Huntington         : MR-EOM, pCC
   Robert Izsak           : Overlap fitted RIJCOSX, COSX-SCS-MP3, EOM
   Marcus Kettner         : VPT2
   Christian Kollmar      : KDIIS, OOCD, Brueckner-CCSD(T), CCSD density, CASPT2, CASPT2-K
   Simone Kossmann        : Meta GGA functionals, TD-DFT gradient, OOMP2, MP2 Hessian
   Martin Krupicka        : Initial AUTO-CI
   Lucas Lang             : DCDCAS
   Marvin Lechner         : AUTO-CI (C++ implementation), FIC-MRCC
   Dagmar Lenk            : GEPOL surface, SMD
   Dimitrios Liakos       : Extrapolation schemes; Compound Job, initial MDCI parallelization
   Dimitrios Manganas     : Further ROCIS development; embedding schemes
   Dimitrios Pantazis     : SARC Basis sets
   Anastasios Papadopoulos: AUTO-CI, single reference methods and gradients
   Taras Petrenko         : DFT Hessian,TD-DFT gradient, ASA, ECA, R-Raman, ABS, FL, XAS/XES, NRVS
   Peter Pinski           : DLPNO-MP2, DLPNO-MP2 Gradient
   Christoph Reimann      : Effective Core Potentials
   Marius Retegan         : Local ZFS, SOC
   Christoph Riplinger    : Optimizer, TS searches, QM/MM, DLPNO-CCSD(T), (RO)-DLPNO pert. Triples
   Tobias Risthaus        : Range-separated hybrids, TD-DFT gradient, RPA, STAB
   Michael Roemelt        : Original ROCIS implementation
   Masaaki Saitow         : Open-shell DLPNO-CCSD energy and density
   Barbara Sandhoefer     : DKH picture change effects
   Avijit Sen             : IP-ROCIS
   Kantharuban Sivalingam : CASSCF convergence, NEVPT2, FIC-MRCI
   Bernardo de Souza      : ESD, SOC TD-DFT
   Georgi Stoychev        : AutoAux, RI-MP2 NMR
   Willem Van den Heuvel  : Paramagnetic NMR
   Boris Wezisla          : Elementary symmetry handling
   Frank Wennmohs         : Technical directorship


 We gratefully acknowledge several colleagues who have allowed us to
 interface, adapt or use parts of their codes:
   Stefan Grimme, W. Hujo, H. Kruse, P. Pracht,  : VdW corrections, initial TS optimization,
                  C. Bannwarth, S. Ehlert          DFT functionals, gCP, sTDA/sTD-DF
   Ed Valeev, F. Pavosevic, A. Kumar             : LibInt (2-el integral package), F12 methods
   Garnet Chan, S. Sharma, J. Yang, R. Olivares  : DMRG
   Ulf Ekstrom                                   : XCFun DFT Library
   Mihaly Kallay                                 : mrcc  (arbitrary order and MRCC methods)
   Jiri Pittner, Ondrej Demel                    : Mk-CCSD
   Frank Weinhold                                : gennbo (NPA and NBO analysis)
   Christopher J. Cramer and Donald G. Truhlar   : smd solvation model
   Lars Goerigk                                  : TD-DFT with DH, B97 family of functionals
   V. Asgeirsson, H. Jonsson                     : NEB implementation
   FAccTs GmbH                                   : IRC, NEB, NEB-TS, DLPNO-Multilevel, CI-OPT
                                                   MM, QMMM, 2- and 3-layer-ONIOM, Crystal-QMMM,
                                                   LR-CPCM, SF, NACMEs, symmetry and pop. for TD-DFT,
                                                   nearIR, NL-DFT gradient (VV10), updates on ESD,
                                                   ML-optimized integration grids
   S Lehtola, MJT Oliveira, MAL Marques          : LibXC Library
   Liviu Ungur et al                             : ANISO software


 Your calculation uses the libint2 library for the computation of 2-el integrals
 For citations please refer to: http://libint.valeyev.net

 Your ORCA version has been built with support for libXC version: 5.1.0
 For citations please refer to: https://tddft.org/programs/libxc/

 This ORCA versions uses:
   CBLAS   interface :  Fast vector & matrix operations
   LAPACKE interface :  Fast linear algebra routines
   SCALAPACK package :  Parallel linear algebra routines
   Shared memory     :  Shared parallel matrices
   BLAS/LAPACK       :  OpenBLAS 0.3.15  USE64BITINT DYNAMIC_ARCH NO_AFFINITY Haswell SINGLE_THREADED
        Core in use  :  Haswell
   Copyright (c) 2011-2014, The OpenBLAS Project




***************************************
The coordinates will be read from file: D2.xyz
***************************************


Your calculation utilizes the atom-pairwise dispersion correction
with the Becke-Johnson damping scheme (D3BJ)
Cite in your paper:
S.Grimme, S.Ehrlich, L.Goerigk, J Comput Chem, (2011), 32, 1456–1465 
S.Grimme, J.Antony, S.Ehrlich and H.Krieg, J.Chem.Phys., 132, (2010), 154104 
   

================================================================================

----- Orbital basis set information -----
Your calculation utilizes the basis: def2-TZVP
   F. Weigend and R. Ahlrichs, Phys. Chem. Chem. Phys. 7, 3297 (2005).

----- AuxJ basis set information -----
Your calculation utilizes the auxiliary basis: def2/J
   F. Weigend, Phys. Chem. Chem. Phys. 8, 1057 (2006).

================================================================================
                                        WARNINGS
                       Please study these warnings very carefully!
================================================================================


INFO   : the flag for use of the SHARK integral package has been found!

================================================================================
                                       INPUT FILE
================================================================================
NAME = B3LYP_D2_wb97.com
|  1> !B3LYP D3BJ RIJCOSX def2-TZVP def2/J TightSCF xyzfile                                                                                         
|  2> 
|  3> *xyzfile 0 1 D2.xyz
|  4> 
|  5> %MaxCore 64000
|  6> 
|  7> %pal nprocs 18                                                                                                                                                  
|  8> end  
|  9> 
| 10> %scf
| 11>   MaxIter 150
| 12> end
| 13> 
| 14> 
| 15>                          ****END OF INPUT****
================================================================================

                       ****************************
                       * Single Point Calculation *
                       ****************************

---------------------------------
CARTESIAN COORDINATES (ANGSTROEM)
---------------------------------
  C      3.913853   -1.658291    3.015134
  N      5.039266   -0.901154    2.492821
  C      4.084215    1.742081   -2.114724
  C      4.265245    2.500518   -0.795890
  H      4.868534    3.392674   -0.981134
  H      3.307640    2.824571   -0.387809
  C      4.982240    1.650257    0.247422
  C      6.210384   -1.417261    2.178244
  C      6.535913   -2.677122    2.556078
  N      7.076754   -0.700820    1.478906
  H      7.954643   -1.121554    1.207554
  H      6.756161    0.106637    0.960278
  H      4.842168    0.017609    2.115191
  H      5.993876   -3.126918    3.282784
  H      7.498441   -2.975482    2.468776
  F      4.368065    1.389270    1.313706
  O      6.128919    1.233512   -0.045620
  C      3.139159   -2.376572    1.910609
  H      3.267235   -0.939401    3.520693
  H      4.247195   -2.355095    3.790065
  C      1.997274    0.430918   -1.399218
  C      3.412746    0.376886   -1.965497
  H      4.047407   -0.246590   -1.326706
  H      3.390774   -0.118719   -2.942839
  H      5.068475    1.598504   -2.565728
  H      3.503356    2.363939   -2.804565
  C      2.399946   -1.389579    1.009490
  H      2.440750   -3.087118    2.362976
  H      3.844475   -2.970462    1.318677
  C      2.070177   -1.936705   -0.372401
  H      1.481611   -1.061542    1.509912
  H      3.008628   -0.490001    0.897451
  C      1.322238   -0.935775   -1.256413
  H      1.472747   -2.850902   -0.283997
  H      3.003539   -2.234041   -0.862535
  H      1.376444    1.058920   -2.047420
  H      2.015341    0.929780   -0.426535
  H      0.316648   -0.787213   -0.848278
  H      1.185611   -1.379252   -2.248613

----------------------------
CARTESIAN COORDINATES (A.U.)
----------------------------
  NO LB      ZA    FRAG     MASS         X           Y           Z
   0 C     6.0000    0    12.011    7.396111   -3.133715    5.697778
   1 N     7.0000    0    14.007    9.522832   -1.702935    4.710749
   2 C     6.0000    0    12.011    7.718048    3.292056   -3.996250
   3 C     6.0000    0    12.011    8.060145    4.725294   -1.504014
   4 H     1.0000    0     1.008    9.200197    6.411225   -1.854074
   5 H     1.0000    0     1.008    6.250533    5.337665   -0.732852
   6 C     6.0000    0    12.011    9.415070    3.118533    0.467560
   7 C     6.0000    0    12.011   11.735926   -2.678236    4.116285
   8 C     6.0000    0    12.011   12.351086   -5.059027    4.830288
   9 N     7.0000    0    14.007   13.373127   -1.324358    2.794727
  10 H     1.0000    0     1.008   15.032097   -2.119429    2.281947
  11 H     1.0000    0     1.008   12.767294    0.201516    1.814662
  12 H     1.0000    0     1.008    9.150372    0.033277    3.997132
  13 H     1.0000    0     1.008   11.326784   -5.909018    6.203562
  14 H     1.0000    0     1.008   14.169999   -5.622847    4.665310
  15 F     9.0000    0    18.998    8.254446    2.625339    2.482544
  16 O     8.0000    0    15.999   11.581978    2.331000   -0.086210
  17 C     6.0000    0    12.011    5.932152   -4.491070    3.610528
  18 H     1.0000    0     1.008    6.174179   -1.775211    6.653145
  19 H     1.0000    0     1.008    8.026036   -4.450484    7.162184
  20 C     6.0000    0    12.011    3.774301    0.814318   -2.644139
  21 C     6.0000    0    12.011    6.449156    0.712212   -3.714252
  22 H     1.0000    0     1.008    7.648491   -0.465987   -2.507111
  23 H     1.0000    0     1.008    6.407634   -0.224346   -5.561161
  24 H     1.0000    0     1.008    9.578030    3.020734   -4.848524
  25 H     1.0000    0     1.008    6.620384    4.467196   -5.299860
  26 C     6.0000    0    12.011    4.535240   -2.625923    1.907659
  27 H     1.0000    0     1.008    4.612349   -5.833808    4.465377
  28 H     1.0000    0     1.008    7.265005   -5.613360    2.491938
  29 C     6.0000    0    12.011    3.912068   -3.659842   -0.703735
  30 H     1.0000    0     1.008    2.799840   -2.006023    2.853320
  31 H     1.0000    0     1.008    5.685483   -0.925968    1.695937
  32 C     6.0000    0    12.011    2.498667   -1.768358   -2.374277
  33 H     1.0000    0     1.008    2.783088   -5.387425   -0.536677
  34 H     1.0000    0     1.008    5.675866   -4.221725   -1.629955
  35 H     1.0000    0     1.008    2.601102    2.001069   -3.869064
  36 H     1.0000    0     1.008    3.808443    1.757029   -0.806034
  37 H     1.0000    0     1.008    0.598377   -1.487618   -1.603013
  38 H     1.0000    0     1.008    2.240481   -2.606408   -4.249264

--------------------------------
INTERNAL COORDINATES (ANGSTROEM)
--------------------------------
 C      0   0   0     0.000000000000     0.00000000     0.00000000
 N      1   0   0     1.453485443280     0.00000000     0.00000000
 C      2   1   0     5.397062831959   115.14348757     0.00000000
 C      3   2   1     1.532097611045    59.11314503   109.40719194
 H      4   3   2     1.092802021856   108.87189731   139.00405486
 H      4   3   2     1.090205655918   111.44258955   257.77719885
 C      4   3   2     1.524967567516   111.62104119    19.68257472
 C      2   1   3     1.317893766373   124.73852092   238.61776321
 C      8   2   1     1.354981786071   120.73396109   347.55295988
 N      8   2   1     1.323993306980   119.71283342   167.17472830
 H     10   8   2     1.010612779130   119.01054202   182.74777304
 H     10   8   2     1.011801586507   119.68596873   341.90401853
 H      2   1   3     1.012708267950   117.12238202    41.50352268
 H      9   8   2     1.012038255530   118.99951205   343.55991010
 H      9   8   2     1.011484164655   118.60809282   192.38988925
 F      7   4   3     1.257889696357   117.77873315   241.09573441
 O      7   4   3     1.254759572899   117.06973879    59.09677419
 C      1   2   3     1.528415415419   112.18313395    40.55299548
 H      1   2   3     1.091103498013   106.38904530   280.07132220
 H      1   2   3     1.094153031138   110.50914891   165.69684107
 C      3   2   1     2.566402161358    69.85918924   358.63373552
 C     21   3   2     1.525500843689    32.86803597   287.57417264
 H     22  21   3     1.095249262273   109.95802161   121.81463450
 H     22  21   3     1.096040506729   109.17304515   237.61374675
 H      3   2   1     1.092147522563    97.39336254   216.34966963
 H      3   2   1     1.095437941699   155.43261953    43.06177566
 C     18   1   2     1.527288090659   111.59234233   291.30595630
 H     18   1   2     1.094206250286   109.26450960   168.46195288
 H     18   1   2     1.095700648837   108.59364813    52.80241857
 C     27  18   1     1.522404354645   114.08859980   157.53677373
 H     27  18   1     1.096069675730   109.24160675   280.97905834
 H     27  18   1     1.091918658179   108.85287375    35.71174097
 C     30  27  18     1.530605579965   113.27107541   179.64303584
 H     30  27  18     1.095670751936   110.16542924    57.24922825
 H     30  27  18     1.095355598276   108.61125824   301.65869014
 H     21   3   2     1.095437356092    90.17181458   160.91850925
 H     21   3   2     1.093298677198    90.08509930    55.00215557
 H     33  30  27     1.095379590960   108.78969663   291.25991339
 H     33  30  27     1.095353635048   108.62394524   176.14504675

---------------------------
INTERNAL COORDINATES (A.U.)
---------------------------
 C      0   0   0     0.000000000000     0.00000000     0.00000000
 N      1   0   0     2.746689427440     0.00000000     0.00000000
 C      2   1   0    10.198970679968   115.14348757     0.00000000
 C      3   2   1     2.895244895311    59.11314503   109.40719194
 H      4   3   2     2.065096539903   108.87189731   139.00405486
 H      4   3   2     2.060190119337   111.44258955   257.77719885
 C      4   3   2     2.881771065717   111.62104119    19.68257472
 C      2   1   3     2.490458292047   124.73852092   238.61776321
 C      8   2   1     2.560544492126   120.73396109   347.55295988
 N      8   2   1     2.501984753337   119.71283342   167.17472830
 H     10   8   2     1.909781379998   119.01054202   182.74777304
 H     10   8   2     1.912027900366   119.68596873   341.90401853
 H      2   1   3     1.913741279984   117.12238202    41.50352268
 H      9   8   2     1.912475140003   118.99951205   343.55991010
 H      9   8   2     1.911428059996   118.60809282   192.38988925
 F      7   4   3     2.377067032797   117.77873315   241.09573441
 O      7   4   3     2.371151956695   117.06973879    59.09677419
 C      1   2   3     2.888286554006   112.18313395    40.55299548
 H      1   2   3     2.061886795008   106.38904530   280.07132220
 H      1   2   3     2.067649577451   110.50914891   165.69684107
 C      3   2   1     4.849797234470    69.85918924   358.63373552
 C     21   3   2     2.882778811638    32.86803597   287.57417264
 H     22  21   3     2.069721154075   109.95802161   121.81463450
 H     22  21   3     2.071216389401   109.17304515   237.61374675
 H      3   2   1     2.063859715485    97.39336254   216.34966963
 H      3   2   1     2.070077706517   155.43261953    43.06177566
 C     18   1   2     2.886156218945   111.59234233   291.30595630
 H     18   1   2     2.067750147065   109.26450960   168.46195288
 H     18   1   2     2.070574151061   108.59364813    52.80241857
 C     27  18   1     2.876927295368   114.08859980   157.53677373
 H     27  18   1     2.071271510826   109.24160675   280.97905834
 H     27  18   1     2.063427224477   108.85287375    35.71174097
 C     30  27  18     2.892425365185   113.27107541   179.64303584
 H     30  27  18     2.070517654106   110.16542924    57.24922825
 H     30  27  18     2.069922099999   108.61125824   301.65869014
 H     21   3   2     2.070076599880    90.17181458   160.91850925
 H     21   3   2     2.066035082482    90.08509930    55.00215557
 H     33  30  27     2.069967439602   108.78969663   291.25991339
 H     33  30  27     2.069918390037   108.62394524   176.14504675

---------------------
BASIS SET INFORMATION
---------------------
There are 5 groups of distinct atoms

 Group   1 Type C   : 11s6p2d1f contracted to 5s3p2d1f pattern {62111/411/11/1}
 Group   2 Type N   : 11s6p2d1f contracted to 5s3p2d1f pattern {62111/411/11/1}
 Group   3 Type H   : 5s1p contracted to 3s1p pattern {311/1}
 Group   4 Type F   : 11s6p2d1f contracted to 5s3p2d1f pattern {62111/411/11/1}
 Group   5 Type O   : 11s6p2d1f contracted to 5s3p2d1f pattern {62111/411/11/1}

Atom   0C    basis set group =>   1
Atom   1N    basis set group =>   2
Atom   2C    basis set group =>   1
Atom   3C    basis set group =>   1
Atom   4H    basis set group =>   3
Atom   5H    basis set group =>   3
Atom   6C    basis set group =>   1
Atom   7C    basis set group =>   1
Atom   8C    basis set group =>   1
Atom   9N    basis set group =>   2
Atom  10H    basis set group =>   3
Atom  11H    basis set group =>   3
Atom  12H    basis set group =>   3
Atom  13H    basis set group =>   3
Atom  14H    basis set group =>   3
Atom  15F    basis set group =>   4
Atom  16O    basis set group =>   5
Atom  17C    basis set group =>   1
Atom  18H    basis set group =>   3
Atom  19H    basis set group =>   3
Atom  20C    basis set group =>   1
Atom  21C    basis set group =>   1
Atom  22H    basis set group =>   3
Atom  23H    basis set group =>   3
Atom  24H    basis set group =>   3
Atom  25H    basis set group =>   3
Atom  26C    basis set group =>   1
Atom  27H    basis set group =>   3
Atom  28H    basis set group =>   3
Atom  29C    basis set group =>   1
Atom  30H    basis set group =>   3
Atom  31H    basis set group =>   3
Atom  32C    basis set group =>   1
Atom  33H    basis set group =>   3
Atom  34H    basis set group =>   3
Atom  35H    basis set group =>   3
Atom  36H    basis set group =>   3
Atom  37H    basis set group =>   3
Atom  38H    basis set group =>   3
---------------------------------
AUXILIARY/J BASIS SET INFORMATION
---------------------------------
There are 5 groups of distinct atoms

 Group   1 Type C   : 12s5p4d2f1g contracted to 6s4p3d1f1g pattern {711111/2111/211/2/1}
 Group   2 Type N   : 12s5p4d2f1g contracted to 6s4p3d1f1g pattern {711111/2111/211/2/1}
 Group   3 Type H   : 5s2p1d contracted to 3s1p1d pattern {311/2/1}
 Group   4 Type F   : 12s5p4d2f1g contracted to 6s4p3d1f1g pattern {711111/2111/211/2/1}
 Group   5 Type O   : 12s5p4d2f1g contracted to 6s4p3d1f1g pattern {711111/2111/211/2/1}

Atom   0C    basis set group =>   1
Atom   1N    basis set group =>   2
Atom   2C    basis set group =>   1
Atom   3C    basis set group =>   1
Atom   4H    basis set group =>   3
Atom   5H    basis set group =>   3
Atom   6C    basis set group =>   1
Atom   7C    basis set group =>   1
Atom   8C    basis set group =>   1
Atom   9N    basis set group =>   2
Atom  10H    basis set group =>   3
Atom  11H    basis set group =>   3
Atom  12H    basis set group =>   3
Atom  13H    basis set group =>   3
Atom  14H    basis set group =>   3
Atom  15F    basis set group =>   4
Atom  16O    basis set group =>   5
Atom  17C    basis set group =>   1
Atom  18H    basis set group =>   3
Atom  19H    basis set group =>   3
Atom  20C    basis set group =>   1
Atom  21C    basis set group =>   1
Atom  22H    basis set group =>   3
Atom  23H    basis set group =>   3
Atom  24H    basis set group =>   3
Atom  25H    basis set group =>   3
Atom  26C    basis set group =>   1
Atom  27H    basis set group =>   3
Atom  28H    basis set group =>   3
Atom  29C    basis set group =>   1
Atom  30H    basis set group =>   3
Atom  31H    basis set group =>   3
Atom  32C    basis set group =>   1
Atom  33H    basis set group =>   3
Atom  34H    basis set group =>   3
Atom  35H    basis set group =>   3
Atom  36H    basis set group =>   3
Atom  37H    basis set group =>   3
Atom  38H    basis set group =>   3


           ************************************************************
           *        Program running with 18 parallel MPI-processes    *
           *              working on a common directory               *
           ************************************************************
------------------------------------------------------------------------------
                           ORCA GTO INTEGRAL CALCULATION
                           -- RI-GTO INTEGRALS CHOSEN --
------------------------------------------------------------------------------
------------------------------------------------------------------------------
                   ___                                                        
                  /   \      - P O W E R E D   B Y -                         
                 /     \                                                     
                 |  |  |   _    _      __       _____    __    __             
                 |  |  |  | |  | |    /  \     |  _  \  |  |  /  |          
                  \  \/   | |  | |   /    \    | | | |  |  | /  /          
                 / \  \   | |__| |  /  /\  \   | |_| |  |  |/  /          
                |  |  |   |  __  | /  /__\  \  |    /   |      \           
                |  |  |   | |  | | |   __   |  |    \   |  |\   \          
                \     /   | |  | | |  |  |  |  | |\  \  |  | \   \       
                 \___/    |_|  |_| |__|  |__|  |_| \__\ |__|  \__/        
                                                                              
                      - O R C A' S   B I G   F R I E N D -                    
                                      &                                       
                       - I N T E G R A L  F E E D E R -                       
                                                                              
 v1 FN, 2020, v2 2021                                                         
------------------------------------------------------------------------------


Reading SHARK input file B3LYP_D2_wb97.SHARKINP.tmp ... ok
----------------------
SHARK INTEGRAL PACKAGE
----------------------

Number of atoms                             ...     39
Number of basis functions                   ...    634
Number of shells                            ...    268
Maximum angular momentum                    ...      3
Integral batch strategy                     ... SHARK/LIBINT Hybrid
RI-J (if used) integral strategy            ... SPLIT-RIJ (Revised 2003 algorithm where possible)
Printlevel                                  ...      1
Contraction scheme used                     ... SEGMENTED contraction
Coulomb Range Separation                    ... NOT USED
Exchange Range Separation                   ... NOT USED
Finite Nucleus Model                        ... NOT USED
Auxiliary Coulomb fitting basis             ... AVAILABLE
   # of basis functions in Aux-J            ...   1037
   # of shells in Aux-J                     ...    355
   Maximum angular momentum in Aux-J        ...      4
Auxiliary J/K fitting basis                 ... NOT available
Auxiliary Correlation fitting basis         ... NOT available
Auxiliary 'external' fitting basis          ... NOT available
Integral threshold                          ...     2.500000e-11
Primitive cut-off                           ...     2.500000e-12
Primitive pair pre-selection threshold      ...     2.500000e-12

Calculating pre-screening integrals         ... done (  0.2 sec) Dimension = 268
Organizing shell pair data                  ... done (  0.2 sec)
Shell pair information
Total number of shell pairs                 ...     36046
Shell pairs after pre-screening             ...     28557
Total number of primitive shell pairs       ...    105532
Primitive shell pairs kept                  ...     57502
          la=0 lb=0:   8743 shell pairs
          la=1 lb=0:   8523 shell pairs
          la=1 lb=1:   2130 shell pairs
          la=2 lb=0:   3731 shell pairs
          la=2 lb=1:   1858 shell pairs
          la=2 lb=2:    440 shell pairs
          la=3 lb=0:   1751 shell pairs
          la=3 lb=1:    888 shell pairs
          la=3 lb=2:    396 shell pairs
          la=3 lb=3:     97 shell pairs

Calculating one electron integrals          ... done (  0.0 sec)
Calculating RI/J V-Matrix + Cholesky decomp.... done (  0.3 sec)
Calculating Nuclear repulsion               ... done (  0.0 sec) ENN=   1242.575545353116 Eh

SHARK setup successfully completed in   1.0 seconds

Maximum memory used throughout the entire GTOINT-calculation: 42.2 MB


           ************************************************************
           *        Program running with 18 parallel MPI-processes    *
           *              working on a common directory               *
           ************************************************************
-------------------------------------------------------------------------------
                                 ORCA SCF
-------------------------------------------------------------------------------

------------
SCF SETTINGS
------------
Hamiltonian:
 Density Functional     Method          .... DFT(GTOs)
 Exchange Functional    Exchange        .... B88
   X-Alpha parameter    XAlpha          ....  0.666667
   Becke's b parameter  XBeta           ....  0.004200
 Correlation Functional Correlation     .... LYP
 LDA part of GGA corr.  LDAOpt          .... VWN-5
 Gradients option       PostSCFGGA      .... off
 Hybrid DFT is turned on
   Fraction HF Exchange ScalHFX         ....  0.200000
   Scaling of DF-GGA-X  ScalDFX         ....  0.720000
   Scaling of DF-GGA-C  ScalDFC         ....  0.810000
   Scaling of DF-LDA-C  ScalLDAC        ....  1.000000
   Perturbative correction              ....  0.000000
   Density functional embedding theory  .... OFF
   NL short-range parameter             ....  4.800000
 RI-approximation to the Coulomb term is turned on
   Number of AuxJ basis functions       .... 1037
   RIJ-COSX (HFX calculated with COS-X)).... on


General Settings:
 Integral files         IntName         .... B3LYP_D2_wb97
 Hartree-Fock type      HFTyp           .... RHF
 Total Charge           Charge          ....    0
 Multiplicity           Mult            ....    1
 Number of Electrons    NEL             ....  126
 Basis Dimension        Dim             ....  634
 Nuclear Repulsion      ENuc            ....   1242.5755453531 Eh

Convergence Acceleration:
 DIIS                   CNVDIIS         .... on
   Start iteration      DIISMaxIt       ....    12
   Startup error        DIISStart       ....  0.200000
   # of expansion vecs  DIISMaxEq       ....     5
   Bias factor          DIISBfac        ....   1.050
   Max. coefficient     DIISMaxC        ....  10.000
 Trust-Rad. Augm. Hess. CNVTRAH         .... auto
   Auto Start mean grad. ratio tolernc. ....  1.125000
   Auto Start start iteration           ....    20
   Auto Start num. interpolation iter.  ....    10
   Max. Number of Micro iterations      ....    16
   Max. Number of Macro iterations      .... Maxiter - #DIIS iter
   Number of Davidson start vectors     ....     2
   Converg. threshold I  (grad. norm)   ....   1.000e-05
   Converg. threshold II (energy diff.) ....   1.000e-08
   Grad. Scal. Fac. for Micro threshold ....   0.100
   Minimum threshold for Micro iter.    ....   0.010
   NR start threshold (gradient norm)   ....   0.001
   Initial trust radius                 ....   0.400
   Minimum AH scaling param. (alpha)    ....   1.000
   Maximum AH scaling param. (alpha)    .... 1000.000
   Orbital update algorithm             .... Taylor
   White noise on init. David. guess    .... on
   Maximum white noise                  ....   0.010
   Quad. conv. algorithm                .... NR
 SOSCF                  CNVSOSCF        .... on
   Start iteration      SOSCFMaxIt      ....   150
   Startup grad/error   SOSCFStart      ....  0.003300
 Level Shifting         CNVShift        .... on
   Level shift para.    LevelShift      ....    0.2500
   Turn off err/grad.   ShiftErr        ....    0.0010
 Zerner damping         CNVZerner       .... off
 Static damping         CNVDamp         .... on
   Fraction old density DampFac         ....    0.7000
   Max. Damping (<1)    DampMax         ....    0.9800
   Min. Damping (>=0)   DampMin         ....    0.0000
   Turn off err/grad.   DampErr         ....    0.1000
 Fernandez-Rico         CNVRico         .... off

SCF Procedure:
 Maximum # iterations   MaxIter         ....   150
 SCF integral mode      SCFMode         .... Direct
   Integral package                     .... SHARK and LIBINT hybrid scheme
 Reset frequency        DirectResetFreq ....    20
 Integral Threshold     Thresh          ....  2.500e-11 Eh
 Primitive CutOff       TCut            ....  2.500e-12 Eh

Convergence Tolerance:
 Convergence Check Mode ConvCheckMode   .... Total+1el-Energy
 Convergence forced     ConvForced      .... 0
 Energy Change          TolE            ....  1.000e-08 Eh
 1-El. energy change                    ....  1.000e-05 Eh
 Orbital Gradient       TolG            ....  1.000e-05
 Orbital Rotation angle TolX            ....  1.000e-05
 DIIS Error             TolErr          ....  5.000e-07


Diagonalization of the overlap matrix:
Smallest eigenvalue                        ... 6.449e-05
Time for diagonalization                   ...    0.129 sec
Threshold for overlap eigenvalues          ... 1.000e-08
Number of eigenvalues below threshold      ... 0
Time for construction of square roots      ...    0.303 sec
Total time needed                          ...    0.437 sec

Time for model grid setup =    0.278 sec

------------------------------
INITIAL GUESS: MODEL POTENTIAL
------------------------------
Loading Hartree-Fock densities                     ... done
Calculating cut-offs                               ... done
Initializing the effective Hamiltonian             ... done
Setting up the integral package (SHARK)            ... done
Starting the Coulomb interaction                   ... done (   0.4 sec)
Reading the grid                                   ... done
Mapping shells                                     ... done
Starting the XC term evaluation                    ... done (   0.2 sec)
  promolecular density results
     # of electrons  =    125.994701096
     EX              =   -100.108488927
     EC              =     -4.234866245
     EX+EC           =   -104.343355173
Transforming the Hamiltonian                       ... done (   0.1 sec)
Diagonalizing the Hamiltonian                      ... done (   0.1 sec)
Back transforming the eigenvectors                 ... done (   0.0 sec)
Now organizing SCF variables                       ... done
                      ------------------
                      INITIAL GUESS DONE (   1.1 sec)
                      ------------------
-------------------
DFT GRID GENERATION
-------------------

General Integration Accuracy     IntAcc      ... 4.388
Radial Grid Type                 RadialGrid  ... OptM3 with GC (2021)
Angular Grid (max. ang.)         AngularGrid ... 4 (Lebedev-302)
Angular grid pruning method      GridPruning ... 4 (adaptive)
Weight generation scheme         WeightScheme... Becke
Basis function cutoff            BFCut       ... 1.0000e-11
Integration weight cutoff        WCut        ... 1.0000e-14
Angular grids for H and He will be reduced by one unit
Partially contracted basis set               ... off
Rotationally invariant grid construction     ... off

Total number of grid points                  ...   168219
Total number of batches                      ...     2646
Average number of points per batch           ...       63
Average number of grid points per atom       ...     4313
Time for grid setup =    1.407 sec

--------------------
COSX GRID GENERATION
--------------------

GRIDX 1
-------
General Integration Accuracy     IntAcc      ... 3.816
Radial Grid Type                 RadialGrid  ... OptM3 with GC (2021)
Angular Grid (max. ang.)         AngularGrid ... 1 (Lebedev-50)
Angular grid pruning method      GridPruning ... 4 (adaptive)
Weight generation scheme         WeightScheme... Becke
Basis function cutoff            BFCut       ... 1.0000e-11
Integration weight cutoff        WCut        ... 1.0000e-14
Angular grids for H and He will be reduced by one unit
Partially contracted basis set               ... on
Rotationally invariant grid construction     ... off

Total number of grid points                  ...    21406
Total number of batches                      ...      360
Average number of points per batch           ...       59
Average number of grid points per atom       ...      549
UseSFitting                                  ... on

GRIDX 2
-------
General Integration Accuracy     IntAcc      ... 4.020
Radial Grid Type                 RadialGrid  ... OptM3 with GC (2021)
Angular Grid (max. ang.)         AngularGrid ... 2 (Lebedev-110)
Angular grid pruning method      GridPruning ... 4 (adaptive)
Weight generation scheme         WeightScheme... Becke
Basis function cutoff            BFCut       ... 1.0000e-11
Integration weight cutoff        WCut        ... 1.0000e-14
Angular grids for H and He will be reduced by one unit
Partially contracted basis set               ... on
Rotationally invariant grid construction     ... off

Total number of grid points                  ...    44806
Total number of batches                      ...      723
Average number of points per batch           ...       61
Average number of grid points per atom       ...     1149
UseSFitting                                  ... on

GRIDX 3
-------
General Integration Accuracy     IntAcc      ... 4.338
Radial Grid Type                 RadialGrid  ... OptM3 with GC (2021)
Angular Grid (max. ang.)         AngularGrid ... 3 (Lebedev-194)
Angular grid pruning method      GridPruning ... 4 (adaptive)
Weight generation scheme         WeightScheme... Becke
Basis function cutoff            BFCut       ... 1.0000e-11
Integration weight cutoff        WCut        ... 1.0000e-14
Angular grids for H and He will be reduced by one unit
Partially contracted basis set               ... on
Rotationally invariant grid construction     ... off

Total number of grid points                  ...    97371
Total number of batches                      ...     1539
Average number of points per batch           ...       63
Average number of grid points per atom       ...     2497
UseSFitting                                  ... on

Time for X-Grid setup             =    1.592 sec

--------------
SCF ITERATIONS
--------------
ITER       Energy         Delta-E        Max-DP      RMS-DP      [F,P]     Damp
               ***  Starting incremental Fock matrix formation  ***
  0   -754.7652426988   0.000000000000 0.10606581  0.00101041  0.2801982 0.7000
  1   -755.1072905903  -0.342047891516 0.08689813  0.00082153  0.1384216 0.7000
                               ***Turning on DIIS***
  2   -755.2336798006  -0.126389210319 0.09312546  0.00132903  0.0489511 0.0000
  3   -755.4284754866  -0.194795685983 0.08641613  0.00066347  0.0844334 0.0000
  4   -755.4784485740  -0.049973087412 0.02381690  0.00026274  0.0236106 0.0000
  5   -755.4817810123  -0.003332438264 0.00956249  0.00010725  0.0174351 0.0000
                      *** Initiating the SOSCF procedure ***
                           *** Shutting down DIIS ***
                      *** Re-Reading the Fockian *** 
                      *** Removing any level shift *** 
ITER      Energy       Delta-E        Grad      Rot      Max-DP    RMS-DP
  6   -755.48229576  -0.0005147450  0.000775  0.000775  0.004107  0.000048
               *** Restarting incremental Fock matrix formation ***
  7   -755.48233948  -0.0000437202  0.000609  0.007888  0.005974  0.000054
  8   -755.48235279  -0.0000133146  0.000321  0.004836  0.002831  0.000028
  9   -755.48235397  -0.0000011734  0.000289  0.002131  0.001918  0.000018
 10   -755.48235665  -0.0000026810  0.000038  0.000289  0.000261  0.000003
 11   -755.48235659   0.0000000572  0.000030  0.000253  0.000175  0.000002
 12   -755.48235674  -0.0000001550  0.000014  0.000055  0.000042  0.000001
 13   -755.48235674   0.0000000033  0.000026  0.000037  0.000031  0.000000
                  ***Gradient check signals convergence***
              ***Rediagonalizing the Fockian in SOSCF/NRSCF***

               *****************************************************
               *                     SUCCESS                       *
               *           SCF CONVERGED AFTER  14 CYCLES          *
               *****************************************************

Old exchange energy                            =    -20.439268803 Eh
New exchange energy                            =    -20.439295045 Eh
Exchange energy change after final integration =     -0.000026242 Eh
Total energy after final integration           =   -755.482382997 Eh
Final COS-X integration done in                =     8.930 sec

----------------
TOTAL SCF ENERGY
----------------

Total Energy       :         -755.48238300 Eh          -20557.72078 eV

Components:
Nuclear Repulsion  :         1242.57554535 Eh           33812.19957 eV
Electronic Energy  :        -1998.05792835 Eh          -54369.92034 eV
One Electron Energy:        -3495.06720456 Eh          -95105.61371 eV
Two Electron Energy:         1497.00927621 Eh           40735.69337 eV
Max COSX asymmetry :            0.00000209 Eh               0.00006 eV

Virial components:
Potential Energy   :        -1508.39475198 Eh          -41045.50791 eV
Kinetic Energy     :          752.91236898 Eh           20487.78714 eV
Virial Ratio       :            2.00341343


DFT components:
N(Alpha)           :       63.000022343310 electrons
N(Beta)            :       63.000022343310 electrons
N(Total)           :      126.000044686620 electrons
E(X)               :      -81.146194420980 Eh       
E(C)               :       -4.989477168214 Eh       
E(XC)              :      -86.135671589194 Eh       
DFET-embed. en.    :        0.000000000000 Eh       

---------------
SCF CONVERGENCE
---------------

  Last Energy change         ...   -1.4118e-08  Tolerance :   1.0000e-08
  Last MAX-Density change    ...    1.6653e-15  Tolerance :   1.0000e-07
  Last RMS-Density change    ...    1.2105e-17  Tolerance :   5.0000e-09
  Last Orbital Gradient      ...    2.4357e-06  Tolerance :   1.0000e-05
  Last Orbital Rotation      ...    7.5595e-06  Tolerance :   1.0000e-05

             **** THE GBW FILE WAS UPDATED (B3LYP_D2_wb97.gbw) ****
             **** DENSITY B3LYP_D2_wb97.scfp WAS UPDATED ****
             **** ENERGY FILE WAS UPDATED (B3LYP_D2_wb97.en.tmp) ****
             **** THE GBW FILE WAS UPDATED (B3LYP_D2_wb97.gbw) ****
             **** DENSITY B3LYP_D2_wb97.scfp WAS UPDATED ****
----------------
ORBITAL ENERGIES
----------------

  NO   OCC          E(Eh)            E(eV) 
   0   2.0000     -24.791803      -674.6192 
   1   2.0000     -19.166946      -521.5591 
   2   2.0000     -14.294216      -388.9654 
   3   2.0000     -14.272552      -388.3759 
   4   2.0000     -10.381723      -282.5010 
   5   2.0000     -10.217675      -278.0371 
   6   2.0000     -10.195403      -277.4310 
   7   2.0000     -10.191058      -277.3128 
   8   2.0000     -10.187495      -277.2158 
   9   2.0000     -10.179483      -276.9978 
  10   2.0000     -10.174418      -276.8600 
  11   2.0000     -10.167951      -276.6840 
  12   2.0000     -10.161765      -276.5157 
  13   2.0000     -10.160035      -276.4686 
  14   2.0000     -10.151432      -276.2345 
  15   2.0000     -10.057374      -273.6751 
  16   2.0000      -1.362612       -37.0786 
  17   2.0000      -1.076374       -29.2896 
  18   2.0000      -0.948760       -25.8171 
  19   2.0000      -0.863539       -23.4981 
  20   2.0000      -0.841412       -22.8960 
  21   2.0000      -0.810475       -22.0542 
  22   2.0000      -0.776470       -21.1288 
  23   2.0000      -0.743429       -20.2297 
  24   2.0000      -0.715471       -19.4690 
  25   2.0000      -0.692170       -18.8349 
  26   2.0000      -0.678393       -18.4600 
  27   2.0000      -0.654558       -17.8114 
  28   2.0000      -0.619725       -16.8636 
  29   2.0000      -0.598381       -16.2828 
  30   2.0000      -0.588916       -16.0252 
  31   2.0000      -0.579211       -15.7611 
  32   2.0000      -0.567236       -15.4353 
  33   2.0000      -0.550816       -14.9885 
  34   2.0000      -0.534073       -14.5329 
  35   2.0000      -0.511953       -13.9309 
  36   2.0000      -0.496757       -13.5174 
  37   2.0000      -0.487102       -13.2547 
  38   2.0000      -0.486614       -13.2414 
  39   2.0000      -0.468374       -12.7451 
  40   2.0000      -0.453548       -12.3417 
  41   2.0000      -0.446672       -12.1546 
  42   2.0000      -0.434577       -11.8254 
  43   2.0000      -0.427460       -11.6318 
  44   2.0000      -0.419350       -11.4111 
  45   2.0000      -0.408945       -11.1279 
  46   2.0000      -0.402727       -10.9588 
  47   2.0000      -0.392875       -10.6907 
  48   2.0000      -0.381260       -10.3746 
  49   2.0000      -0.377127       -10.2622 
  50   2.0000      -0.369647       -10.0586 
  51   2.0000      -0.363528        -9.8921 
  52   2.0000      -0.359536        -9.7835 
  53   2.0000      -0.350317        -9.5326 
  54   2.0000      -0.343503        -9.3472 
  55   2.0000      -0.338879        -9.2214 
  56   2.0000      -0.330347        -8.9892 
  57   2.0000      -0.319701        -8.6995 
  58   2.0000      -0.318848        -8.6763 
  59   2.0000      -0.315515        -8.5856 
  60   2.0000      -0.311308        -8.4711 
  61   2.0000      -0.226250        -6.1566 
  62   2.0000      -0.142308        -3.8724 
  63   0.0000      -0.066218        -1.8019 
  64   0.0000       0.018046         0.4910 
  65   0.0000       0.038155         1.0382 
  66   0.0000       0.040292         1.0964 
  67   0.0000       0.045980         1.2512 
  68   0.0000       0.061878         1.6838 
  69   0.0000       0.066644         1.8135 
  70   0.0000       0.070002         1.9049 
  71   0.0000       0.077421         2.1067 
  72   0.0000       0.080236         2.1833 
  73   0.0000       0.092133         2.5071 
  74   0.0000       0.094021         2.5584 
  75   0.0000       0.103230         2.8090 
  76   0.0000       0.107805         2.9335 
  77   0.0000       0.112545         3.0625 
  78   0.0000       0.114810         3.1241 
  79   0.0000       0.118384         3.2214 
  80   0.0000       0.123295         3.3550 
  81   0.0000       0.130272         3.5449 
  82   0.0000       0.140408         3.8207 
  83   0.0000       0.141694         3.8557 
  84   0.0000       0.146482         3.9860 
  85   0.0000       0.153407         4.1744 
  86   0.0000       0.159192         4.3318 
  87   0.0000       0.161744         4.4013 
  88   0.0000       0.170577         4.6416 
  89   0.0000       0.175646         4.7796 
  90   0.0000       0.178308         4.8520 
  91   0.0000       0.185203         5.0396 
  92   0.0000       0.194106         5.2819 
  93   0.0000       0.195636         5.3235 
  94   0.0000       0.200136         5.4460 
  95   0.0000       0.205767         5.5992 
  96   0.0000       0.213915         5.8209 
  97   0.0000       0.217521         5.9191 
  98   0.0000       0.222914         6.0658 
  99   0.0000       0.226780         6.1710 
 100   0.0000       0.237650         6.4668 
 101   0.0000       0.243690         6.6311 
 102   0.0000       0.251136         6.8338 
 103   0.0000       0.261086         7.1045 
 104   0.0000       0.263544         7.1714 
 105   0.0000       0.270257         7.3541 
 106   0.0000       0.276350         7.5199 
 107   0.0000       0.280110         7.6222 
 108   0.0000       0.282470         7.6864 
 109   0.0000       0.285921         7.7803 
 110   0.0000       0.293435         7.9848 
 111   0.0000       0.301620         8.2075 
 112   0.0000       0.309402         8.4193 
 113   0.0000       0.322745         8.7823 
 114   0.0000       0.325196         8.8490 
 115   0.0000       0.334607         9.1051 
 116   0.0000       0.340217         9.2578 
 117   0.0000       0.346444         9.4272 
 118   0.0000       0.353820         9.6279 
 119   0.0000       0.362523         9.8648 
 120   0.0000       0.363737         9.8978 
 121   0.0000       0.370157        10.0725 
 122   0.0000       0.379685        10.3318 
 123   0.0000       0.380395        10.3511 
 124   0.0000       0.386325        10.5124 
 125   0.0000       0.395484        10.7617 
 126   0.0000       0.396743        10.7959 
 127   0.0000       0.398571        10.8457 
 128   0.0000       0.405025        11.0213 
 129   0.0000       0.409226        11.1356 
 130   0.0000       0.420710        11.4481 
 131   0.0000       0.423336        11.5196 
 132   0.0000       0.429651        11.6914 
 133   0.0000       0.432737        11.7754 
 134   0.0000       0.434037        11.8108 
 135   0.0000       0.438132        11.9222 
 136   0.0000       0.440304        11.9813 
 137   0.0000       0.444298        12.0900 
 138   0.0000       0.446880        12.1602 
 139   0.0000       0.450242        12.2517 
 140   0.0000       0.452374        12.3097 
 141   0.0000       0.456353        12.4180 
 142   0.0000       0.461047        12.5457 
 143   0.0000       0.463112        12.6019 
 144   0.0000       0.466481        12.6936 
 145   0.0000       0.471437        12.8285 
 146   0.0000       0.477446        12.9920 
 147   0.0000       0.481539        13.1033 
 148   0.0000       0.483847        13.1662 
 149   0.0000       0.487778        13.2731 
 150   0.0000       0.493102        13.4180 
 151   0.0000       0.501742        13.6531 
 152   0.0000       0.506495        13.7824 
 153   0.0000       0.512456        13.9446 
 154   0.0000       0.520528        14.1643 
 155   0.0000       0.524265        14.2660 
 156   0.0000       0.534372        14.5410 
 157   0.0000       0.541694        14.7402 
 158   0.0000       0.546973        14.8839 
 159   0.0000       0.557111        15.1598 
 160   0.0000       0.568125        15.4595 
 161   0.0000       0.569150        15.4874 
 162   0.0000       0.578520        15.7423 
 163   0.0000       0.583019        15.8648 
 164   0.0000       0.591780        16.1032 
 165   0.0000       0.604468        16.4484 
 166   0.0000       0.614470        16.7206 
 167   0.0000       0.622798        16.9472 
 168   0.0000       0.626528        17.0487 
 169   0.0000       0.636996        17.3335 
 170   0.0000       0.645011        17.5517 
 171   0.0000       0.650185        17.6924 
 172   0.0000       0.659356        17.9420 
 173   0.0000       0.673749        18.3336 
 174   0.0000       0.679643        18.4940 
 175   0.0000       0.687260        18.7013 
 176   0.0000       0.709053        19.2943 
 177   0.0000       0.716908        19.5081 
 178   0.0000       0.721407        19.6305 
 179   0.0000       0.730157        19.8686 
 180   0.0000       0.738988        20.1089 
 181   0.0000       0.747503        20.3406 
 182   0.0000       0.756974        20.5983 
 183   0.0000       0.758131        20.6298 
 184   0.0000       0.770609        20.9694 
 185   0.0000       0.773045        21.0356 
 186   0.0000       0.783136        21.3102 
 187   0.0000       0.788252        21.4494 
 188   0.0000       0.803458        21.8632 
 189   0.0000       0.810085        22.0435 
 190   0.0000       0.822180        22.3727 
 191   0.0000       0.828798        22.5527 
 192   0.0000       0.837270        22.7833 
 193   0.0000       0.845973        23.0201 
 194   0.0000       0.870700        23.6929 
 195   0.0000       0.881801        23.9950 
 196   0.0000       0.884265        24.0621 
 197   0.0000       0.889315        24.1995 
 198   0.0000       0.896469        24.3942 
 199   0.0000       0.906914        24.6784 
 200   0.0000       0.919107        25.0102 
 201   0.0000       0.926408        25.2088 
 202   0.0000       0.936598        25.4861 
 203   0.0000       0.939036        25.5525 
 204   0.0000       0.955439        25.9988 
 205   0.0000       0.964936        26.2572 
 206   0.0000       0.969808        26.3898 
 207   0.0000       0.973412        26.4879 
 208   0.0000       0.991357        26.9762 
 209   0.0000       0.997956        27.1558 
 210   0.0000       1.008607        27.4456 
 211   0.0000       1.019262        27.7355 
 212   0.0000       1.025471        27.9045 
 213   0.0000       1.026936        27.9444 
 214   0.0000       1.056952        28.7611 
 215   0.0000       1.059029        28.8176 
 216   0.0000       1.059512        28.8308 
 217   0.0000       1.077838        29.3295 
 218   0.0000       1.093863        29.7655 
 219   0.0000       1.097543        29.8657 
 220   0.0000       1.108944        30.1759 
 221   0.0000       1.113312        30.2947 
 222   0.0000       1.119602        30.4659 
 223   0.0000       1.128795        30.7161 
 224   0.0000       1.140437        31.0329 
 225   0.0000       1.156465        31.4690 
 226   0.0000       1.167194        31.7610 
 227   0.0000       1.170900        31.8618 
 228   0.0000       1.179740        32.1024 
 229   0.0000       1.183531        32.2055 
 230   0.0000       1.195056        32.5191 
 231   0.0000       1.199413        32.6377 
 232   0.0000       1.216034        33.0900 
 233   0.0000       1.221865        33.2486 
 234   0.0000       1.229094        33.4453 
 235   0.0000       1.236958        33.6594 
 236   0.0000       1.244387        33.8615 
 237   0.0000       1.251322        34.0502 
 238   0.0000       1.267637        34.4942 
 239   0.0000       1.273086        34.6424 
 240   0.0000       1.274339        34.6765 
 241   0.0000       1.295478        35.2518 
 242   0.0000       1.305221        35.5169 
 243   0.0000       1.318332        35.8736 
 244   0.0000       1.324860        36.0513 
 245   0.0000       1.335121        36.3305 
 246   0.0000       1.346584        36.6424 
 247   0.0000       1.365048        37.1448 
 248   0.0000       1.382364        37.6160 
 249   0.0000       1.392016        37.8787 
 250   0.0000       1.396465        37.9998 
 251   0.0000       1.414805        38.4988 
 252   0.0000       1.424009        38.7493 
 253   0.0000       1.437403        39.1137 
 254   0.0000       1.479301        40.2538 
 255   0.0000       1.490326        40.5538 
 256   0.0000       1.503435        40.9105 
 257   0.0000       1.511665        41.1345 
 258   0.0000       1.517448        41.2919 
 259   0.0000       1.522751        41.4362 
 260   0.0000       1.530462        41.6460 
 261   0.0000       1.543149        41.9912 
 262   0.0000       1.550203        42.1832 
 263   0.0000       1.559436        42.4344 
 264   0.0000       1.562327        42.5131 
 265   0.0000       1.564596        42.5748 
 266   0.0000       1.576568        42.9006 
 267   0.0000       1.586267        43.1645 
 268   0.0000       1.589926        43.2641 
 269   0.0000       1.600621        43.5551 
 270   0.0000       1.603569        43.6353 
 271   0.0000       1.618333        44.0371 
 272   0.0000       1.619043        44.0564 
 273   0.0000       1.625632        44.2357 
 274   0.0000       1.628244        44.3068 
 275   0.0000       1.634531        44.4778 
 276   0.0000       1.638539        44.5869 
 277   0.0000       1.649720        44.8912 
 278   0.0000       1.656934        45.0875 
 279   0.0000       1.665654        45.3247 
 280   0.0000       1.682754        45.7901 
 281   0.0000       1.688333        45.9419 
 282   0.0000       1.697225        46.1839 
 283   0.0000       1.701348        46.2960 
 284   0.0000       1.724638        46.9298 
 285   0.0000       1.731115        47.1060 
 286   0.0000       1.743091        47.4319 
 287   0.0000       1.746406        47.5221 
 288   0.0000       1.752169        47.6789 
 289   0.0000       1.756196        47.7885 
 290   0.0000       1.777137        48.3584 
 291   0.0000       1.785790        48.5938 
 292   0.0000       1.797477        48.9118 
 293   0.0000       1.801206        49.0133 
 294   0.0000       1.814517        49.3755 
 295   0.0000       1.823347        49.6158 
 296   0.0000       1.830529        49.8112 
 297   0.0000       1.842363        50.1332 
 298   0.0000       1.850834        50.3638 
 299   0.0000       1.858948        50.5845 
 300   0.0000       1.864391        50.7327 
 301   0.0000       1.875307        51.0297 
 302   0.0000       1.887414        51.3592 
 303   0.0000       1.895076        51.5676 
 304   0.0000       1.904711        51.8298 
 305   0.0000       1.915464        52.1224 
 306   0.0000       1.916942        52.1626 
 307   0.0000       1.924164        52.3592 
 308   0.0000       1.948157        53.0121 
 309   0.0000       1.959279        53.3147 
 310   0.0000       1.963310        53.4244 
 311   0.0000       1.970220        53.6124 
 312   0.0000       1.983579        53.9759 
 313   0.0000       1.991643        54.1954 
 314   0.0000       1.998208        54.3740 
 315   0.0000       2.005228        54.5650 
 316   0.0000       2.024586        55.0918 
 317   0.0000       2.043149        55.5969 
 318   0.0000       2.047900        55.7262 
 319   0.0000       2.054127        55.8956 
 320   0.0000       2.066469        56.2315 
 321   0.0000       2.077016        56.5185 
 322   0.0000       2.081903        56.6514 
 323   0.0000       2.085519        56.7499 
 324   0.0000       2.102680        57.2168 
 325   0.0000       2.119108        57.6639 
 326   0.0000       2.130583        57.9761 
 327   0.0000       2.140192        58.2376 
 328   0.0000       2.150199        58.5099 
 329   0.0000       2.163261        58.8653 
 330   0.0000       2.175425        59.1963 
 331   0.0000       2.183641        59.4199 
 332   0.0000       2.207638        60.0729 
 333   0.0000       2.216778        60.3216 
 334   0.0000       2.224460        60.5306 
 335   0.0000       2.237236        60.8783 
 336   0.0000       2.249215        61.2043 
 337   0.0000       2.270060        61.7715 
 338   0.0000       2.278914        62.0124 
 339   0.0000       2.290398        62.3249 
 340   0.0000       2.305057        62.7238 
 341   0.0000       2.312965        62.9390 
 342   0.0000       2.327737        63.3409 
 343   0.0000       2.343062        63.7579 
 344   0.0000       2.347247        63.8718 
 345   0.0000       2.360742        64.2390 
 346   0.0000       2.378012        64.7090 
 347   0.0000       2.396300        65.2066 
 348   0.0000       2.410818        65.6017 
 349   0.0000       2.411779        65.6279 
 350   0.0000       2.420263        65.8587 
 351   0.0000       2.425093        65.9901 
 352   0.0000       2.431967        66.1772 
 353   0.0000       2.438147        66.3453 
 354   0.0000       2.456869        66.8548 
 355   0.0000       2.462151        66.9985 
 356   0.0000       2.468699        67.1767 
 357   0.0000       2.481709        67.5307 
 358   0.0000       2.491082        67.7858 
 359   0.0000       2.496529        67.9340 
 360   0.0000       2.508326        68.2550 
 361   0.0000       2.512057        68.3565 
 362   0.0000       2.528137        68.7941 
 363   0.0000       2.532804        68.9211 
 364   0.0000       2.538875        69.0863 
 365   0.0000       2.549487        69.3751 
 366   0.0000       2.554039        69.4989 
 367   0.0000       2.562151        69.7197 
 368   0.0000       2.569517        69.9201 
 369   0.0000       2.581581        70.2484 
 370   0.0000       2.590411        70.4887 
 371   0.0000       2.592875        70.5557 
 372   0.0000       2.598876        70.7190 
 373   0.0000       2.605320        70.8944 
 374   0.0000       2.610138        71.0255 
 375   0.0000       2.613986        71.1302 
 376   0.0000       2.625831        71.4525 
 377   0.0000       2.631599        71.6095 
 378   0.0000       2.640557        71.8532 
 379   0.0000       2.641088        71.8677 
 380   0.0000       2.649225        72.0891 
 381   0.0000       2.656812        72.2955 
 382   0.0000       2.668175        72.6047 
 383   0.0000       2.670986        72.6812 
 384   0.0000       2.680534        72.9411 
 385   0.0000       2.690966        73.2249 
 386   0.0000       2.699269        73.4508 
 387   0.0000       2.709593        73.7318 
 388   0.0000       2.711732        73.7900 
 389   0.0000       2.727569        74.2209 
 390   0.0000       2.729844        74.2828 
 391   0.0000       2.738563        74.5201 
 392   0.0000       2.745871        74.7189 
 393   0.0000       2.757203        75.0273 
 394   0.0000       2.757899        75.0462 
 395   0.0000       2.768530        75.3355 
 396   0.0000       2.773964        75.4834 
 397   0.0000       2.777626        75.5830 
 398   0.0000       2.788794        75.8870 
 399   0.0000       2.800796        76.2135 
 400   0.0000       2.804754        76.3212 
 401   0.0000       2.813895        76.5700 
 402   0.0000       2.821530        76.7777 
 403   0.0000       2.829755        77.0015 
 404   0.0000       2.831622        77.0523 
 405   0.0000       2.843041        77.3631 
 406   0.0000       2.857268        77.7502 
 407   0.0000       2.875181        78.2377 
 408   0.0000       2.880514        78.3828 
 409   0.0000       2.886903        78.5566 
 410   0.0000       2.912609        79.2561 
 411   0.0000       2.923888        79.5630 
 412   0.0000       2.929660        79.7201 
 413   0.0000       2.948021        80.2197 
 414   0.0000       2.966062        80.7106 
 415   0.0000       2.975369        80.9639 
 416   0.0000       2.985666        81.2441 
 417   0.0000       2.998961        81.6059 
 418   0.0000       3.012952        81.9866 
 419   0.0000       3.025345        82.3238 
 420   0.0000       3.034625        82.5763 
 421   0.0000       3.041048        82.7511 
 422   0.0000       3.054217        83.1095 
 423   0.0000       3.073368        83.6306 
 424   0.0000       3.079471        83.7967 
 425   0.0000       3.094661        84.2100 
 426   0.0000       3.097661        84.2916 
 427   0.0000       3.109728        84.6200 
 428   0.0000       3.129162        85.1488 
 429   0.0000       3.131208        85.2045 
 430   0.0000       3.145594        85.5960 
 431   0.0000       3.152947        85.7960 
 432   0.0000       3.159271        85.9681 
 433   0.0000       3.163735        86.0896 
 434   0.0000       3.171455        86.2997 
 435   0.0000       3.179738        86.5251 
 436   0.0000       3.185315        86.6768 
 437   0.0000       3.199573        87.0648 
 438   0.0000       3.202012        87.1312 
 439   0.0000       3.211862        87.3992 
 440   0.0000       3.216260        87.5189 
 441   0.0000       3.231257        87.9270 
 442   0.0000       3.237025        88.0839 
 443   0.0000       3.245154        88.3051 
 444   0.0000       3.250437        88.4489 
 445   0.0000       3.258473        88.6676 
 446   0.0000       3.264685        88.8366 
 447   0.0000       3.279217        89.2320 
 448   0.0000       3.294446        89.6464 
 449   0.0000       3.296488        89.7020 
 450   0.0000       3.305127        89.9371 
 451   0.0000       3.311932        90.1223 
 452   0.0000       3.313532        90.1658 
 453   0.0000       3.328274        90.5669 
 454   0.0000       3.339755        90.8793 
 455   0.0000       3.341180        90.9181 
 456   0.0000       3.343667        90.9858 
 457   0.0000       3.349140        91.1347 
 458   0.0000       3.357126        91.3520 
 459   0.0000       3.373948        91.8098 
 460   0.0000       3.378074        91.9221 
 461   0.0000       3.388045        92.1934 
 462   0.0000       3.394460        92.3679 
 463   0.0000       3.401215        92.5518 
 464   0.0000       3.409302        92.7718 
 465   0.0000       3.411723        92.8377 
 466   0.0000       3.428868        93.3043 
 467   0.0000       3.430745        93.3553 
 468   0.0000       3.436444        93.5104 
 469   0.0000       3.446186        93.7755 
 470   0.0000       3.457556        94.0849 
 471   0.0000       3.464713        94.2796 
 472   0.0000       3.479628        94.6855 
 473   0.0000       3.480440        94.7076 
 474   0.0000       3.494382        95.0870 
 475   0.0000       3.495652        95.1215 
 476   0.0000       3.513563        95.6089 
 477   0.0000       3.519353        95.7665 
 478   0.0000       3.532134        96.1142 
 479   0.0000       3.548689        96.5647 
 480   0.0000       3.550954        96.6264 
 481   0.0000       3.557434        96.8027 
 482   0.0000       3.562793        96.9485 
 483   0.0000       3.568976        97.1168 
 484   0.0000       3.588288        97.6423 
 485   0.0000       3.597246        97.8860 
 486   0.0000       3.602193        98.0207 
 487   0.0000       3.610608        98.2496 
 488   0.0000       3.623799        98.6086 
 489   0.0000       3.628298        98.7310 
 490   0.0000       3.631825        98.8270 
 491   0.0000       3.657267        99.5193 
 492   0.0000       3.665112        99.7328 
 493   0.0000       3.687608       100.3449 
 494   0.0000       3.697111       100.6035 
 495   0.0000       3.711434       100.9933 
 496   0.0000       3.731627       101.5427 
 497   0.0000       3.750637       102.0600 
 498   0.0000       3.758144       102.2643 
 499   0.0000       3.774154       102.7000 
 500   0.0000       3.805289       103.5472 
 501   0.0000       3.816059       103.8403 
 502   0.0000       3.820660       103.9654 
 503   0.0000       3.840497       104.5052 
 504   0.0000       3.845156       104.6320 
 505   0.0000       3.858592       104.9976 
 506   0.0000       3.870982       105.3348 
 507   0.0000       3.891075       105.8815 
 508   0.0000       3.894107       105.9640 
 509   0.0000       3.905529       106.2749 
 510   0.0000       3.917143       106.5909 
 511   0.0000       3.920910       106.6934 
 512   0.0000       3.939161       107.1900 
 513   0.0000       3.939390       107.1963 
 514   0.0000       3.959091       107.7323 
 515   0.0000       3.966406       107.9314 
 516   0.0000       3.990531       108.5879 
 517   0.0000       4.012541       109.1868 
 518   0.0000       4.023909       109.4961 
 519   0.0000       4.026826       109.5755 
 520   0.0000       4.036887       109.8493 
 521   0.0000       4.051435       110.2452 
 522   0.0000       4.058281       110.4314 
 523   0.0000       4.066321       110.6502 
 524   0.0000       4.088994       111.2672 
 525   0.0000       4.107657       111.7750 
 526   0.0000       4.146236       112.8248 
 527   0.0000       4.164440       113.3202 
 528   0.0000       4.169792       113.4658 
 529   0.0000       4.192331       114.0791 
 530   0.0000       4.203109       114.3724 
 531   0.0000       4.215181       114.7009 
 532   0.0000       4.236625       115.2844 
 533   0.0000       4.248634       115.6112 
 534   0.0000       4.283620       116.5632 
 535   0.0000       4.301617       117.0530 
 536   0.0000       4.312523       117.3497 
 537   0.0000       4.334365       117.9441 
 538   0.0000       4.352997       118.4511 
 539   0.0000       4.375984       119.0766 
 540   0.0000       4.390697       119.4769 
 541   0.0000       4.399192       119.7081 
 542   0.0000       4.404773       119.8600 
 543   0.0000       4.439002       120.7914 
 544   0.0000       4.466891       121.5503 
 545   0.0000       4.488259       122.1317 
 546   0.0000       4.503927       122.5581 
 547   0.0000       4.526398       123.1696 
 548   0.0000       4.531797       123.3165 
 549   0.0000       4.551825       123.8615 
 550   0.0000       4.577466       124.5592 
 551   0.0000       4.599225       125.1513 
 552   0.0000       4.600636       125.1897 
 553   0.0000       4.613938       125.5516 
 554   0.0000       4.632264       126.0503 
 555   0.0000       4.651605       126.5766 
 556   0.0000       4.679265       127.3293 
 557   0.0000       4.698114       127.8422 
 558   0.0000       4.706082       128.0590 
 559   0.0000       4.718623       128.4002 
 560   0.0000       4.729049       128.6840 
 561   0.0000       4.764527       129.6494 
 562   0.0000       4.768790       129.7654 
 563   0.0000       4.785314       130.2150 
 564   0.0000       4.799020       130.5880 
 565   0.0000       4.823204       131.2460 
 566   0.0000       4.849681       131.9665 
 567   0.0000       4.852210       132.0354 
 568   0.0000       4.859057       132.2217 
 569   0.0000       4.882822       132.8683 
 570   0.0000       4.964763       135.0981 
 571   0.0000       4.980878       135.5366 
 572   0.0000       4.982030       135.5679 
 573   0.0000       5.010648       136.3467 
 574   0.0000       5.055279       137.5611 
 575   0.0000       5.104900       138.9114 
 576   0.0000       5.112657       139.1225 
 577   0.0000       5.120505       139.3360 
 578   0.0000       5.163550       140.5073 
 579   0.0000       5.165324       140.5556 
 580   0.0000       5.182993       141.0364 
 581   0.0000       5.205465       141.6479 
 582   0.0000       5.222870       142.1215 
 583   0.0000       5.267629       143.3395 
 584   0.0000       5.287665       143.8847 
 585   0.0000       5.329552       145.0245 
 586   0.0000       5.378012       146.3431 
 587   0.0000       5.398526       146.9013 
 588   0.0000       5.446512       148.2071 
 589   0.0000       5.454239       148.4174 
 590   0.0000       5.483214       149.2058 
 591   0.0000       5.532249       150.5401 
 592   0.0000       5.627058       153.1200 
 593   0.0000       5.744800       156.3240 
 594   0.0000       5.816693       158.2803 
 595   0.0000       5.907171       160.7423 
 596   0.0000       5.998274       163.2213 
 597   0.0000       6.095204       165.8589 
 598   0.0000       6.156870       167.5370 
 599   0.0000       6.190361       168.4483 
 600   0.0000       6.258262       170.2960 
 601   0.0000       6.350916       172.8172 
 602   0.0000       6.554333       178.3525 
 603   0.0000       6.728332       183.0872 
 604   0.0000       6.771173       184.2530 
 605   0.0000       6.803760       185.1397 
 606   0.0000       6.873236       187.0303 
 607   0.0000       7.012902       190.8308 
 608   0.0000       7.032665       191.3685 
 609   0.0000       7.146952       194.4784 
 610   0.0000       7.290360       198.3808 
 611   0.0000       7.439662       202.4435 
 612   0.0000       7.775933       211.5939 
 613   0.0000       8.316827       226.3124 
 614   0.0000       8.444049       229.7743 
 615   0.0000       8.771694       238.6899 
 616   0.0000       8.966718       243.9968 
 617   0.0000       8.980295       244.3663 
 618   0.0000      22.416183       609.9754 
 619   0.0000      22.445462       610.7721 
 620   0.0000      22.461769       611.2158 
 621   0.0000      22.496023       612.1479 
 622   0.0000      22.507641       612.4640 
 623   0.0000      22.519086       612.7755 
 624   0.0000      22.563243       613.9771 
 625   0.0000      22.570053       614.1624 
 626   0.0000      22.582013       614.4878 
 627   0.0000      22.681615       617.1981 
 628   0.0000      23.216662       631.7575 
 629   0.0000      23.471816       638.7006 
 630   0.0000      32.146849       874.7602 
 631   0.0000      32.714189       890.1983 
 632   0.0000      43.862434      1193.5575 
 633   0.0000      57.279627      1558.6579 

                    ********************************
                    * MULLIKEN POPULATION ANALYSIS *
                    ********************************

-----------------------
MULLIKEN ATOMIC CHARGES
-----------------------
   0 C :   -0.110380
   1 N :   -0.309968
   2 C :   -0.136336
   3 C :   -0.196850
   4 H :    0.136863
   5 H :    0.125853
   6 C :    0.400594
   7 C :    0.325465
   8 C :   -0.518403
   9 N :   -0.464774
  10 H :    0.217025
  11 H :    0.235736
  12 H :    0.198363
  13 H :    0.063113
  14 H :    0.060754
  15 F :   -0.128756
  16 O :   -0.350783
  17 C :   -0.066066
  18 H :    0.092781
  19 H :    0.114262
  20 C :   -0.204773
  21 C :   -0.254007
  22 H :    0.133248
  23 H :    0.096175
  24 H :    0.115694
  25 H :    0.100707
  26 C :   -0.251522
  27 H :    0.078468
  28 H :    0.111653
  29 C :   -0.175423
  30 H :    0.077269
  31 H :    0.053067
  32 C :   -0.133455
  33 H :    0.092400
  34 H :    0.104944
  35 H :    0.090499
  36 H :    0.099081
  37 H :    0.087861
  38 H :    0.089621
Sum of atomic charges:    0.0000000

--------------------------------
MULLIKEN REDUCED ORBITAL CHARGES
--------------------------------
  0 C s       :     3.226080  s :     3.226080
      pz      :     0.948973  p :     2.765187
      px      :     0.859731
      py      :     0.956483
      dz2     :     0.021424  d :     0.110633
      dxz     :     0.022131
      dyz     :     0.024404
      dx2y2   :     0.016040
      dxy     :     0.026634
      f0      :     0.000690  f :     0.008480
      f+1     :     0.001567
      f-1     :     0.001029
      f+2     :     0.001172
      f-2     :     0.002174
      f+3     :     0.001014
      f-3     :     0.000834
  1 N s       :     3.429744  s :     3.429744
      pz      :     1.559337  p :     3.815987
      px      :     1.113216
      py      :     1.143434
      dz2     :     0.006502  d :     0.060006
      dxz     :     0.013875
      dyz     :     0.008065
      dx2y2   :     0.017249
      dxy     :     0.014316
      f0      :     0.000657  f :     0.004231
      f+1     :     0.000631
      f-1     :     0.000290
      f+2     :     0.000597
      f-2     :     0.000675
      f+3     :     0.000771
      f-3     :     0.000609
  2 C s       :     3.211634  s :     3.211634
      pz      :     0.906716  p :     2.830160
      px      :     1.013047
      py      :     0.910398
      dz2     :     0.011072  d :     0.088737
      dxz     :     0.016169
      dyz     :     0.027913
      dx2y2   :     0.017245
      dxy     :     0.016339
      f0      :     0.001168  f :     0.005804
      f+1     :     0.000459
      f-1     :     0.000923
      f+2     :     0.000658
      f-2     :     0.001053
      f+3     :     0.000708
      f-3     :     0.000836
  3 C s       :     3.230233  s :     3.230233
      pz      :     0.925371  p :     2.884081
      px      :     0.996278
      py      :     0.962432
      dz2     :     0.016404  d :     0.076927
      dxz     :     0.023444
      dyz     :     0.014255
      dx2y2   :     0.008567
      dxy     :     0.014257
      f0      :     0.001004  f :     0.005610
      f+1     :     0.000637
      f-1     :     0.001140
      f+2     :     0.000818
      f-2     :     0.001173
      f+3     :     0.000531
      f-3     :     0.000308
  4 H s       :     0.840890  s :     0.840890
      pz      :     0.004653  p :     0.022247
      px      :     0.006673
      py      :     0.010922
  5 H s       :     0.851905  s :     0.851905
      pz      :     0.005249  p :     0.022243
      px      :     0.011511
      py      :     0.005483
  6 C s       :     3.107662  s :     3.107662
      pz      :     0.697191  p :     2.191354
      px      :     0.742324
      py      :     0.751838
      dz2     :     0.052117  d :     0.272135
      dxz     :     0.086481
      dyz     :     0.037938
      dx2y2   :     0.046003
      dxy     :     0.049596
      f0      :     0.005934  f :     0.028256
      f+1     :     0.004540
      f-1     :     0.003248
      f+2     :     0.004767
      f-2     :     0.003735
      f+3     :     0.003382
      f-3     :     0.002650
  7 C s       :     3.026341  s :     3.026341
      pz      :     0.817004  p :     2.431607
      px      :     0.752779
      py      :     0.861824
      dz2     :     0.032784  d :     0.197969
      dxz     :     0.032186
      dyz     :     0.040319
      dx2y2   :     0.050500
      dxy     :     0.042180
      f0      :     0.001668  f :     0.018618
      f+1     :     0.002804
      f-1     :     0.002185
      f+2     :     0.002668
      f-2     :     0.002623
      f+3     :     0.003874
      f-3     :     0.002797
  8 C s       :     3.261679  s :     3.261679
      pz      :     1.202440  p :     3.220101
      px      :     1.012780
      py      :     1.004881
      dz2     :     0.004925  d :     0.031615
      dxz     :     0.001866
      dyz     :     0.010508
      dx2y2   :     0.007114
      dxy     :     0.007201
      f0      :     0.000434  f :     0.005008
      f+1     :     0.000465
      f-1     :     0.001057
      f+2     :     0.000548
      f-2     :     0.000818
      f+3     :     0.000805
      f-3     :     0.000881
  9 N s       :     3.439868  s :     3.439868
      pz      :     1.491058  p :     3.988840
      px      :     1.193639
      py      :     1.304143
      dz2     :     0.005677  d :     0.032620
      dxz     :     0.004771
      dyz     :     0.007090
      dx2y2   :     0.007930
      dxy     :     0.007152
      f0      :     0.000445  f :     0.003446
      f+1     :     0.000473
      f-1     :     0.000451
      f+2     :     0.000626
      f-2     :     0.000592
      f+3     :     0.000389
      f-3     :     0.000471
 10 H s       :     0.745078  s :     0.745078
      pz      :     0.010859  p :     0.037897
      px      :     0.017595
      py      :     0.009443
 11 H s       :     0.709781  s :     0.709781
      pz      :     0.018754  p :     0.054482
      px      :     0.009455
      py      :     0.026274
 12 H s       :     0.751732  s :     0.751732
      pz      :     0.015335  p :     0.049905
      px      :     0.007628
      py      :     0.026942
 13 H s       :     0.909845  s :     0.909845
      pz      :     0.011299  p :     0.027042
      px      :     0.007590
      py      :     0.008153
 14 H s       :     0.913093  s :     0.913093
      pz      :     0.007441  p :     0.026153
      px      :     0.011735
      py      :     0.006976
 15 F s       :     3.921718  s :     3.921718
      pz      :     1.572406  p :     5.187173
      px      :     1.789209
      py      :     1.825558
      dz2     :     0.005737  d :     0.018993
      dxz     :     0.005726
      dyz     :     0.004002
      dx2y2   :     0.001723
      dxy     :     0.001805
      f0      :     0.000180  f :     0.000872
      f+1     :     0.000272
      f-1     :     0.000115
      f+2     :     0.000130
      f-2     :     0.000134
      f+3     :     0.000020
      f-3     :     0.000020
 16 O s       :     3.863469  s :     3.863469
      pz      :     1.685904  p :     4.456590
      px      :     1.306489
      py      :     1.464197
      dz2     :     0.003317  d :     0.029083
      dxz     :     0.007143
      dyz     :     0.002608
      dx2y2   :     0.008213
      dxy     :     0.007802
      f0      :     0.000182  f :     0.001641
      f+1     :     0.000266
      f-1     :     0.000056
      f+2     :     0.000210
      f-2     :     0.000194
      f+3     :     0.000425
      f-3     :     0.000308
 17 C s       :     3.165205  s :     3.165205
      pz      :     0.940472  p :     2.813921
      px      :     0.956235
      py      :     0.917214
      dz2     :     0.016613  d :     0.081053
      dxz     :     0.015535
      dyz     :     0.018265
      dx2y2   :     0.010761
      dxy     :     0.019879
      f0      :     0.000573  f :     0.005886
      f+1     :     0.000619
      f-1     :     0.000762
[...]
      f0      :     0.007744  f :     0.038663
      f+1     :     0.003561
      f-1     :     0.005424
      f+2     :     0.004746
      f-2     :     0.006546
      f+3     :     0.004542
      f-3     :     0.006101
  3 C s       :     2.783553  s :     2.783553
      pz      :     1.011973  p :     3.042916
      px      :     1.019046
      py      :     1.011898
      dz2     :     0.081924  d :     0.359198
      dxz     :     0.085005
      dyz     :     0.077693
      dx2y2   :     0.043635
      dxy     :     0.070941
      f0      :     0.007383  f :     0.037083
      f+1     :     0.005454
      f-1     :     0.006161
      f+2     :     0.006100
      f-2     :     0.006027
      f+3     :     0.003565
      f-3     :     0.002393
  4 H s       :     0.781322  s :     0.781322
      pz      :     0.013362  p :     0.059494
      px      :     0.019618
      py      :     0.026513
  5 H s       :     0.797802  s :     0.797802
      pz      :     0.015003  p :     0.060274
      px      :     0.030645
      py      :     0.014627
  6 C s       :     2.775501  s :     2.775501
      pz      :     0.840767  p :     2.578662
      px      :     0.929546
      py      :     0.808348
      dz2     :     0.200006  d :     0.947572
      dxz     :     0.295024
      dyz     :     0.131598
      dx2y2   :     0.158189
      dxy     :     0.162755
      f0      :     0.036897  f :     0.177680
      f+1     :     0.031056
      f-1     :     0.023290
      f+2     :     0.030385
      f-2     :     0.020326
      f+3     :     0.018583
      f-3     :     0.017144
  7 C s       :     2.695960  s :     2.695960
      pz      :     0.857323  p :     2.791730
      px      :     0.905252
      py      :     1.029155
      dz2     :     0.138217  d :     0.859826
      dxz     :     0.155574
      dyz     :     0.149571
      dx2y2   :     0.201590
      dxy     :     0.214875
      f0      :     0.010133  f :     0.118329
      f+1     :     0.015944
      f-1     :     0.011971
      f+2     :     0.018834
      f-2     :     0.014335
      f+3     :     0.027404
      f-3     :     0.019708
  8 C s       :     2.810890  s :     2.810890
      pz      :     1.162095  p :     3.317916
      px      :     1.053637
      py      :     1.102184
      dz2     :     0.028740  d :     0.217397
      dxz     :     0.019904
      dyz     :     0.045611
      dx2y2   :     0.060623
      dxy     :     0.062519
      f0      :     0.002058  f :     0.028765
      f+1     :     0.002691
      f-1     :     0.004536
      f+2     :     0.004090
      f-2     :     0.003120
      f+3     :     0.006485
      f-3     :     0.005785
  9 N s       :     2.966625  s :     2.966625
      pz      :     1.404205  p :     3.881304
      px      :     1.202413
      py      :     1.274686
      dz2     :     0.020127  d :     0.149805
      dxz     :     0.023796
      dyz     :     0.030729
      dx2y2   :     0.042436
      dxy     :     0.032718
      f0      :     0.001599  f :     0.011967
      f+1     :     0.001554
      f-1     :     0.001222
      f+2     :     0.001981
      f-2     :     0.001719
      f+3     :     0.001877
      f-3     :     0.002016
 10 H s       :     0.722560  s :     0.722560
      pz      :     0.030174  p :     0.107154
      px      :     0.047240
      py      :     0.029740
 11 H s       :     0.706046  s :     0.706046
      pz      :     0.053973  p :     0.160286
      px      :     0.030138
      py      :     0.076175
 12 H s       :     0.705594  s :     0.705594
      pz      :     0.044120  p :     0.134344
      px      :     0.021187
      py      :     0.069037
 13 H s       :     0.829707  s :     0.829707
      pz      :     0.034091  p :     0.080309
      px      :     0.024212
      py      :     0.022006
 14 H s       :     0.832727  s :     0.832727
      pz      :     0.023566  p :     0.078426
      px      :     0.034803
      py      :     0.020057
 15 F s       :     3.536106  s :     3.536106
      pz      :     1.623243  p :     5.084937
      px      :     1.732345
      py      :     1.729349
      dz2     :     0.011926  d :     0.039531
      dxz     :     0.012253
      dyz     :     0.008397
      dx2y2   :     0.003728
      dxy     :     0.003227
      f0      :     0.000403  f :     0.002089
      f+1     :     0.000599
      f-1     :     0.000298
      f+2     :     0.000377
      f-2     :     0.000299
      f+3     :     0.000060
      f-3     :     0.000054
 16 O s       :     3.427553  s :     3.427553
      pz      :     1.568671  p :     4.407597
      px      :     1.436280
      py      :     1.402647
      dz2     :     0.008575  d :     0.063259
      dxz     :     0.015037
      dyz     :     0.004552
      dx2y2   :     0.017746
      dxy     :     0.017348
      f0      :     0.000616  f :     0.005336
      f+1     :     0.000910
      f-1     :     0.000177
      f+2     :     0.000794
      f-2     :     0.000610
      f+3     :     0.001009
      f-3     :     0.001221
 17 C s       :     2.781503  s :     2.781503
      pz      :     1.016254  p :     3.049104
      px      :     1.016880
      py      :     1.015970
      dz2     :     0.062903  d :     0.389609
      dxz     :     0.088449
      dyz     :     0.096278
      dx2y2   :     0.041899
      dxy     :     0.100080
      f0      :     0.006833  f :     0.039159
      f+1     :     0.004455
      f-1     :     0.005558
      f+2     :     0.006762
      f-2     :     0.005900
      f+3     :     0.004263
      f-3     :     0.005389
 18 H s       :     0.814125  s :     0.814125
      pz      :     0.017378  p :     0.057631
      px      :     0.018645
      py      :     0.021607
 19 H s       :     0.806233  s :     0.806233
      pz      :     0.023839  p :     0.059366
      px      :     0.013537
      py      :     0.021991
 20 C s       :     2.774486  s :     2.774486
      pz      :     1.019116  p :     3.051086
      px      :     1.013765
      py      :     1.018205
      dz2     :     0.056347  d :     0.402703
      dxz     :     0.069118
      dyz     :     0.089895
      dx2y2   :     0.085211
      dxy     :     0.102131
      f0      :     0.003929  f :     0.038988
      f+1     :     0.005110
      f-1     :     0.004180
      f+2     :     0.004553
      f-2     :     0.006260
      f+3     :     0.005782
      f-3     :     0.009174
 21 C s       :     2.773844  s :     2.773844
      pz      :     1.024866  p :     3.049831
      px      :     1.017801
      py      :     1.007165
      dz2     :     0.056755  d :     0.398928
      dxz     :     0.067771
      dyz     :     0.084286
      dx2y2   :     0.084732
      dxy     :     0.105384
      f0      :     0.003846  f :     0.039101
      f+1     :     0.005167
      f-1     :     0.004116
      f+2     :     0.004519
      f-2     :     0.006026
      f+3     :     0.005769
      f-3     :     0.009657
 22 H s       :     0.800184  s :     0.800184
      pz      :     0.020351  p :     0.059718
      px      :     0.019595
      py      :     0.019772
 23 H s       :     0.802001  s :     0.802001
      pz      :     0.028800  p :     0.058039
      px      :     0.012670
      py      :     0.016570
 24 H s       :     0.796188  s :     0.796188
      pz      :     0.015359  p :     0.059272
      px      :     0.030655
      py      :     0.013258
 25 H s       :     0.801651  s :     0.801651
      pz      :     0.020066  p :     0.058234
      px      :     0.019173
      py      :     0.018995
 26 C s       :     2.773356  s :     2.773356
      pz      :     1.011285  p :     3.050547
      px      :     1.015445
      py      :     1.023817
      dz2     :     0.098654  d :     0.407302
      dxz     :     0.089884
      dyz     :     0.081336
      dx2y2   :     0.049935
      dxy     :     0.087492
      f0      :     0.007196  f :     0.040176
      f+1     :     0.005588
      f-1     :     0.008031
      f+2     :     0.007200
      f-2     :     0.004553
      f+3     :     0.004542
      f-3     :     0.003066
 27 H s       :     0.810412  s :     0.810412
      pz      :     0.016263  p :     0.058443
      px      :     0.021054
      py      :     0.021125
 28 H s       :     0.795780  s :     0.795780
      pz      :     0.018640  p :     0.059866
      px      :     0.022852
      py      :     0.018374
 29 C s       :     2.775850  s :     2.775850
      pz      :     1.010657  p :     3.048452
      px      :     1.024600
      py      :     1.013196
      dz2     :     0.099686  d :     0.401778
      dxz     :     0.088379
      dyz     :     0.077014
      dx2y2   :     0.055177
      dxy     :     0.081521
      f0      :     0.007052  f :     0.039113
      f+1     :     0.005284
      f-1     :     0.007754
      f+2     :     0.006898
      f-2     :     0.004575
      f+3     :     0.004361
      f-3     :     0.003189
 30 H s       :     0.810170  s :     0.810170
      pz      :     0.016713  p :     0.058130
      px      :     0.026683
      py      :     0.014733
 31 H s       :     0.814500  s :     0.814500
      pz      :     0.013608  p :     0.060783
      px      :     0.020618
      py      :     0.026557
 32 C s       :     2.778475  s :     2.778475
      pz      :     1.017106  p :     3.046439
      px      :     1.014520
      py      :     1.014813
      dz2     :     0.076245  d :     0.398254
      dxz     :     0.046615
      dyz     :     0.093511
      dx2y2   :     0.107576
      dxy     :     0.074308
      f0      :     0.004477  f :     0.038315
      f+1     :     0.002737
      f-1     :     0.006821
      f+2     :     0.006145
      f-2     :     0.004948
      f+3     :     0.005928
      f-3     :     0.007258
 33 H s       :     0.806661  s :     0.806661
      pz      :     0.012768  p :     0.057916
      px      :     0.018935
      py      :     0.026213
 34 H s       :     0.806400  s :     0.806400
      pz      :     0.016478  p :     0.058564
      px      :     0.027717
      py      :     0.014369
 35 H s       :     0.807459  s :     0.807459
      pz      :     0.020066  p :     0.058010
      px      :     0.018888
      py      :     0.019055
 36 H s       :     0.811178  s :     0.811178
      pz      :     0.029357  p :     0.059670
      px      :     0.013255
      py      :     0.017058
 37 H s       :     0.807612  s :     0.807612
      pz      :     0.015925  p :     0.057940
      px      :     0.029019
      py      :     0.012997
 38 H s       :     0.807946  s :     0.807946
      pz      :     0.028920  p :     0.057959
      px      :     0.013132
      py      :     0.015907


                      *****************************
                      * MAYER POPULATION ANALYSIS *
                      *****************************

  NA   - Mulliken gross atomic population
  ZA   - Total nuclear charge
  QA   - Mulliken gross atomic charge
  VA   - Mayer's total valence
  BVA  - Mayer's bonded valence
  FA   - Mayer's free valence

  ATOM       NA         ZA         QA         VA         BVA        FA
  0 C      6.1104     6.0000    -0.1104     3.9619     3.9619     0.0000
  1 N      7.3100     7.0000    -0.3100     3.1243     3.1243    -0.0000
  2 C      6.1363     6.0000    -0.1363     3.8619     3.8619    -0.0000
  3 C      6.1968     6.0000    -0.1968     3.8453     3.8453    -0.0000
  4 H      0.8631     1.0000     0.1369     0.9718     0.9718    -0.0000
  5 H      0.8741     1.0000     0.1259     0.9679     0.9679    -0.0000
  6 C      5.5994     6.0000     0.4006     4.0921     4.0921    -0.0000
  7 C      5.6745     6.0000     0.3255     4.0266     4.0266     0.0000
  8 C      6.5184     6.0000    -0.5184     3.7717     3.7717     0.0000
  9 N      7.4648     7.0000    -0.4648     3.0418     3.0418     0.0000
 10 H      0.7830     1.0000     0.2170     0.9617     0.9617     0.0000
 11 H      0.7643     1.0000     0.2357     1.0133     1.0133    -0.0000
 12 H      0.8016     1.0000     0.1984     0.9990     0.9990     0.0000
 13 H      0.9369     1.0000     0.0631     1.0020     1.0020     0.0000
 14 H      0.9392     1.0000     0.0608     0.9945     0.9945     0.0000
 15 F      9.1288     9.0000    -0.1288     1.1918     1.1918     0.0000
 16 O      8.3508     8.0000    -0.3508     2.1119     2.1119    -0.0000
 17 C      6.0661     6.0000    -0.0661     3.6732     3.6732     0.0000
 18 H      0.9072     1.0000     0.0928     0.9705     0.9705     0.0000
 19 H      0.8857     1.0000     0.1143     0.9750     0.9750     0.0000
 20 C      6.2048     6.0000    -0.2048     3.8341     3.8341    -0.0000
 21 C      6.2540     6.0000    -0.2540     3.8550     3.8550     0.0000
 22 H      0.8668     1.0000     0.1332     0.9769     0.9769     0.0000
 23 H      0.9038     1.0000     0.0962     0.9745     0.9745     0.0000
 24 H      0.8843     1.0000     0.1157     0.9770     0.9770    -0.0000
 25 H      0.8993     1.0000     0.1007     0.9702     0.9702    -0.0000
 26 C      6.2515     6.0000    -0.2515     3.9708     3.9708    -0.0000
 27 H      0.9215     1.0000     0.0785     0.9730     0.9730     0.0000
 28 H      0.8883     1.0000     0.1117     0.9999     0.9999    -0.0000
 29 C      6.1754     6.0000    -0.1754     3.8460     3.8460     0.0000
 30 H      0.9227     1.0000     0.0773     0.9745     0.9745    -0.0000
 31 H      0.9469     1.0000     0.0531     0.9674     0.9674    -0.0000
 32 C      6.1335     6.0000    -0.1335     3.8620     3.8620    -0.0000
 33 H      0.9076     1.0000     0.0924     0.9719     0.9719    -0.0000
 34 H      0.8951     1.0000     0.1049     0.9753     0.9753     0.0000
 35 H      0.9095     1.0000     0.0905     0.9701     0.9701    -0.0000
 36 H      0.9009     1.0000     0.0991     0.9651     0.9651     0.0000
 37 H      0.9121     1.0000     0.0879     0.9713     0.9713     0.0000
 38 H      0.9104     1.0000     0.0896     0.9703     0.9703     0.0000

  Mayer bond orders larger than 0.100000
B(  0-C ,  1-N ) :   0.9742 B(  0-C , 17-C ) :   0.9297 B(  0-C , 18-H ) :   0.9824 
B(  0-C , 19-H ) :   0.9719 B(  1-N ,  7-C ) :   1.2045 B(  1-N , 12-H ) :   0.9131 
B(  2-C ,  3-C ) :   0.9495 B(  2-C , 21-C ) :   0.9682 B(  2-C , 24-H ) :   0.9637 
B(  2-C , 25-H ) :   0.9627 B(  3-C ,  4-H ) :   0.9464 B(  3-C ,  5-H ) :   0.9695 
B(  3-C ,  6-C ) :   0.9749 B(  6-C , 15-F ) :   1.0877 B(  6-C , 16-O ) :   1.9268 
B(  7-C ,  8-C ) :   1.6023 B(  7-C ,  9-N ) :   1.1859 B(  8-C , 13-H ) :   1.0021 
B(  8-C , 14-H ) :   0.9954 B(  9-N , 10-H ) :   0.9325 B(  9-N , 11-H ) :   0.8626 
B( 11-H , 16-O ) :   0.1104 B( 17-C , 26-C ) :   0.9763 B( 17-C , 27-H ) :   0.9625 
B( 17-C , 28-H ) :   0.9624 B( 20-C , 21-C ) :   0.9392 B( 20-C , 32-C ) :   0.9672 
B( 20-C , 35-H ) :   0.9644 B( 20-C , 36-H ) :   0.9756 B( 21-C , 22-H ) :   0.9744 
B( 21-C , 23-H ) :   0.9668 B( 26-C , 29-C ) :   0.9661 B( 26-C , 30-H ) :   0.9546 
B( 26-C , 31-H ) :   0.9878 B( 29-C , 32-C ) :   0.9644 B( 29-C , 33-H ) :   0.9726 
B( 29-C , 34-H ) :   0.9757 B( 32-C , 37-H ) :   0.9736 B( 32-C , 38-H ) :   0.9722 


-------
TIMINGS
-------

Total SCF time: 0 days 0 hours 1 min 16 sec 

Total time                  ....      76.581 sec
Sum of individual times     ....      74.848 sec  ( 97.7%)

Fock matrix formation       ....      67.778 sec  ( 88.5%)
  Split-RI-J                ....       7.428 sec  ( 11.0% of F)
  Chain of spheres X        ....      53.066 sec  ( 78.3% of F)
  XC integration            ....       6.764 sec  ( 10.0% of F)
    Basis function eval.    ....       1.834 sec  ( 27.1% of XC)
    Density eval.           ....       2.256 sec  ( 33.3% of XC)
    XC-Functional eval.     ....       0.152 sec  (  2.2% of XC)
    XC-Potential eval.      ....       1.811 sec  ( 26.8% of XC)
Diagonalization             ....       1.137 sec  (  1.5%)
Density matrix formation    ....       0.087 sec  (  0.1%)
Population analysis         ....       0.147 sec  (  0.2%)
Initial guess               ....       0.825 sec  (  1.1%)
Orbital Transformation      ....       0.000 sec  (  0.0%)
Orbital Orthonormalization  ....       0.000 sec  (  0.0%)
DIIS solution               ....       0.632 sec  (  0.8%)
SOSCF solution              ....       0.965 sec  (  1.3%)
Grid generation             ....       3.277 sec  (  4.3%)

Maximum memory used throughout the entire SCF-calculation: 132.8 MB


-------------------------------------------------------------------------------
                          DFT DISPERSION CORRECTION                            
                                                                               
                              DFTD3 V3.1  Rev 1                                
                          USING Becke-Johnson damping                          
-------------------------------------------------------------------------------
The B3LYP functional is recognized
Active option DFTDOPT                   ...         4   

molecular C6(AA) [au] = 11609.869040 


            DFT-D V3
 parameters
 s6 scaling factor         :     1.0000 
 a1 scaling factor         :     0.3981 
 s8 scaling factor         :     1.9889 
 a2 scaling factor         :     4.4211 
 ad hoc parameters k1-k3   :    16.0000     1.3333    -4.0000 

 Edisp/kcal,au: -45.163254611067  -0.071972219799 
 E6   /kcal   : -22.610504002 
 E8   /kcal   : -22.552750609 
 % E8         :  49.936061525 

-------------------------   ----------------
Dispersion correction           -0.071972220
-------------------------   ----------------


-------------------------   --------------------
FINAL SINGLE POINT ENERGY      -755.554355217299
-------------------------   --------------------


                            ***************************************
                            *     ORCA property calculations      *
                            ***************************************

                                    ---------------------
                                    Active property flags
                                    ---------------------
   (+) Dipole Moment


------------------------------------------------------------------------------
                       ORCA ELECTRIC PROPERTIES CALCULATION
------------------------------------------------------------------------------

Dipole Moment Calculation                       ... on
Quadrupole Moment Calculation                   ... off
Polarizability Calculation                      ... off
GBWName                                         ... B3LYP_D2_wb97.gbw
Electron density file                           ... B3LYP_D2_wb97.scfp
The origin for moment calculation is the CENTER OF MASS  = ( 7.948631, -0.477669  0.999320)

-------------
DIPOLE MOMENT
-------------
                                X             Y             Z
Electronic contribution:      9.79388      10.55599       5.52536
Nuclear contribution   :    -11.22009      -8.67117      -6.77523
                        -----------------------------------------
Total Dipole Moment    :     -1.42621       1.88483      -1.24986
                        -----------------------------------------
Magnitude (a.u.)       :      2.67373
Magnitude (Debye)      :      6.79607



--------------------
Rotational spectrum 
--------------------
 
Rotational constants in cm-1:     0.020086     0.013778     0.009581 
Rotational constants in MHz :   602.172053   413.051122   287.243919 

 Dipole components along the rotational axes: 
x,y,z [a.u.] :     2.512500     0.291036     0.866865 
x,y,z [Debye]:     6.386269     0.739754     2.203395 

 

Timings for individual modules:

Sum of individual times         ...       78.531 sec (=   1.309 min)
GTO integral calculation        ...        1.439 sec (=   0.024 min)   1.8 %
SCF iterations                  ...       77.092 sec (=   1.285 min)  98.2 %
                             ****ORCA TERMINATED NORMALLY****
TOTAL RUN TIME: 0 days 0 hours 1 minutes 19 seconds 360 msec
