
                                        *****************
                                        * O   R   C   A *
                                        *****************

                                            #,                                       
                                            ###                                      
                                            ####                                     
                                            #####                                    
                                            ######                                   
                                           ########,                                 
                                     ,,################,,,,,                         
                               ,,#################################,,                 
                          ,,##########################################,,             
                       ,#########################################, ''#####,          
                    ,#############################################,,   '####,        
                  ,##################################################,,,,####,       
                ,###########''''           ''''###############################       
              ,#####''   ,,,,##########,,,,          '''####'''          '####       
            ,##' ,,,,###########################,,,                        '##       
           ' ,,###''''                  '''############,,,                           
         ,,##''                                '''############,,,,        ,,,,,,###''
      ,#''                                            '''#######################'''  
     '                                                          ''''####''''         
             ,#######,   #######,   ,#######,      ##                                
            ,#'     '#,  ##    ##  ,#'     '#,    #''#        ######   ,####,        
            ##       ##  ##   ,#'  ##            #'  '#       #        #'  '#        
            ##       ##  #######   ##           ,######,      #####,   #    #        
            '#,     ,#'  ##    ##  '#,     ,#' ,#      #,         ##   #,  ,#        
             '#######'   ##     ##  '#######'  #'      '#     #####' # '####'        



                  #######################################################
                  #                        -***-                        #
                  #          Department of theory and spectroscopy      #
                  #    Directorship and core code : Frank Neese         #
                  #        Max Planck Institute fuer Kohlenforschung    #
                  #                Kaiser Wilhelm Platz 1               #
                  #                 D-45470 Muelheim/Ruhr               #
                  #                      Germany                        #
                  #                                                     #
                  #                  All rights reserved                #
                  #                        -***-                        #
                  #######################################################


                         Program Version 5.0.0 -  RELEASE  -
                                (SVN: $Rev: 19529$)
                ($Date: 2021-06-28 11:36:33 +0200 (Mo, 28 Jun 2021) $)


 With contributions from (in alphabetic order):
   Daniel Aravena         : Magnetic Suceptibility
   Michael Atanasov       : Ab Initio Ligand Field Theory (pilot matlab implementation)
   Alexander A. Auer      : GIAO ZORA, VPT2 properties, NMR spectrum
   Ute Becker             : Parallelization
   Giovanni Bistoni       : ED, misc. LED, open-shell LED, HFLD
   Martin Brehm           : Molecular dynamics
   Dmytro Bykov           : SCF Hessian
   Vijay G. Chilkuri      : MRCI spin determinant printing, contributions to CSF-ICE
   Dipayan Datta          : RHF DLPNO-CCSD density
   Achintya Kumar Dutta   : EOM-CC, STEOM-CC
   Dmitry Ganyushin       : Spin-Orbit,Spin-Spin,Magnetic field MRCI
   Miquel Garcia          : C-PCM Hessian, Gaussian charge scheme
   Yang Guo               : DLPNO-NEVPT2, F12-NEVPT2, CIM, IAO-localization
   Andreas Hansen         : Spin unrestricted coupled pair/coupled cluster methods
   Benjamin Helmich-Paris : MC-RPA, TRAH-SCF, COSX integrals
   Lee Huntington         : MR-EOM, pCC
   Robert Izsak           : Overlap fitted RIJCOSX, COSX-SCS-MP3, EOM
   Marcus Kettner         : VPT2
   Christian Kollmar      : KDIIS, OOCD, Brueckner-CCSD(T), CCSD density, CASPT2, CASPT2-K
   Simone Kossmann        : Meta GGA functionals, TD-DFT gradient, OOMP2, MP2 Hessian
   Martin Krupicka        : Initial AUTO-CI
   Lucas Lang             : DCDCAS
   Marvin Lechner         : AUTO-CI (C++ implementation), FIC-MRCC
   Dagmar Lenk            : GEPOL surface, SMD
   Dimitrios Liakos       : Extrapolation schemes; Compound Job, initial MDCI parallelization
   Dimitrios Manganas     : Further ROCIS development; embedding schemes
   Dimitrios Pantazis     : SARC Basis sets
   Anastasios Papadopoulos: AUTO-CI, single reference methods and gradients
   Taras Petrenko         : DFT Hessian,TD-DFT gradient, ASA, ECA, R-Raman, ABS, FL, XAS/XES, NRVS
   Peter Pinski           : DLPNO-MP2, DLPNO-MP2 Gradient
   Christoph Reimann      : Effective Core Potentials
   Marius Retegan         : Local ZFS, SOC
   Christoph Riplinger    : Optimizer, TS searches, QM/MM, DLPNO-CCSD(T), (RO)-DLPNO pert. Triples
   Tobias Risthaus        : Range-separated hybrids, TD-DFT gradient, RPA, STAB
   Michael Roemelt        : Original ROCIS implementation
   Masaaki Saitow         : Open-shell DLPNO-CCSD energy and density
   Barbara Sandhoefer     : DKH picture change effects
   Avijit Sen             : IP-ROCIS
   Kantharuban Sivalingam : CASSCF convergence, NEVPT2, FIC-MRCI
   Bernardo de Souza      : ESD, SOC TD-DFT
   Georgi Stoychev        : AutoAux, RI-MP2 NMR
   Willem Van den Heuvel  : Paramagnetic NMR
   Boris Wezisla          : Elementary symmetry handling
   Frank Wennmohs         : Technical directorship


 We gratefully acknowledge several colleagues who have allowed us to
 interface, adapt or use parts of their codes:
   Stefan Grimme, W. Hujo, H. Kruse, P. Pracht,  : VdW corrections, initial TS optimization,
                  C. Bannwarth, S. Ehlert          DFT functionals, gCP, sTDA/sTD-DF
   Ed Valeev, F. Pavosevic, A. Kumar             : LibInt (2-el integral package), F12 methods
   Garnet Chan, S. Sharma, J. Yang, R. Olivares  : DMRG
   Ulf Ekstrom                                   : XCFun DFT Library
   Mihaly Kallay                                 : mrcc  (arbitrary order and MRCC methods)
   Jiri Pittner, Ondrej Demel                    : Mk-CCSD
   Frank Weinhold                                : gennbo (NPA and NBO analysis)
   Christopher J. Cramer and Donald G. Truhlar   : smd solvation model
   Lars Goerigk                                  : TD-DFT with DH, B97 family of functionals
   V. Asgeirsson, H. Jonsson                     : NEB implementation
   FAccTs GmbH                                   : IRC, NEB, NEB-TS, DLPNO-Multilevel, CI-OPT
                                                   MM, QMMM, 2- and 3-layer-ONIOM, Crystal-QMMM,
                                                   LR-CPCM, SF, NACMEs, symmetry and pop. for TD-DFT,
                                                   nearIR, NL-DFT gradient (VV10), updates on ESD,
                                                   ML-optimized integration grids
   S Lehtola, MJT Oliveira, MAL Marques          : LibXC Library
   Liviu Ungur et al                             : ANISO software


 Your calculation uses the libint2 library for the computation of 2-el integrals
 For citations please refer to: http://libint.valeyev.net

 Your ORCA version has been built with support for libXC version: 5.1.0
 For citations please refer to: https://tddft.org/programs/libxc/

 This ORCA versions uses:
   CBLAS   interface :  Fast vector & matrix operations
   LAPACKE interface :  Fast linear algebra routines
   SCALAPACK package :  Parallel linear algebra routines
   Shared memory     :  Shared parallel matrices
   BLAS/LAPACK       :  OpenBLAS 0.3.15  USE64BITINT DYNAMIC_ARCH NO_AFFINITY Haswell SINGLE_THREADED
        Core in use  :  Haswell
   Copyright (c) 2011-2014, The OpenBLAS Project


================================================================================

----- Orbital basis set information -----
Your calculation utilizes the basis: def2-SVPD
   F. Weigend and R. Ahlrichs, Phys. Chem. Chem. Phys. 7, 3297 (2005).
   D. Rappoport and F. Furche, J. Chem. Phys. 133 134105 (2010).

----- AuxJ basis set information -----
Your calculation utilizes the auxiliary basis: def2/J
   F. Weigend, Phys. Chem. Chem. Phys. 8, 1057 (2006).

================================================================================
                                        WARNINGS
                       Please study these warnings very carefully!
================================================================================


INFO   : the flag for use of the SHARK integral package has been found!

================================================================================
                                       INPUT FILE
================================================================================
NAME = 14Feb_SVPD_LC_PBE_C1_wt_wb97_typ1_pos.com
|  1> !LC-PBE RIJCOSX def2-SVPD def2/J TightSCF 
|  2> *xyz 0 1
|  3> C          1.36401        0.46874       -2.81376
|  4> C          0.42884        0.32140       -1.65531
|  5> C          0.96805        1.63064       -3.71575
|  6> C         -0.50835        1.72268       -4.12430
|  7> H          0.74858       -0.40054       -1.00134
|  8> H         -0.46105        0.02333       -2.07773
|  9> H          0.31026        1.20137       -1.13495
| 10> H          1.29485       -0.46874       -3.36468
| 11> H          2.37622        0.59740       -2.43149
| 12> H          1.57869        1.52065       -4.61273
| 13> H          1.26665        2.57599       -3.25045
| 14> H         -0.65192        2.57663       -4.75283
| 15> H         -1.11549        1.81835       -3.24844
| 16> H         -0.78702        0.83723       -4.65648
| 17> *
| 18> %MaxCore 64000
| 19> 
| 20> %pal nprocs 4
| 21> end  
| 22> 
| 23> %scf
| 24>   MaxIter 150
| 25> end
| 26> 
| 27> 
| 28>                          ****END OF INPUT****
================================================================================

                       ****************************
                       * Single Point Calculation *
                       ****************************

---------------------------------
CARTESIAN COORDINATES (ANGSTROEM)
---------------------------------
  C      1.364010    0.468740   -2.813760
  C      0.428840    0.321400   -1.655310
  C      0.968050    1.630640   -3.715750
  C     -0.508350    1.722680   -4.124300
  H      0.748580   -0.400540   -1.001340
  H     -0.461050    0.023330   -2.077730
  H      0.310260    1.201370   -1.134950
  H      1.294850   -0.468740   -3.364680
  H      2.376220    0.597400   -2.431490
  H      1.578690    1.520650   -4.612730
  H      1.266650    2.575990   -3.250450
  H     -0.651920    2.576630   -4.752830
  H     -1.115490    1.818350   -3.248440
  H     -0.787020    0.837230   -4.656480

----------------------------
CARTESIAN COORDINATES (A.U.)
----------------------------
  NO LB      ZA    FRAG     MASS         X           Y           Z
   0 C     6.0000    0    12.011    2.577605    0.885790   -5.317236
   1 C     6.0000    0    12.011    0.810390    0.607358   -3.128083
   2 C     6.0000    0    12.011    1.829349    3.081463   -7.021750
   3 C     6.0000    0    12.011   -0.960642    3.255393   -7.793797
   4 H     1.0000    0     1.008    1.414611   -0.756911   -1.892258
   5 H     1.0000    0     1.008   -0.871258    0.044087   -3.926341
   6 H     1.0000    0     1.008    0.586306    2.270260   -2.144745
   7 H     1.0000    0     1.008    2.446912   -0.885790   -6.358324
   8 H     1.0000    0     1.008    4.490405    1.128922   -4.594850
   9 H     1.0000    0     1.008    2.983292    2.873612   -8.716796
  10 H     1.0000    0     1.008    2.393622    4.867916   -6.142460
  11 H     1.0000    0     1.008   -1.231950    4.869125   -8.981547
  12 H     1.0000    0     1.008   -2.107971    3.436184   -6.138662
  13 H     1.0000    0     1.008   -1.487252    1.582135   -8.799472

--------------------------------
INTERNAL COORDINATES (ANGSTROEM)
--------------------------------
 C      0   0   0     0.000000000000     0.00000000     0.00000000
 C      1   0   0     1.496081016189     0.00000000     0.00000000
 C      1   2   0     1.523279978106   111.78608065     0.00000000
 C      3   1   2     1.534647003092   116.96568617   312.35700725
 H      2   1   3     1.025235481292   111.61239405   185.59051269
 H      2   1   3     1.029168884780   104.54799300    67.76470872
 H      2   1   3     1.029166141544   112.29171607   307.54133605
 H      1   2   3     1.089570879934   105.49223069   240.58209387
 H      1   2   3     1.089611321802   108.70216197   122.93165872
 H      3   1   2     1.090665911313   105.33878468   191.12375756
 H      3   1   2     1.095149611925   109.63156545    76.89947942
 H      4   3   1     1.069996686116   109.47101714   179.99997659
 H      4   3   1     1.070001153317   109.47108513    59.99971374
 H      4   3   1     1.069997300838   109.47113398   299.99973987

---------------------------
INTERNAL COORDINATES (A.U.)
---------------------------
 C      0   0   0     0.000000000000     0.00000000     0.00000000
 C      1   0   0     2.827183394755     0.00000000     0.00000000
 C      1   2   0     2.878581983907   111.78608065     0.00000000
 C      3   1   2     2.900062548087   116.96568617   312.35700725
 H      2   1   3     1.937414282421   111.61239405   185.59051269
 H      2   1   3     1.944847337788   104.54799300    67.76470872
 H      2   1   3     1.944842153822   112.29171607   307.54133605
 H      1   2   3     2.058990566571   105.49223069   240.58209387
 H      1   2   3     2.059066990626   108.70216197   122.93165872
 H      3   1   2     2.061059875985   105.33878468   191.12375756
 H      3   1   2     2.069532842209   109.63156545    76.89947942
 H      4   3   1     2.022000700963   109.47101714   179.99997659
 H      4   3   1     2.022009142749   109.47108513    59.99971374
 H      4   3   1     2.022001862618   109.47113398   299.99973987

---------------------
BASIS SET INFORMATION
---------------------
There are 2 groups of distinct atoms

 Group   1 Type C   : 8s4p2d contracted to 4s2p2d pattern {5111/31/11}
 Group   2 Type H   : 4s2p contracted to 2s2p pattern {31/11}

Atom   0C    basis set group =>   1
Atom   1C    basis set group =>   1
Atom   2C    basis set group =>   1
Atom   3C    basis set group =>   1
Atom   4H    basis set group =>   2
Atom   5H    basis set group =>   2
Atom   6H    basis set group =>   2
Atom   7H    basis set group =>   2
Atom   8H    basis set group =>   2
Atom   9H    basis set group =>   2
Atom  10H    basis set group =>   2
Atom  11H    basis set group =>   2
Atom  12H    basis set group =>   2
Atom  13H    basis set group =>   2
---------------------------------
AUXILIARY/J BASIS SET INFORMATION
---------------------------------
There are 2 groups of distinct atoms

 Group   1 Type C   : 12s5p4d2f1g contracted to 6s4p3d1f1g pattern {711111/2111/211/2/1}
 Group   2 Type H   : 5s2p1d contracted to 3s1p1d pattern {311/2/1}

Atom   0C    basis set group =>   1
Atom   1C    basis set group =>   1
Atom   2C    basis set group =>   1
Atom   3C    basis set group =>   1
Atom   4H    basis set group =>   2
Atom   5H    basis set group =>   2
Atom   6H    basis set group =>   2
Atom   7H    basis set group =>   2
Atom   8H    basis set group =>   2
Atom   9H    basis set group =>   2
Atom  10H    basis set group =>   2
Atom  11H    basis set group =>   2
Atom  12H    basis set group =>   2
Atom  13H    basis set group =>   2


           ************************************************************
           *        Program running with 4 parallel MPI-processes     *
           *              working on a common directory               *
           ************************************************************
------------------------------------------------------------------------------
                           ORCA GTO INTEGRAL CALCULATION
                           -- RI-GTO INTEGRALS CHOSEN --
------------------------------------------------------------------------------
------------------------------------------------------------------------------
                   ___                                                        
                  /   \      - P O W E R E D   B Y -                         
                 /     \                                                     
                 |  |  |   _    _      __       _____    __    __             
                 |  |  |  | |  | |    /  \     |  _  \  |  |  /  |          
                  \  \/   | |  | |   /    \    | | | |  |  | /  /          
                 / \  \   | |__| |  /  /\  \   | |_| |  |  |/  /          
                |  |  |   |  __  | /  /__\  \  |    /   |      \           
                |  |  |   | |  | | |   __   |  |    \   |  |\   \          
                \     /   | |  | | |  |  |  |  | |\  \  |  | \   \       
                 \___/    |_|  |_| |__|  |__|  |_| \__\ |__|  \__/        
                                                                              
                      - O R C A' S   B I G   F R I E N D -                    
                                      &                                       
                       - I N T E G R A L  F E E D E R -                       
                                                                              
 v1 FN, 2020, v2 2021                                                         
------------------------------------------------------------------------------


Reading SHARK input file 14Feb_SVPD_LC_PBE_C1_wt_wb97_typ1_pos.SHARKINP.tmp ... ok
----------------------
SHARK INTEGRAL PACKAGE
----------------------

Number of atoms                             ...     14
Number of basis functions                   ...    160
Number of shells                            ...     72
Maximum angular momentum                    ...      2
Integral batch strategy                     ... SHARK/LIBINT Hybrid
RI-J (if used) integral strategy            ... SPLIT-RIJ (Revised 2003 algorithm where possible)
Printlevel                                  ...      1
Contraction scheme used                     ... SEGMENTED contraction
Coulomb Range Separation                    ... NOT USED
Exchange Range Separation                   ... Long Range
   Mu parameter                             ...  0.470000
   Scaling (regular/separated)              ...  0.000000  1.000000
Finite Nucleus Model                        ... NOT USED
Auxiliary Coulomb fitting basis             ... AVAILABLE
   # of basis functions in Aux-J            ...    306
   # of shells in Aux-J                     ...    110
   Maximum angular momentum in Aux-J        ...      4
Auxiliary J/K fitting basis                 ... NOT available
Auxiliary Correlation fitting basis         ... NOT available
Auxiliary 'external' fitting basis          ... NOT available
Integral threshold                          ...     2.500000e-11
Primitive cut-off                           ...     2.500000e-12
Primitive pair pre-selection threshold      ...     2.500000e-12

Calculating pre-screening integrals         ... done (  0.0 sec) Dimension = 72
Organizing shell pair data                  ... done (  0.0 sec)
Shell pair information
Total number of shell pairs                 ...      2628
Shell pairs after pre-screening             ...      2620
Total number of primitive shell pairs       ...      6868
Primitive shell pairs kept                  ...      6005
          la=0 lb=0:    663 shell pairs
          la=1 lb=0:   1004 shell pairs
          la=1 lb=1:    405 shell pairs
          la=2 lb=0:    288 shell pairs
          la=2 lb=1:    224 shell pairs
          la=2 lb=2:     36 shell pairs

Calculating one electron integrals          ... done (  0.0 sec)
Calculating RI/J V-Matrix + Cholesky decomp.... done (  0.0 sec)
Calculating Nuclear repulsion               ... done (  0.0 sec) ENN=    135.051793432432 Eh

SHARK setup successfully completed in   0.2 seconds

Maximum memory used throughout the entire GTOINT-calculation: 8.9 MB


           ************************************************************
           *        Program running with 4 parallel MPI-processes     *
           *              working on a common directory               *
           ************************************************************
-------------------------------------------------------------------------------
                                 ORCA SCF
-------------------------------------------------------------------------------

------------
SCF SETTINGS
------------
Hamiltonian:
 Density Functional     Method          .... DFT(GTOs)
 Exchange Functional    Exchange        .... LC-PBE
 Correlation Functional Correlation     .... PBE
   PBE beta parameter  CBetaPBE         ....  0.066725
 LDA part of GGA corr.  LDAOpt          .... PW91-LDA
 Gradients option       PostSCFGGA      .... off
   Density functional embedding theory  .... OFF
 Long-range corrected/Screened/Range-Separated Hybrid DFT is turned on
   Amount of maximum screened exact exchange              ....  1.000000
   Range separation parameter mu (erf(mu*r12)/r12)        ....  0.470000
   NL short-range parameter             ....  6.400000
 RI-approximation to the Coulomb term is turned on
   Number of AuxJ basis functions       .... 306
   RIJ-COSX (HFX calculated with COS-X)).... on


General Settings:
 Integral files         IntName         .... 14Feb_SVPD_LC_PBE_C1_wt_wb97_typ1_pos
 Hartree-Fock type      HFTyp           .... RHF
 Total Charge           Charge          ....    0
 Multiplicity           Mult            ....    1
 Number of Electrons    NEL             ....   34
 Basis Dimension        Dim             ....  160
 Nuclear Repulsion      ENuc            ....    135.0517934324 Eh

Convergence Acceleration:
 DIIS                   CNVDIIS         .... on
   Start iteration      DIISMaxIt       ....    12
   Startup error        DIISStart       ....  0.200000
   # of expansion vecs  DIISMaxEq       ....     5
   Bias factor          DIISBfac        ....   1.050
   Max. coefficient     DIISMaxC        ....  10.000
 Trust-Rad. Augm. Hess. CNVTRAH         .... auto
   Auto Start mean grad. ratio tolernc. ....  1.125000
   Auto Start start iteration           ....    20
   Auto Start num. interpolation iter.  ....    10
   Max. Number of Micro iterations      ....    16
   Max. Number of Macro iterations      .... Maxiter - #DIIS iter
   Number of Davidson start vectors     ....     2
   Converg. threshold I  (grad. norm)   ....   1.000e-05
   Converg. threshold II (energy diff.) ....   1.000e-08
   Grad. Scal. Fac. for Micro threshold ....   0.100
   Minimum threshold for Micro iter.    ....   0.010
   NR start threshold (gradient norm)   ....   0.001
   Initial trust radius                 ....   0.400
   Minimum AH scaling param. (alpha)    ....   1.000
   Maximum AH scaling param. (alpha)    .... 1000.000
   Orbital update algorithm             .... Taylor
   White noise on init. David. guess    .... on
   Maximum white noise                  ....   0.010
   Quad. conv. algorithm                .... NR
 SOSCF                  CNVSOSCF        .... on
   Start iteration      SOSCFMaxIt      ....   150
   Startup grad/error   SOSCFStart      ....  0.003300
 Level Shifting         CNVShift        .... on
   Level shift para.    LevelShift      ....    0.2500
   Turn off err/grad.   ShiftErr        ....    0.0010
 Zerner damping         CNVZerner       .... off
 Static damping         CNVDamp         .... on
   Fraction old density DampFac         ....    0.7000
   Max. Damping (<1)    DampMax         ....    0.9800
   Min. Damping (>=0)   DampMin         ....    0.0000
   Turn off err/grad.   DampErr         ....    0.1000
 Fernandez-Rico         CNVRico         .... off

SCF Procedure:
 Maximum # iterations   MaxIter         ....   150
 SCF integral mode      SCFMode         .... Direct
   Integral package                     .... SHARK and LIBINT hybrid scheme
 Reset frequency        DirectResetFreq ....    20
 Integral Threshold     Thresh          ....  2.500e-11 Eh
 Primitive CutOff       TCut            ....  2.500e-12 Eh

Convergence Tolerance:
 Convergence Check Mode ConvCheckMode   .... Total+1el-Energy
 Convergence forced     ConvForced      .... 0
 Energy Change          TolE            ....  1.000e-08 Eh
 1-El. energy change                    ....  1.000e-05 Eh
 Orbital Gradient       TolG            ....  1.000e-05
 Orbital Rotation angle TolX            ....  1.000e-05
 DIIS Error             TolErr          ....  5.000e-07


Diagonalization of the overlap matrix:
Smallest eigenvalue                        ... 1.261e-04
Time for diagonalization                   ...    0.008 sec
Threshold for overlap eigenvalues          ... 1.000e-08
Number of eigenvalues below threshold      ... 0
Time for construction of square roots      ...    0.005 sec
Total time needed                          ...    0.014 sec

Time for model grid setup =    0.068 sec

------------------------------
INITIAL GUESS: MODEL POTENTIAL
------------------------------
Loading Hartree-Fock densities                     ... done
Calculating cut-offs                               ... done
Initializing the effective Hamiltonian             ... done
Setting up the integral package (SHARK)            ... done
Starting the Coulomb interaction                   ... done (   0.0 sec)
Reading the grid                                   ... done
Mapping shells                                     ... done
Starting the XC term evaluation                    ... done (   0.1 sec)
  promolecular density results
     # of electrons  =     33.994580136
     EX              =    -15.754861925
     EC              =     -1.089882811
     EX+EC           =    -16.844744736
Transforming the Hamiltonian                       ... done (   0.0 sec)
Diagonalizing the Hamiltonian                      ... done (   0.0 sec)
Back transforming the eigenvectors                 ... done (   0.0 sec)
Now organizing SCF variables                       ... done
                      ------------------
                      INITIAL GUESS DONE (   0.2 sec)
                      ------------------
-------------------
DFT GRID GENERATION
-------------------

General Integration Accuracy     IntAcc      ... 4.388
Radial Grid Type                 RadialGrid  ... OptM3 with GC (2021)
Angular Grid (max. ang.)         AngularGrid ... 4 (Lebedev-302)
Angular grid pruning method      GridPruning ... 4 (adaptive)
Weight generation scheme         WeightScheme... Becke
Basis function cutoff            BFCut       ... 1.0000e-11
Integration weight cutoff        WCut        ... 1.0000e-14
Angular grids for H and He will be reduced by one unit
Partially contracted basis set               ... off
Rotationally invariant grid construction     ... off

Total number of grid points                  ...    58129
Total number of batches                      ...      915
Average number of points per batch           ...       63
Average number of grid points per atom       ...     4152
Time for grid setup =    0.340 sec

--------------------
COSX GRID GENERATION
--------------------

GRIDX 1
-------
General Integration Accuracy     IntAcc      ... 3.816
Radial Grid Type                 RadialGrid  ... OptM3 with GC (2021)
Angular Grid (max. ang.)         AngularGrid ... 1 (Lebedev-50)
Angular grid pruning method      GridPruning ... 4 (adaptive)
Weight generation scheme         WeightScheme... Becke
Basis function cutoff            BFCut       ... 1.0000e-11
Integration weight cutoff        WCut        ... 1.0000e-14
Angular grids for H and He will be reduced by one unit
Partially contracted basis set               ... on
Rotationally invariant grid construction     ... off

Total number of grid points                  ...     7263
Total number of batches                      ...      123
Average number of points per batch           ...       59
Average number of grid points per atom       ...      519
UseSFitting                                  ... on

GRIDX 2
-------
General Integration Accuracy     IntAcc      ... 4.020
Radial Grid Type                 RadialGrid  ... OptM3 with GC (2021)
Angular Grid (max. ang.)         AngularGrid ... 2 (Lebedev-110)
Angular grid pruning method      GridPruning ... 4 (adaptive)
Weight generation scheme         WeightScheme... Becke
Basis function cutoff            BFCut       ... 1.0000e-11
Integration weight cutoff        WCut        ... 1.0000e-14
Angular grids for H and He will be reduced by one unit
Partially contracted basis set               ... on
Rotationally invariant grid construction     ... off

Total number of grid points                  ...    15681
Total number of batches                      ...      254
Average number of points per batch           ...       61
Average number of grid points per atom       ...     1120
UseSFitting                                  ... on

GRIDX 3
-------
General Integration Accuracy     IntAcc      ... 4.338
Radial Grid Type                 RadialGrid  ... OptM3 with GC (2021)
Angular Grid (max. ang.)         AngularGrid ... 3 (Lebedev-194)
Angular grid pruning method      GridPruning ... 4 (adaptive)
Weight generation scheme         WeightScheme... Becke
Basis function cutoff            BFCut       ... 1.0000e-11
Integration weight cutoff        WCut        ... 1.0000e-14
Angular grids for H and He will be reduced by one unit
Partially contracted basis set               ... on
Rotationally invariant grid construction     ... off

Total number of grid points                  ...    36146
Total number of batches                      ...      572
Average number of points per batch           ...       63
Average number of grid points per atom       ...     2582
UseSFitting                                  ... on

Time for X-Grid setup             =    0.299 sec

--------------
SCF ITERATIONS
--------------
ITER       Energy         Delta-E        Max-DP      RMS-DP      [F,P]     Damp
               ***  Starting incremental Fock matrix formation  ***
  0   -157.6851838031   0.000000000000 0.12148401  0.00241380  0.1235511 0.7000
                      *** Initiating the SOSCF procedure ***
                      *** Re-Reading the Fockian *** 
                      *** Removing any level shift *** 
ITER      Energy       Delta-E        Grad      Rot      Max-DP    RMS-DP
  1   -157.71438194  -0.0291981328  0.002496  0.002496  0.270742  0.005511
               *** Restarting incremental Fock matrix formation ***
  2   -157.75143830  -0.0370563649  0.012810  0.015962  0.104911  0.002686
  3   -157.75691831  -0.0054800066  0.007593  0.005685  0.035767  0.000889
  4   -157.76096910  -0.0040507955  0.000334  0.000441  0.002000  0.000112
  5   -157.76098084  -0.0000117344  0.000146  0.000167  0.000908  0.000041
  6   -157.76098254  -0.0000017014  0.000033  0.000025  0.000248  0.000010
  7   -157.76098263  -0.0000000956  0.000007  0.000007  0.000072  0.000002
                  ***Gradient check signals convergence***
              ***Rediagonalizing the Fockian in SOSCF/NRSCF***

               *****************************************************
               *                     SUCCESS                       *
               *           SCF CONVERGED AFTER   8 CYCLES          *
               *****************************************************


----------------
TOTAL SCF ENERGY
----------------

Total Energy       :         -157.76098264 Eh           -4292.89458 eV

Components:
Nuclear Repulsion  :          135.05179343 Eh            3674.94613 eV
Electronic Energy  :         -292.81277607 Eh           -7967.84071 eV
One Electron Energy:         -478.28409788 Eh          -13014.77196 eV
Two Electron Energy:          185.47132180 Eh            5046.93125 eV
Max COSX asymmetry :            0.00000497 Eh               0.00014 eV

Virial components:
Potential Energy   :         -313.96272827 Eh           -8543.36017 eV
Kinetic Energy     :          156.20174563 Eh            4250.46559 eV
Virial Ratio       :            2.00998220


DFT components:
N(Alpha)           :       16.999991571224 electrons
N(Beta)            :       16.999991571224 electrons
N(Total)           :       33.999983142447 electrons
E(X)               :      -16.247312438527 Eh       
E(C)               :       -1.099904660529 Eh       
E(XC)              :      -17.347217099057 Eh       
DFET-embed. en.    :        0.000000000000 Eh       

---------------
SCF CONVERGENCE
---------------

  Last Energy change         ...   -5.1663e-09  Tolerance :   1.0000e-08
  Last MAX-Density change    ...    7.1838e-06  Tolerance :   1.0000e-07
  Last RMS-Density change    ...    3.0809e-07  Tolerance :   5.0000e-09
  Last Orbital Gradient      ...    1.5551e-06  Tolerance :   1.0000e-05
  Last Orbital Rotation      ...    3.0755e-06  Tolerance :   1.0000e-05

             **** THE GBW FILE WAS UPDATED (14Feb_SVPD_LC_PBE_C1_wt_wb97_typ1_pos.gbw) ****
             **** DENSITY 14Feb_SVPD_LC_PBE_C1_wt_wb97_typ1_pos.scfp WAS UPDATED ****
             **** ENERGY FILE WAS UPDATED (14Feb_SVPD_LC_PBE_C1_wt_wb97_typ1_pos.en.tmp) ****
             **** THE GBW FILE WAS UPDATED (14Feb_SVPD_LC_PBE_C1_wt_wb97_typ1_pos.gbw) ****
             **** DENSITY 14Feb_SVPD_LC_PBE_C1_wt_wb97_typ1_pos.scfp WAS UPDATED ****
----------------
ORBITAL ENERGIES
----------------

  NO   OCC          E(Eh)            E(eV) 
   0   2.0000     -10.116802      -275.2922 
   1   2.0000     -10.113149      -275.1928 
   2   2.0000     -10.106428      -275.0099 
   3   2.0000     -10.086581      -274.4698 
   4   2.0000      -0.977603       -26.6019 
   5   2.0000      -0.894297       -24.3351 
   6   2.0000      -0.808133       -21.9904 
   7   2.0000      -0.714131       -19.4325 
   8   2.0000      -0.618245       -16.8233 
   9   2.0000      -0.609610       -16.5883 
  10   2.0000      -0.566088       -15.4040 
  11   2.0000      -0.523602       -14.2479 
  12   2.0000      -0.520040       -14.1510 
  13   2.0000      -0.497929       -13.5493 
  14   2.0000      -0.454764       -12.3748 
  15   2.0000      -0.444278       -12.0894 
  16   2.0000      -0.442827       -12.0499 
  17   0.0000       0.093826         2.5531 
  18   0.0000       0.119166         3.2427 
  19   0.0000       0.119217         3.2440 
  20   0.0000       0.134892         3.6706 
  21   0.0000       0.168791         4.5930 
  22   0.0000       0.175024         4.7626 
  23   0.0000       0.181362         4.9351 
  24   0.0000       0.200415         5.4536 
  25   0.0000       0.203533         5.5384 
  26   0.0000       0.225490         6.1359 
  27   0.0000       0.235666         6.4128 
  28   0.0000       0.237760         6.4698 
  29   0.0000       0.251168         6.8346 
  30   0.0000       0.260467         7.0877 
  31   0.0000       0.264017         7.1843 
  32   0.0000       0.267247         7.2722 
  33   0.0000       0.283812         7.7229 
  34   0.0000       0.308243         8.3877 
  35   0.0000       0.319410         8.6916 
  36   0.0000       0.332962         9.0604 
  37   0.0000       0.353524         9.6199 
  38   0.0000       0.361959         9.8494 
  39   0.0000       0.376937        10.2570 
  40   0.0000       0.393343        10.7034 
  41   0.0000       0.400464        10.8972 
  42   0.0000       0.401752        10.9322 
  43   0.0000       0.407381        11.0854 
  44   0.0000       0.423268        11.5177 
  45   0.0000       0.433182        11.7875 
  46   0.0000       0.439958        11.9719 
  47   0.0000       0.446998        12.1634 
  48   0.0000       0.448933        12.2161 
  49   0.0000       0.459021        12.4906 
  50   0.0000       0.467480        12.7208 
  51   0.0000       0.473963        12.8972 
  52   0.0000       0.482390        13.1265 
  53   0.0000       0.487562        13.2672 
  54   0.0000       0.492235        13.3944 
  55   0.0000       0.504886        13.7387 
  56   0.0000       0.512098        13.9349 
  57   0.0000       0.522948        14.2301 
  58   0.0000       0.534200        14.5363 
  59   0.0000       0.541508        14.7352 
  60   0.0000       0.545295        14.8382 
  61   0.0000       0.556065        15.1313 
  62   0.0000       0.562646        15.3104 
  63   0.0000       0.571936        15.5632 
  64   0.0000       0.580906        15.8073 
  65   0.0000       0.589370        16.0376 
  66   0.0000       0.592921        16.1342 
  67   0.0000       0.604333        16.4447 
  68   0.0000       0.607343        16.5266 
  69   0.0000       0.611969        16.6525 
  70   0.0000       0.621323        16.9071 
  71   0.0000       0.642126        17.4731 
  72   0.0000       0.645412        17.5625 
  73   0.0000       0.652783        17.7631 
  74   0.0000       0.663935        18.0666 
  75   0.0000       0.679429        18.4882 
  76   0.0000       0.703203        19.1351 
  77   0.0000       0.711538        19.3619 
  78   0.0000       0.718100        19.5405 
  79   0.0000       0.726484        19.7686 
  80   0.0000       0.733231        19.9522 
  81   0.0000       0.760671        20.6989 
  82   0.0000       0.764875        20.8133 
  83   0.0000       0.775642        21.1063 
  84   0.0000       0.983472        26.7616 
  85   0.0000       1.027337        27.9553 
  86   0.0000       1.044393        28.4194 
  87   0.0000       1.079728        29.3809 
  88   0.0000       1.086253        29.5585 
  89   0.0000       1.106893        30.1201 
  90   0.0000       1.116468        30.3806 
  91   0.0000       1.131348        30.7856 
  92   0.0000       1.150076        31.2952 
  93   0.0000       1.156398        31.4672 
  94   0.0000       1.167223        31.7618 
  95   0.0000       1.172440        31.9037 
  96   0.0000       1.174546        31.9610 
  97   0.0000       1.196225        32.5509 
  98   0.0000       1.215286        33.0696 
  99   0.0000       1.260656        34.3042 
 100   0.0000       1.281357        34.8675 
 101   0.0000       1.312718        35.7209 
 102   0.0000       1.350063        36.7371 
 103   0.0000       1.379402        37.5354 
 104   0.0000       1.421145        38.6713 
 105   0.0000       1.438461        39.1425 
 106   0.0000       1.470993        40.0278 
 107   0.0000       1.517231        41.2859 
 108   0.0000       1.538190        41.8563 
 109   0.0000       1.575809        42.8799 
 110   0.0000       1.707377        46.4601 
 111   0.0000       1.724451        46.9247 
 112   0.0000       1.771209        48.1971 
 113   0.0000       1.784827        48.5676 
 114   0.0000       1.817455        49.4555 
 115   0.0000       1.829488        49.7829 
 116   0.0000       1.846705        50.2514 
 117   0.0000       1.889763        51.4231 
 118   0.0000       1.903652        51.8010 
 119   0.0000       1.948500        53.0214 
 120   0.0000       2.019899        54.9642 
 121   0.0000       2.033905        55.3454 
 122   0.0000       2.083111        56.6843 
 123   0.0000       2.110351        57.4256 
 124   0.0000       2.129732        57.9529 
 125   0.0000       2.160403        58.7876 
 126   0.0000       2.180907        59.3455 
 127   0.0000       2.191550        59.6351 
 128   0.0000       2.218923        60.3800 
 129   0.0000       2.221480        60.4495 
 130   0.0000       2.244486        61.0756 
 131   0.0000       2.258564        61.4587 
 132   0.0000       2.305943        62.7479 
 133   0.0000       2.332564        63.4723 
 134   0.0000       2.365583        64.3708 
 135   0.0000       2.407877        65.5217 
 136   0.0000       2.441468        66.4357 
 137   0.0000       2.490896        67.7807 
 138   0.0000       2.517691        68.5098 
 139   0.0000       2.607981        70.9668 
 140   0.0000       2.624024        71.4033 
 141   0.0000       2.674062        72.7649 
 142   0.0000       2.707500        73.6748 
 143   0.0000       2.750711        74.8506 
 144   0.0000       2.763433        75.1968 
 145   0.0000       2.813657        76.5635 
 146   0.0000       2.853988        77.6610 
 147   0.0000       2.903318        79.0033 
 148   0.0000       2.910288        79.1930 
 149   0.0000       2.983645        81.1891 
 150   0.0000       3.056735        83.1780 
 151   0.0000       3.158952        85.9595 
 152   0.0000       3.204388        87.1958 
 153   0.0000       3.248532        88.3971 
 154   0.0000       3.260256        88.7161 
 155   0.0000       3.311919        90.1219 
 156   0.0000       3.333892        90.7198 
 157   0.0000       3.377370        91.9029 
 158   0.0000       3.431006        93.3624 
 159   0.0000       3.451174        93.9112 

                    ********************************
                    * MULLIKEN POPULATION ANALYSIS *
                    ********************************

-----------------------
MULLIKEN ATOMIC CHARGES
-----------------------
   0 C :   -0.398903
   1 C :    0.708466
   2 C :   -0.447317
   3 C :    0.419628
   4 H :   -0.227045
   5 H :   -0.018795
   6 H :   -0.101368
   7 H :    0.052435
   8 H :   -0.046406
   9 H :   -0.010435
  10 H :    0.055672
  11 H :   -0.044723
  12 H :    0.026938
  13 H :    0.031853
Sum of atomic charges:   -0.0000000

--------------------------------
MULLIKEN REDUCED ORBITAL CHARGES
--------------------------------
  0 C s       :     2.903338  s :     2.903338
      pz      :     1.009261  p :     3.020156
      px      :     1.005273
      py      :     1.005622
      dz2     :     0.191384  d :     0.475408
      dxz     :     0.031705
      dyz     :     0.126118
      dx2y2   :     0.084862
      dxy     :     0.041340
  1 C s       :     2.362974  s :     2.362974
      pz      :     0.933757  p :     2.788533
      px      :     0.991726
      py      :     0.863050
      dz2     :     0.044124  d :     0.140028
      dxz     :     0.015308
      dyz     :     0.047902
      dx2y2   :     0.024887
      dxy     :     0.007807
  2 C s       :     2.929889  s :     2.929889
      pz      :     0.962291  p :     3.023992
      px      :     1.047973
      py      :     1.013728
      dz2     :     0.027699  d :     0.493436
      dxz     :     0.208333
      dyz     :     0.024237
      dx2y2   :     0.081695
      dxy     :     0.151471
  3 C s       :     2.572362  s :     2.572362
      pz      :     0.953925  p :     2.880328
      px      :     1.010465
      py      :     0.915938
      dz2     :    -0.004521  d :     0.127681
      dxz     :     0.055783
      dyz     :     0.003029
      dx2y2   :     0.022040
      dxy     :     0.051351
  4 H s       :     1.228559  s :     1.228559
      pz      :    -0.006465  p :    -0.001514
      px      :     0.015991
      py      :    -0.011040
  5 H s       :     0.975533  s :     0.975533
      pz      :     0.029495  p :     0.043263
      px      :     0.031760
      py      :    -0.017992
  6 H s       :     1.109997  s :     1.109997
      pz      :    -0.009476  p :    -0.008630
      px      :    -0.015634
      py      :     0.016480
  7 H s       :     0.940696  s :     0.940696
      pz      :    -0.003624  p :     0.006869
      px      :    -0.027182
      py      :     0.037675
  8 H s       :     1.040754  s :     1.040754
      pz      :    -0.015258  p :     0.005652
      px      :     0.044365
      py      :    -0.023455
  9 H s       :     0.987595  s :     0.987595
      pz      :     0.028508  p :     0.022840
      px      :     0.013152
      py      :    -0.018820
 10 H s       :     0.921743  s :     0.921743
      pz      :    -0.004177  p :     0.022585
      px      :    -0.009761
      py      :     0.036522
 11 H s       :     1.031173  s :     1.031173
      pz      :    -0.002334  p :     0.013551
      px      :    -0.005085
      py      :     0.020969
 12 H s       :     0.916697  s :     0.916697
      pz      :     0.070996  p :     0.056365
      px      :     0.010029
      py      :    -0.024660
 13 H s       :     0.949446  s :     0.949446
      pz      :    -0.003057  p :     0.018701
      px      :     0.004292
      py      :     0.017466


                     *******************************
                     * LOEWDIN POPULATION ANALYSIS *
                     *******************************

----------------------
LOEWDIN ATOMIC CHARGES
----------------------
   0 C :   -0.103285
   1 C :    0.087261
   2 C :   -0.105640
   3 C :    0.090757
   4 H :   -0.023590
   5 H :   -0.028576
   6 H :   -0.012993
   7 H :    0.035318
   8 H :    0.032295
   9 H :    0.023913
  10 H :    0.032858
  11 H :   -0.008397
  12 H :   -0.016746
  13 H :   -0.003175

-------------------------------
LOEWDIN REDUCED ORBITAL CHARGES
-------------------------------
  0 C s       :     2.676666  s :     2.676666
      pz      :     0.909472  p :     2.747058
      px      :     0.921533
      py      :     0.916053
      dz2     :     0.153004  d :     0.679561
      dxz     :     0.121387
      dyz     :     0.170781
      dx2y2   :     0.161653
      dxy     :     0.072737
  1 C s       :     2.667544  s :     2.667544
      pz      :     0.927216  p :     2.813017
      px      :     0.938412
      py      :     0.947388
      dz2     :     0.078403  d :     0.432179
      dxz     :     0.092697
      dyz     :     0.130006
      dx2y2   :     0.082246
      dxy     :     0.048827
  2 C s       :     2.682646  s :     2.682646
      pz      :     0.919256  p :     2.741725
      px      :     0.902900
      py      :     0.919569
      dz2     :     0.100923  d :     0.681268
      dxz     :     0.178120
      dyz     :     0.100132
      dx2y2   :     0.159389
      dxy     :     0.142705
  3 C s       :     2.696187  s :     2.696187
      pz      :     0.940285  p :     2.804811
      px      :     0.919332
      py      :     0.945194
      dz2     :     0.036435  d :     0.408245
      dxz     :     0.118318
      dyz     :     0.071780
      dx2y2   :     0.097922
      dxy     :     0.083790
  4 H s       :     0.740840  s :     0.740840
      pz      :     0.093193  p :     0.282750
      px      :     0.082361
      py      :     0.107196
  5 H s       :     0.721223  s :     0.721223
      pz      :     0.098625  p :     0.307354
      px      :     0.118434
      py      :     0.090295
  6 H s       :     0.735027  s :     0.735027
      pz      :     0.082912  p :     0.277967
      px      :     0.073032
      py      :     0.122023
  7 H s       :     0.719573  s :     0.719573
      pz      :     0.076930  p :     0.245109
      px      :     0.066863
      py      :     0.101316
  8 H s       :     0.726179  s :     0.726179
      pz      :     0.067577  p :     0.241526
      px      :     0.109504
      py      :     0.064445
  9 H s       :     0.723881  s :     0.723881
      pz      :     0.105347  p :     0.252206
      px      :     0.077283
      py      :     0.069576
 10 H s       :     0.723157  s :     0.723157
      pz      :     0.077871  p :     0.243985
      px      :     0.064326
      py      :     0.101788
 11 H s       :     0.735700  s :     0.735700
      pz      :     0.093210  p :     0.272697
      px      :     0.068045
      py      :     0.111441
 12 H s       :     0.724748  s :     0.724748
      pz      :     0.125581  p :     0.291997
      px      :     0.083398
      py      :     0.083018
 13 H s       :     0.733221  s :     0.733221
      pz      :     0.084480  p :     0.269953
      px      :     0.069116
      py      :     0.116357


                      *****************************
                      * MAYER POPULATION ANALYSIS *
                      *****************************

  NA   - Mulliken gross atomic population
  ZA   - Total nuclear charge
  QA   - Mulliken gross atomic charge
  VA   - Mayer's total valence
  BVA  - Mayer's bonded valence
  FA   - Mayer's free valence

  ATOM       NA         ZA         QA         VA         BVA        FA
  0 C      6.3989     6.0000    -0.3989     5.1168     5.1168     0.0000
  1 C      5.2915     6.0000     0.7085     3.8977     3.8977    -0.0000
  2 C      6.4473     6.0000    -0.4473     5.0442     5.0442     0.0000
  3 C      5.5804     6.0000     0.4196     4.0450     4.0450    -0.0000
  4 H      1.2270     1.0000    -0.2270     0.9171     0.9171    -0.0000
  5 H      1.0188     1.0000    -0.0188     1.0748     1.0748    -0.0000
  6 H      1.1014     1.0000    -0.1014     0.9442     0.9442     0.0000
  7 H      0.9476     1.0000     0.0524     1.0399     1.0399     0.0000
  8 H      1.0464     1.0000    -0.0464     1.0633     1.0633     0.0000
  9 H      1.0104     1.0000    -0.0104     1.1224     1.1224     0.0000
 10 H      0.9443     1.0000     0.0557     1.0677     1.0677    -0.0000
 11 H      1.0447     1.0000    -0.0447     1.0189     1.0189    -0.0000
 12 H      0.9731     1.0000     0.0269     1.0962     1.0962    -0.0000
 13 H      0.9681     1.0000     0.0319     1.0153     1.0153    -0.0000

  Mayer bond orders larger than 0.100000
B(  0-C ,  1-C ) :   1.2969 B(  0-C ,  2-C ) :   1.1916 B(  0-C ,  4-H ) :   0.1813 
B(  0-C ,  5-H ) :   0.2098 B(  0-C ,  6-H ) :   0.1903 B(  0-C ,  7-H ) :   0.8989 
B(  0-C ,  8-H ) :   0.9804 B(  0-C ,  9-H ) :   0.1148 B(  0-C , 10-H ) :   0.1006 
B(  1-C ,  4-H ) :   0.8141 B(  1-C ,  5-H ) :   0.7867 B(  1-C ,  6-H ) :   0.7808 
B(  2-C ,  3-C ) :   1.3105 B(  2-C ,  7-H ) :   0.1071 B(  2-C ,  9-H ) :   0.9577 
B(  2-C , 10-H ) :   0.9415 B(  2-C , 11-H ) :   0.1778 B(  2-C , 12-H ) :   0.1461 
B(  2-C , 13-H ) :   0.1530 B(  3-C , 11-H ) :   0.8403 B(  3-C , 12-H ) :   0.8726 
B(  3-C , 13-H ) :   0.8473 

-------
TIMINGS
-------

Total SCF time: 0 days 0 hours 0 min 12 sec 

Total time                  ....      12.278 sec
Sum of individual times     ....      12.131 sec  ( 98.8%)

Fock matrix formation       ....      11.268 sec  ( 91.8%)
  Split-RI-J                ....       0.445 sec  (  3.9% of F)
  Chain of spheres X        ....       8.942 sec  ( 79.4% of F)
  XC integration            ....       1.859 sec  ( 16.5% of F)
    Basis function eval.    ....       0.596 sec  ( 32.1% of XC)
    Density eval.           ....       0.419 sec  ( 22.5% of XC)
    XC-Functional eval.     ....       0.176 sec  (  9.5% of XC)
    XC-Potential eval.      ....       0.566 sec  ( 30.5% of XC)
Diagonalization             ....       0.011 sec  (  0.1%)
Density matrix formation    ....       0.002 sec  (  0.0%)
Population analysis         ....       0.005 sec  (  0.0%)
Initial guess               ....       0.104 sec  (  0.8%)
Orbital Transformation      ....       0.000 sec  (  0.0%)
Orbital Orthonormalization  ....       0.000 sec  (  0.0%)
DIIS solution               ....       0.005 sec  (  0.0%)
SOSCF solution              ....       0.028 sec  (  0.2%)
Grid generation             ....       0.707 sec  (  5.8%)

Maximum memory used throughout the entire SCF-calculation: 20.5 MB

-------------------------   --------------------
FINAL SINGLE POINT ENERGY      -157.760982639226
-------------------------   --------------------


                            ***************************************
                            *     ORCA property calculations      *
                            ***************************************

                                    ---------------------
                                    Active property flags
                                    ---------------------
   (+) Dipole Moment


------------------------------------------------------------------------------
                       ORCA ELECTRIC PROPERTIES CALCULATION
------------------------------------------------------------------------------

Dipole Moment Calculation                       ... on
Quadrupole Moment Calculation                   ... off
Polarizability Calculation                      ... off
GBWName                                         ... 14Feb_SVPD_LC_PBE_C1_wt_wb97_typ1_pos.gbw
Electron density file                           ... 14Feb_SVPD_LC_PBE_C1_wt_wb97_typ1_pos.scfp
The origin for moment calculation is the CENTER OF MASS  = ( 1.029057,  1.954978 -5.807296)

-------------
DIPOLE MOMENT
-------------
                                X             Y             Z
Electronic contribution:      0.84832       0.05366      -0.19227
Nuclear contribution   :     -0.83100      -0.05970       0.18742
                        -----------------------------------------
Total Dipole Moment    :      0.01732      -0.00603      -0.00485
                        -----------------------------------------
Magnitude (a.u.)       :      0.01897
Magnitude (Debye)      :      0.04822



--------------------
Rotational spectrum 
--------------------
 
Rotational constants in cm-1:     0.433656     0.172838     0.140497 
Rotational constants in MHz : 13000.688694  5181.547473  4211.992439 

 Dipole components along the rotational axes: 
x,y,z [a.u.] :     0.005019    -0.017552     0.005158 
x,y,z [Debye]:     0.012756    -0.044614     0.013112 

 

Timings for individual modules:

Sum of individual times         ...       12.826 sec (=   0.214 min)
GTO integral calculation        ...        0.361 sec (=   0.006 min)   2.8 %
SCF iterations                  ...       12.465 sec (=   0.208 min)  97.2 %
                             ****ORCA TERMINATED NORMALLY****
TOTAL RUN TIME: 0 days 0 hours 0 minutes 13 seconds 175 msec
