
                                        *****************
                                        * O   R   C   A *
                                        *****************

                                            #,                                       
                                            ###                                      
                                            ####                                     
                                            #####                                    
                                            ######                                   
                                           ########,                                 
                                     ,,################,,,,,                         
                               ,,#################################,,                 
                          ,,##########################################,,             
                       ,#########################################, ''#####,          
                    ,#############################################,,   '####,        
                  ,##################################################,,,,####,       
                ,###########''''           ''''###############################       
              ,#####''   ,,,,##########,,,,          '''####'''          '####       
            ,##' ,,,,###########################,,,                        '##       
           ' ,,###''''                  '''############,,,                           
         ,,##''                                '''############,,,,        ,,,,,,###''
      ,#''                                            '''#######################'''  
     '                                                          ''''####''''         
             ,#######,   #######,   ,#######,      ##                                
            ,#'     '#,  ##    ##  ,#'     '#,    #''#        ######   ,####,        
            ##       ##  ##   ,#'  ##            #'  '#       #        #'  '#        
            ##       ##  #######   ##           ,######,      #####,   #    #        
            '#,     ,#'  ##    ##  '#,     ,#' ,#      #,         ##   #,  ,#        
             '#######'   ##     ##  '#######'  #'      '#     #####' # '####'        



                  #######################################################
                  #                        -***-                        #
                  #          Department of theory and spectroscopy      #
                  #    Directorship and core code : Frank Neese         #
                  #        Max Planck Institute fuer Kohlenforschung    #
                  #                Kaiser Wilhelm Platz 1               #
                  #                 D-45470 Muelheim/Ruhr               #
                  #                      Germany                        #
                  #                                                     #
                  #                  All rights reserved                #
                  #                        -***-                        #
                  #######################################################


                         Program Version 5.0.0 -  RELEASE  -
                                (SVN: $Rev: 19529$)
                ($Date: 2021-06-28 11:36:33 +0200 (Mo, 28 Jun 2021) $)


 With contributions from (in alphabetic order):
   Daniel Aravena         : Magnetic Suceptibility
   Michael Atanasov       : Ab Initio Ligand Field Theory (pilot matlab implementation)
   Alexander A. Auer      : GIAO ZORA, VPT2 properties, NMR spectrum
   Ute Becker             : Parallelization
   Giovanni Bistoni       : ED, misc. LED, open-shell LED, HFLD
   Martin Brehm           : Molecular dynamics
   Dmytro Bykov           : SCF Hessian
   Vijay G. Chilkuri      : MRCI spin determinant printing, contributions to CSF-ICE
   Dipayan Datta          : RHF DLPNO-CCSD density
   Achintya Kumar Dutta   : EOM-CC, STEOM-CC
   Dmitry Ganyushin       : Spin-Orbit,Spin-Spin,Magnetic field MRCI
   Miquel Garcia          : C-PCM Hessian, Gaussian charge scheme
   Yang Guo               : DLPNO-NEVPT2, F12-NEVPT2, CIM, IAO-localization
   Andreas Hansen         : Spin unrestricted coupled pair/coupled cluster methods
   Benjamin Helmich-Paris : MC-RPA, TRAH-SCF, COSX integrals
   Lee Huntington         : MR-EOM, pCC
   Robert Izsak           : Overlap fitted RIJCOSX, COSX-SCS-MP3, EOM
   Marcus Kettner         : VPT2
   Christian Kollmar      : KDIIS, OOCD, Brueckner-CCSD(T), CCSD density, CASPT2, CASPT2-K
   Simone Kossmann        : Meta GGA functionals, TD-DFT gradient, OOMP2, MP2 Hessian
   Martin Krupicka        : Initial AUTO-CI
   Lucas Lang             : DCDCAS
   Marvin Lechner         : AUTO-CI (C++ implementation), FIC-MRCC
   Dagmar Lenk            : GEPOL surface, SMD
   Dimitrios Liakos       : Extrapolation schemes; Compound Job, initial MDCI parallelization
   Dimitrios Manganas     : Further ROCIS development; embedding schemes
   Dimitrios Pantazis     : SARC Basis sets
   Anastasios Papadopoulos: AUTO-CI, single reference methods and gradients
   Taras Petrenko         : DFT Hessian,TD-DFT gradient, ASA, ECA, R-Raman, ABS, FL, XAS/XES, NRVS
   Peter Pinski           : DLPNO-MP2, DLPNO-MP2 Gradient
   Christoph Reimann      : Effective Core Potentials
   Marius Retegan         : Local ZFS, SOC
   Christoph Riplinger    : Optimizer, TS searches, QM/MM, DLPNO-CCSD(T), (RO)-DLPNO pert. Triples
   Tobias Risthaus        : Range-separated hybrids, TD-DFT gradient, RPA, STAB
   Michael Roemelt        : Original ROCIS implementation
   Masaaki Saitow         : Open-shell DLPNO-CCSD energy and density
   Barbara Sandhoefer     : DKH picture change effects
   Avijit Sen             : IP-ROCIS
   Kantharuban Sivalingam : CASSCF convergence, NEVPT2, FIC-MRCI
   Bernardo de Souza      : ESD, SOC TD-DFT
   Georgi Stoychev        : AutoAux, RI-MP2 NMR
   Willem Van den Heuvel  : Paramagnetic NMR
   Boris Wezisla          : Elementary symmetry handling
   Frank Wennmohs         : Technical directorship


 We gratefully acknowledge several colleagues who have allowed us to
 interface, adapt or use parts of their codes:
   Stefan Grimme, W. Hujo, H. Kruse, P. Pracht,  : VdW corrections, initial TS optimization,
                  C. Bannwarth, S. Ehlert          DFT functionals, gCP, sTDA/sTD-DF
   Ed Valeev, F. Pavosevic, A. Kumar             : LibInt (2-el integral package), F12 methods
   Garnet Chan, S. Sharma, J. Yang, R. Olivares  : DMRG
   Ulf Ekstrom                                   : XCFun DFT Library
   Mihaly Kallay                                 : mrcc  (arbitrary order and MRCC methods)
   Jiri Pittner, Ondrej Demel                    : Mk-CCSD
   Frank Weinhold                                : gennbo (NPA and NBO analysis)
   Christopher J. Cramer and Donald G. Truhlar   : smd solvation model
   Lars Goerigk                                  : TD-DFT with DH, B97 family of functionals
   V. Asgeirsson, H. Jonsson                     : NEB implementation
   FAccTs GmbH                                   : IRC, NEB, NEB-TS, DLPNO-Multilevel, CI-OPT
                                                   MM, QMMM, 2- and 3-layer-ONIOM, Crystal-QMMM,
                                                   LR-CPCM, SF, NACMEs, symmetry and pop. for TD-DFT,
                                                   nearIR, NL-DFT gradient (VV10), updates on ESD,
                                                   ML-optimized integration grids
   S Lehtola, MJT Oliveira, MAL Marques          : LibXC Library
   Liviu Ungur et al                             : ANISO software


 Your calculation uses the libint2 library for the computation of 2-el integrals
 For citations please refer to: http://libint.valeyev.net

 Your ORCA version has been built with support for libXC version: 5.1.0
 For citations please refer to: https://tddft.org/programs/libxc/

 This ORCA versions uses:
   CBLAS   interface :  Fast vector & matrix operations
   LAPACKE interface :  Fast linear algebra routines
   SCALAPACK package :  Parallel linear algebra routines
   Shared memory     :  Shared parallel matrices
   BLAS/LAPACK       :  OpenBLAS 0.3.15  USE64BITINT DYNAMIC_ARCH NO_AFFINITY Haswell SINGLE_THREADED
        Core in use  :  Haswell
   Copyright (c) 2011-2014, The OpenBLAS Project


Your calculation utilizes the atom-pairwise dispersion correction
with the Becke-Johnson damping scheme (D3BJ)
Cite in your paper:
S.Grimme, S.Ehrlich, L.Goerigk, J Comput Chem, (2011), 32, 1456–1465 
S.Grimme, J.Antony, S.Ehrlich and H.Krieg, J.Chem.Phys., 132, (2010), 154104 
   

================================================================================

----- Orbital basis set information -----
Your calculation utilizes the basis: def2-SVP
   F. Weigend and R. Ahlrichs, Phys. Chem. Chem. Phys. 7, 3297 (2005).

----- AuxJ basis set information -----
Your calculation utilizes the auxiliary basis: def2/J
   F. Weigend, Phys. Chem. Chem. Phys. 8, 1057 (2006).

================================================================================
                                        WARNINGS
                       Please study these warnings very carefully!
================================================================================


INFO   : the flag for use of the SHARK integral package has been found!

================================================================================
                                       INPUT FILE
================================================================================
NAME = SVP_B3LYP_C2_wt_dlpno_neg.com
|  1> !B3LYP D3BJ RIJCOSX def2-SVP def2/J TightSCF
|  2> *xyz 0 1
|  3> C          0.84888        2.66797       -4.30235
|  4> C          2.09343        1.86104       -4.65684
|  5> H          2.44481        2.04157       -5.67499
|  6> H          2.90175        2.13786       -3.98034
|  7> S          1.87964        0.07859       -4.46297
|  8> O          3.20757       -0.46611       -4.42026
|  9> F          1.07506       -0.05616       -3.26876
| 10> O          1.13166       -0.31996       -5.67903
| 11> H          0.05064        2.40112       -4.96303
| 12> H          1.06043        3.71210       -4.40203
| 13> H          0.56237        2.45684       -3.29327
| 14> *
| 15> 
| 16> %MaxCore 64000
| 17> 
| 18> %pal nprocs 4
| 19> end  
| 20> 
| 21> %scf
| 22>   MaxIter 150
| 23> end
| 24> 
| 25> 
| 26>                          ****END OF INPUT****
================================================================================

                       ****************************
                       * Single Point Calculation *
                       ****************************

---------------------------------
CARTESIAN COORDINATES (ANGSTROEM)
---------------------------------
  C      0.848880    2.667970   -4.302350
  C      2.093430    1.861040   -4.656840
  H      2.444810    2.041570   -5.674990
  H      2.901750    2.137860   -3.980340
  S      1.879640    0.078590   -4.462970
  O      3.207570   -0.466110   -4.420260
  F      1.075060   -0.056160   -3.268760
  O      1.131660   -0.319960   -5.679030
  H      0.050640    2.401120   -4.963030
  H      1.060430    3.712100   -4.402030
  H      0.562370    2.456840   -3.293270

----------------------------
CARTESIAN COORDINATES (A.U.)
----------------------------
  NO LB      ZA    FRAG     MASS         X           Y           Z
   0 C     6.0000    0    12.011    1.604151    5.041733   -8.130263
   1 C     6.0000    0    12.011    3.956009    3.516856   -8.800152
   2 H     1.0000    0     1.008    4.620021    3.858008  -10.724177
   3 H     1.0000    0     1.008    5.483513    4.039970   -7.521753
   4 S    16.0000    0    32.060    3.552005    0.148514   -8.433791
   5 O     8.0000    0    15.999    6.061429   -0.880820   -8.353081
   6 F     9.0000    0    18.998    2.031569   -0.106127   -6.177061
   7 O     8.0000    0    15.999    2.138527   -0.604637  -10.731811
   8 H     1.0000    0     1.008    0.095696    4.537459   -9.378767
   9 H     1.0000    0     1.008    2.003922    7.014852   -8.318631
  10 H     1.0000    0     1.008    1.062725    4.642755   -6.223378

--------------------------------
INTERNAL COORDINATES (ANGSTROEM)
--------------------------------
 C      0   0   0     0.000000000000     0.00000000     0.00000000
 C      1   0   0     1.525025864535     0.00000000     0.00000000
 H      2   1   0     1.092102745991   113.06736607     0.00000000
 H      2   1   3     1.089799424114   109.06281783   119.33732853
 S      2   1   3     1.805663241997   113.62454011   237.05743021
 O      5   2   1     1.435938828432   105.55460841   197.66012960
 F      5   2   1     1.446251728780   104.27042723   321.55528125
 O      5   2   1     1.482267892960   103.71447179    78.73659451
 H      1   2   3     1.069997234810   109.47089969    60.66283857
 H      1   2   3     1.069998580279   109.47101711   300.66281263
 H      1   2   3     1.070002945510   109.47085826   180.66253675

---------------------------
INTERNAL COORDINATES (A.U.)
---------------------------
 C      0   0   0     0.000000000000     0.00000000     0.00000000
 C      1   0   0     2.881881231117     0.00000000     0.00000000
 H      2   1   0     2.063775100025   113.06736607     0.00000000
 H      2   1   3     2.059422452481   109.06281783   119.33732853
 S      2   1   3     3.412209017463   113.62454011   237.05743021
 O      5   2   1     2.713531130801   105.55460841   197.66012960
 F      5   2   1     2.733019688105   104.27042723   321.55528125
 O      5   2   1     2.801080374799   103.71447179    78.73659451
 H      1   2   3     2.022001737843   109.47089969    60.66283857
 H      1   2   3     2.022004280413   109.47101711   300.66281263
 H      1   2   3     2.022012529503   109.47085826   180.66253675

---------------------
BASIS SET INFORMATION
---------------------
There are 5 groups of distinct atoms

 Group   1 Type C   : 7s4p1d contracted to 3s2p1d pattern {511/31/1}
 Group   2 Type H   : 4s1p contracted to 2s1p pattern {31/1}
 Group   3 Type S   : 10s7p1d contracted to 4s3p1d pattern {5311/511/1}
 Group   4 Type O   : 7s4p1d contracted to 3s2p1d pattern {511/31/1}
 Group   5 Type F   : 7s4p1d contracted to 3s2p1d pattern {511/31/1}

Atom   0C    basis set group =>   1
Atom   1C    basis set group =>   1
Atom   2H    basis set group =>   2
Atom   3H    basis set group =>   2
Atom   4S    basis set group =>   3
Atom   5O    basis set group =>   4
Atom   6F    basis set group =>   5
Atom   7O    basis set group =>   4
Atom   8H    basis set group =>   2
Atom   9H    basis set group =>   2
Atom  10H    basis set group =>   2
---------------------------------
AUXILIARY/J BASIS SET INFORMATION
---------------------------------
There are 5 groups of distinct atoms

 Group   1 Type C   : 12s5p4d2f1g contracted to 6s4p3d1f1g pattern {711111/2111/211/2/1}
 Group   2 Type H   : 5s2p1d contracted to 3s1p1d pattern {311/2/1}
 Group   3 Type S   : 14s5p5d2f1g contracted to 8s4p3d1f1g pattern {71111111/2111/311/2/1}
 Group   4 Type O   : 12s5p4d2f1g contracted to 6s4p3d1f1g pattern {711111/2111/211/2/1}
 Group   5 Type F   : 12s5p4d2f1g contracted to 6s4p3d1f1g pattern {711111/2111/211/2/1}

Atom   0C    basis set group =>   1
Atom   1C    basis set group =>   1
Atom   2H    basis set group =>   2
Atom   3H    basis set group =>   2
Atom   4S    basis set group =>   3
Atom   5O    basis set group =>   4
Atom   6F    basis set group =>   5
Atom   7O    basis set group =>   4
Atom   8H    basis set group =>   2
Atom   9H    basis set group =>   2
Atom  10H    basis set group =>   2


           ************************************************************
           *        Program running with 4 parallel MPI-processes     *
           *              working on a common directory               *
           ************************************************************
------------------------------------------------------------------------------
                           ORCA GTO INTEGRAL CALCULATION
                           -- RI-GTO INTEGRALS CHOSEN --
------------------------------------------------------------------------------
------------------------------------------------------------------------------
                   ___                                                        
                  /   \      - P O W E R E D   B Y -                         
                 /     \                                                     
                 |  |  |   _    _      __       _____    __    __             
                 |  |  |  | |  | |    /  \     |  _  \  |  |  /  |          
                  \  \/   | |  | |   /    \    | | | |  |  | /  /          
                 / \  \   | |__| |  /  /\  \   | |_| |  |  |/  /          
                |  |  |   |  __  | /  /__\  \  |    /   |      \           
                |  |  |   | |  | | |   __   |  |    \   |  |\   \          
                \     /   | |  | | |  |  |  |  | |\  \  |  | \   \       
                 \___/    |_|  |_| |__|  |__|  |_| \__\ |__|  \__/        
                                                                              
                      - O R C A' S   B I G   F R I E N D -                    
                                      &                                       
                       - I N T E G R A L  F E E D E R -                       
                                                                              
 v1 FN, 2020, v2 2021                                                         
------------------------------------------------------------------------------


Reading SHARK input file SVP_B3LYP_C2_wt_dlpno_neg.SHARKINP.tmp ... ok
----------------------
SHARK INTEGRAL PACKAGE
----------------------

Number of atoms                             ...     11
Number of basis functions                   ...    113
Number of shells                            ...     53
Maximum angular momentum                    ...      2
Integral batch strategy                     ... SHARK/LIBINT Hybrid
RI-J (if used) integral strategy            ... SPLIT-RIJ (Revised 2003 algorithm where possible)
Printlevel                                  ...      1
Contraction scheme used                     ... SEGMENTED contraction
Coulomb Range Separation                    ... NOT USED
Exchange Range Separation                   ... NOT USED
Finite Nucleus Model                        ... NOT USED
Auxiliary Coulomb fitting basis             ... AVAILABLE
   # of basis functions in Aux-J            ...    351
   # of shells in Aux-J                     ...    117
   Maximum angular momentum in Aux-J        ...      4
Auxiliary J/K fitting basis                 ... NOT available
Auxiliary Correlation fitting basis         ... NOT available
Auxiliary 'external' fitting basis          ... NOT available
Integral threshold                          ...     2.500000e-11
Primitive cut-off                           ...     2.500000e-12
Primitive pair pre-selection threshold      ...     2.500000e-12

Calculating pre-screening integrals         ... done (  0.0 sec) Dimension = 53
Organizing shell pair data                  ... done (  0.0 sec)
Shell pair information
Total number of shell pairs                 ...      1431
Shell pairs after pre-screening             ...      1388
Total number of primitive shell pairs       ...      5459
Primitive shell pairs kept                  ...      3992
          la=0 lb=0:    416 shell pairs
          la=1 lb=0:    506 shell pairs
          la=1 lb=1:    168 shell pairs
          la=2 lb=0:    170 shell pairs
          la=2 lb=1:    107 shell pairs
          la=2 lb=2:     21 shell pairs

Calculating one electron integrals          ... done (  0.0 sec)
Calculating RI/J V-Matrix + Cholesky decomp.... done (  0.0 sec)
Calculating Nuclear repulsion               ... done (  0.0 sec) ENN=    363.658265452404 Eh

SHARK setup successfully completed in   0.1 seconds

Maximum memory used throughout the entire GTOINT-calculation: 8.8 MB


           ************************************************************
           *        Program running with 4 parallel MPI-processes     *
           *              working on a common directory               *
           ************************************************************
-------------------------------------------------------------------------------
                                 ORCA SCF
-------------------------------------------------------------------------------

------------
SCF SETTINGS
------------
Hamiltonian:
 Density Functional     Method          .... DFT(GTOs)
 Exchange Functional    Exchange        .... B88
   X-Alpha parameter    XAlpha          ....  0.666667
   Becke's b parameter  XBeta           ....  0.004200
 Correlation Functional Correlation     .... LYP
 LDA part of GGA corr.  LDAOpt          .... VWN-5
 Gradients option       PostSCFGGA      .... off
 Hybrid DFT is turned on
   Fraction HF Exchange ScalHFX         ....  0.200000
   Scaling of DF-GGA-X  ScalDFX         ....  0.720000
   Scaling of DF-GGA-C  ScalDFC         ....  0.810000
   Scaling of DF-LDA-C  ScalLDAC        ....  1.000000
   Perturbative correction              ....  0.000000
   Density functional embedding theory  .... OFF
   NL short-range parameter             ....  4.800000
 RI-approximation to the Coulomb term is turned on
   Number of AuxJ basis functions       .... 351
   RIJ-COSX (HFX calculated with COS-X)).... on


General Settings:
 Integral files         IntName         .... SVP_B3LYP_C2_wt_dlpno_neg
 Hartree-Fock type      HFTyp           .... RHF
 Total Charge           Charge          ....    0
 Multiplicity           Mult            ....    1
 Number of Electrons    NEL             ....   58
 Basis Dimension        Dim             ....  113
 Nuclear Repulsion      ENuc            ....    363.6582654524 Eh

Convergence Acceleration:
 DIIS                   CNVDIIS         .... on
   Start iteration      DIISMaxIt       ....    12
   Startup error        DIISStart       ....  0.200000
   # of expansion vecs  DIISMaxEq       ....     5
   Bias factor          DIISBfac        ....   1.050
   Max. coefficient     DIISMaxC        ....  10.000
 Trust-Rad. Augm. Hess. CNVTRAH         .... auto
   Auto Start mean grad. ratio tolernc. ....  1.125000
   Auto Start start iteration           ....    20
   Auto Start num. interpolation iter.  ....    10
   Max. Number of Micro iterations      ....    16
   Max. Number of Macro iterations      .... Maxiter - #DIIS iter
   Number of Davidson start vectors     ....     2
   Converg. threshold I  (grad. norm)   ....   1.000e-05
   Converg. threshold II (energy diff.) ....   1.000e-08
   Grad. Scal. Fac. for Micro threshold ....   0.100
   Minimum threshold for Micro iter.    ....   0.010
   NR start threshold (gradient norm)   ....   0.001
   Initial trust radius                 ....   0.400
   Minimum AH scaling param. (alpha)    ....   1.000
   Maximum AH scaling param. (alpha)    .... 1000.000
   Orbital update algorithm             .... Taylor
   White noise on init. David. guess    .... on
   Maximum white noise                  ....   0.010
   Quad. conv. algorithm                .... NR
 SOSCF                  CNVSOSCF        .... on
   Start iteration      SOSCFMaxIt      ....   150
   Startup grad/error   SOSCFStart      ....  0.003300
 Level Shifting         CNVShift        .... on
   Level shift para.    LevelShift      ....    0.2500
   Turn off err/grad.   ShiftErr        ....    0.0010
 Zerner damping         CNVZerner       .... off
 Static damping         CNVDamp         .... on
   Fraction old density DampFac         ....    0.7000
   Max. Damping (<1)    DampMax         ....    0.9800
   Min. Damping (>=0)   DampMin         ....    0.0000
   Turn off err/grad.   DampErr         ....    0.1000
 Fernandez-Rico         CNVRico         .... off

SCF Procedure:
 Maximum # iterations   MaxIter         ....   150
 SCF integral mode      SCFMode         .... Direct
   Integral package                     .... SHARK and LIBINT hybrid scheme
 Reset frequency        DirectResetFreq ....    20
 Integral Threshold     Thresh          ....  2.500e-11 Eh
 Primitive CutOff       TCut            ....  2.500e-12 Eh

Convergence Tolerance:
 Convergence Check Mode ConvCheckMode   .... Total+1el-Energy
 Convergence forced     ConvForced      .... 0
 Energy Change          TolE            ....  1.000e-08 Eh
 1-El. energy change                    ....  1.000e-05 Eh
 Orbital Gradient       TolG            ....  1.000e-05
 Orbital Rotation angle TolX            ....  1.000e-05
 DIIS Error             TolErr          ....  5.000e-07


Diagonalization of the overlap matrix:
Smallest eigenvalue                        ... 3.352e-03
Time for diagonalization                   ...    0.004 sec
Threshold for overlap eigenvalues          ... 1.000e-08
Number of eigenvalues below threshold      ... 0
Time for construction of square roots      ...    0.003 sec
Total time needed                          ...    0.007 sec

Time for model grid setup =    0.064 sec

------------------------------
INITIAL GUESS: MODEL POTENTIAL
------------------------------
Loading Hartree-Fock densities                     ... done
Calculating cut-offs                               ... done
Initializing the effective Hamiltonian             ... done
Setting up the integral package (SHARK)            ... done
Starting the Coulomb interaction                   ... done (   0.0 sec)
Reading the grid                                   ... done
Mapping shells                                     ... done
Starting the XC term evaluation                    ... done (   0.0 sec)
  promolecular density results
     # of electrons  =     57.994881183
     EX              =    -63.392485209
     EC              =     -2.152866254
     EX+EC           =    -65.545351463
Transforming the Hamiltonian                       ... done (   0.0 sec)
Diagonalizing the Hamiltonian                      ... done (   0.0 sec)
Back transforming the eigenvectors                 ... done (   0.0 sec)
Now organizing SCF variables                       ... done
                      ------------------
                      INITIAL GUESS DONE (   0.1 sec)
                      ------------------
-------------------
DFT GRID GENERATION
-------------------

General Integration Accuracy     IntAcc      ... 4.388
Radial Grid Type                 RadialGrid  ... OptM3 with GC (2021)
Angular Grid (max. ang.)         AngularGrid ... 4 (Lebedev-302)
Angular grid pruning method      GridPruning ... 4 (adaptive)
Weight generation scheme         WeightScheme... Becke
Basis function cutoff            BFCut       ... 1.0000e-11
Integration weight cutoff        WCut        ... 1.0000e-14
Angular grids for H and He will be reduced by one unit
Partially contracted basis set               ... off
Rotationally invariant grid construction     ... off

Total number of grid points                  ...    53845
Total number of batches                      ...      846
Average number of points per batch           ...       63
Average number of grid points per atom       ...     4895
Time for grid setup =    0.343 sec

--------------------
COSX GRID GENERATION
--------------------

GRIDX 1
-------
General Integration Accuracy     IntAcc      ... 3.816
Radial Grid Type                 RadialGrid  ... OptM3 with GC (2021)
Angular Grid (max. ang.)         AngularGrid ... 1 (Lebedev-50)
Angular grid pruning method      GridPruning ... 4 (adaptive)
Weight generation scheme         WeightScheme... Becke
Basis function cutoff            BFCut       ... 1.0000e-11
Integration weight cutoff        WCut        ... 1.0000e-14
Angular grids for H and He will be reduced by one unit
Partially contracted basis set               ... on
Rotationally invariant grid construction     ... off

Total number of grid points                  ...     6803
Total number of batches                      ...      112
Average number of points per batch           ...       60
Average number of grid points per atom       ...      618
UseSFitting                                  ... on

GRIDX 2
-------
General Integration Accuracy     IntAcc      ... 4.020
Radial Grid Type                 RadialGrid  ... OptM3 with GC (2021)
Angular Grid (max. ang.)         AngularGrid ... 2 (Lebedev-110)
Angular grid pruning method      GridPruning ... 4 (adaptive)
Weight generation scheme         WeightScheme... Becke
Basis function cutoff            BFCut       ... 1.0000e-11
Integration weight cutoff        WCut        ... 1.0000e-14
Angular grids for H and He will be reduced by one unit
Partially contracted basis set               ... on
Rotationally invariant grid construction     ... off

Total number of grid points                  ...    14994
Total number of batches                      ...      239
Average number of points per batch           ...       62
Average number of grid points per atom       ...     1363
UseSFitting                                  ... on

GRIDX 3
-------
General Integration Accuracy     IntAcc      ... 4.338
Radial Grid Type                 RadialGrid  ... OptM3 with GC (2021)
Angular Grid (max. ang.)         AngularGrid ... 3 (Lebedev-194)
Angular grid pruning method      GridPruning ... 4 (adaptive)
Weight generation scheme         WeightScheme... Becke
Basis function cutoff            BFCut       ... 1.0000e-11
Integration weight cutoff        WCut        ... 1.0000e-14
Angular grids for H and He will be reduced by one unit
Partially contracted basis set               ... on
Rotationally invariant grid construction     ... off

Total number of grid points                  ...    33582
Total number of batches                      ...      530
Average number of points per batch           ...       63
Average number of grid points per atom       ...     3053
UseSFitting                                  ... on

Time for X-Grid setup             =    0.261 sec

--------------
SCF ITERATIONS
--------------
ITER       Energy         Delta-E        Max-DP      RMS-DP      [F,P]     Damp
               ***  Starting incremental Fock matrix formation  ***
  0   -726.6295997974   0.000000000000 0.23541113  0.00547117  0.3206379 0.7000
  1   -726.8231029118  -0.193503114426 0.10523377  0.00301641  0.1084868 0.7000
                               ***Turning on DIIS***
  2   -726.8796904960  -0.056587584241 0.07294952  0.00330680  0.0357742 0.0000
  3   -726.9970770540  -0.117386558009 0.07841999  0.00205198  0.0499060 0.0000
  4   -727.0125255541  -0.015448500095 0.01206275  0.00052727  0.0182326 0.0000
                      *** Initiating the SOSCF procedure ***
                           *** Shutting down DIIS ***
                      *** Re-Reading the Fockian *** 
                      *** Removing any level shift *** 
ITER      Energy       Delta-E        Grad      Rot      Max-DP    RMS-DP
  5   -727.01434640  -0.0018208505  0.000773  0.000773  0.005608  0.000147
               *** Restarting incremental Fock matrix formation ***
  6   -727.01450149  -0.0001550856  0.000520  0.000986  0.003363  0.000134
  7   -727.01448093   0.0000205571  0.000946  0.000779  0.002247  0.000080
  8   -727.01451342  -0.0000324824  0.000080  0.000188  0.000963  0.000021
  9   -727.01451316   0.0000002586  0.000120  0.000122  0.000406  0.000012
 10   -727.01451375  -0.0000005970  0.000026  0.000047  0.000234  0.000005
 11   -727.01451371   0.0000000436  0.000040  0.000029  0.000155  0.000004
 12   -727.01451377  -0.0000000610  0.000003  0.000003  0.000011  0.000000
                  ***Gradient check signals convergence***
              ***Rediagonalizing the Fockian in SOSCF/NRSCF***

               *****************************************************
               *                     SUCCESS                       *
               *           SCF CONVERGED AFTER  13 CYCLES          *
               *****************************************************

Old exchange energy                            =    -12.761976892 Eh
New exchange energy                            =    -12.762034386 Eh
Exchange energy change after final integration =     -0.000057494 Eh
Total energy after final integration           =   -727.014571268 Eh
Final COS-X integration done in                =     0.882 sec

----------------
TOTAL SCF ENERGY
----------------

Total Energy       :         -727.01457127 Eh          -19783.07224 eV

Components:
Nuclear Repulsion  :          363.65826545 Eh            9895.64449 eV
Electronic Energy  :        -1090.67283672 Eh          -29678.71672 eV
One Electron Energy:        -1722.30382322 Eh          -46866.26966 eV
Two Electron Energy:          631.63098650 Eh           17187.55294 eV
Max COSX asymmetry :            0.00000461 Eh               0.00013 eV

Virial components:
Potential Energy   :        -1451.18304306 Eh          -39488.69817 eV
Kinetic Energy     :          724.16847179 Eh           19705.62593 eV
Virial Ratio       :            2.00393016


DFT components:
N(Alpha)           :       28.999984892461 electrons
N(Beta)            :       28.999984892461 electrons
N(Total)           :       57.999969784922 electrons
E(X)               :      -50.746884860743 Eh       
E(C)               :       -2.525819360355 Eh       
E(XC)              :      -53.272704221098 Eh       
DFET-embed. en.    :        0.000000000000 Eh       

---------------
SCF CONVERGENCE
---------------

  Last Energy change         ...   -2.4803e-09  Tolerance :   1.0000e-08
  Last MAX-Density change    ...    3.1086e-15  Tolerance :   1.0000e-07
  Last RMS-Density change    ...    6.8757e-17  Tolerance :   5.0000e-09
  Last Orbital Gradient      ...    2.4151e-06  Tolerance :   1.0000e-05
  Last Orbital Rotation      ...    1.3212e-06  Tolerance :   1.0000e-05

             **** THE GBW FILE WAS UPDATED (SVP_B3LYP_C2_wt_dlpno_neg.gbw) ****
             **** DENSITY SVP_B3LYP_C2_wt_dlpno_neg.scfp WAS UPDATED ****
             **** ENERGY FILE WAS UPDATED (SVP_B3LYP_C2_wt_dlpno_neg.en.tmp) ****
             **** THE GBW FILE WAS UPDATED (SVP_B3LYP_C2_wt_dlpno_neg.gbw) ****
             **** DENSITY SVP_B3LYP_C2_wt_dlpno_neg.scfp WAS UPDATED ****
----------------
ORBITAL ENERGIES
----------------

  NO   OCC          E(Eh)            E(eV) 
   0   2.0000     -89.112113     -2424.8639 
   1   2.0000     -24.796453      -674.7458 
   2   2.0000     -19.135176      -520.6946 
   3   2.0000     -19.117960      -520.2261 
   4   2.0000     -10.235736      -278.5285 
   5   2.0000     -10.205524      -277.7064 
   6   2.0000      -8.175250      -222.4599 
   7   2.0000      -6.147748      -167.2887 
   8   2.0000      -6.141141      -167.1089 
   9   2.0000      -6.139862      -167.0741 
  10   2.0000      -1.364014       -37.1167 
  11   2.0000      -1.097889       -29.8751 
  12   2.0000      -0.990802       -26.9611 
  13   2.0000      -0.815247       -22.1840 
  14   2.0000      -0.722436       -19.6585 
  15   2.0000      -0.670344       -18.2410 
  16   2.0000      -0.592023       -16.1098 
  17   2.0000      -0.576542       -15.6885 
  18   2.0000      -0.535080       -14.5603 
  19   2.0000      -0.490232       -13.3399 
  20   2.0000      -0.469913       -12.7870 
  21   2.0000      -0.443779       -12.0758 
  22   2.0000      -0.428922       -11.6716 
  23   2.0000      -0.409030       -11.1303 
  24   2.0000      -0.391944       -10.6653 
  25   2.0000      -0.373255       -10.1568 
  26   2.0000      -0.323183        -8.7943 
  27   2.0000      -0.307066        -8.3557 
  28   2.0000      -0.293913        -7.9978 
  29   0.0000       0.027062         0.7364 
  30   0.0000       0.062390         1.6977 
  31   0.0000       0.074818         2.0359 
  32   0.0000       0.092417         2.5148 
  33   0.0000       0.098987         2.6936 
  34   0.0000       0.104629         2.8471 
  35   0.0000       0.119955         3.2641 
  36   0.0000       0.146332         3.9819 
  37   0.0000       0.160271         4.3612 
  38   0.0000       0.213378         5.8063 
  39   0.0000       0.346960         9.4413 
  40   0.0000       0.390855        10.6357 
  41   0.0000       0.412171        11.2157 
  42   0.0000       0.441371        12.0103 
  43   0.0000       0.463114        12.6020 
  44   0.0000       0.496986        13.5237 
  45   0.0000       0.591095        16.0845 
  46   0.0000       0.617687        16.8081 
  47   0.0000       0.622489        16.9388 
  48   0.0000       0.629452        17.1283 
  49   0.0000       0.641454        17.4548 
  50   0.0000       0.656988        17.8775 
  51   0.0000       0.683603        18.6018 
  52   0.0000       0.690544        18.7906 
  53   0.0000       0.704198        19.1622 
  54   0.0000       0.717663        19.5286 
  55   0.0000       0.737986        20.0816 
  56   0.0000       0.765256        20.8237 
  57   0.0000       0.839826        22.8528 
  58   0.0000       0.863127        23.4869 
  59   0.0000       0.932742        25.3812 
  60   0.0000       0.988383        26.8953 
  61   0.0000       0.993095        27.0235 
  62   0.0000       1.022689        27.8288 
  63   0.0000       1.049312        28.5532 
  64   0.0000       1.073524        29.2121 
  65   0.0000       1.112490        30.2724 
  66   0.0000       1.129703        30.7408 
  67   0.0000       1.164306        31.6824 
  68   0.0000       1.177484        32.0410 
  69   0.0000       1.266140        34.4534 
  70   0.0000       1.278522        34.7903 
  71   0.0000       1.319357        35.9015 
  72   0.0000       1.330483        36.2043 
  73   0.0000       1.472574        40.0708 
  74   0.0000       1.508664        41.0528 
  75   0.0000       1.554076        42.2886 
  76   0.0000       1.562990        42.5311 
  77   0.0000       1.716275        46.7022 
  78   0.0000       1.732800        47.1519 
  79   0.0000       1.754960        47.7549 
  80   0.0000       1.770261        48.1713 
  81   0.0000       1.811629        49.2969 
  82   0.0000       1.826131        49.6915 
  83   0.0000       1.871391        50.9231 
  84   0.0000       1.879175        51.1349 
  85   0.0000       1.931076        52.5472 
  86   0.0000       2.070714        56.3470 
  87   0.0000       2.188323        59.5473 
  88   0.0000       2.229808        60.6761 
  89   0.0000       2.363492        64.3139 
  90   0.0000       2.410452        65.5917 
  91   0.0000       2.512972        68.3814 
  92   0.0000       2.565898        69.8216 
  93   0.0000       2.617127        71.2156 
  94   0.0000       2.623111        71.3785 
  95   0.0000       2.637225        71.7625 
  96   0.0000       2.643299        71.9278 
  97   0.0000       2.662603        72.4531 
  98   0.0000       2.731716        74.3338 
  99   0.0000       2.773856        75.4804 
 100   0.0000       2.799939        76.1902 
 101   0.0000       2.874702        78.2246 
 102   0.0000       2.916138        79.3521 
 103   0.0000       2.921655        79.5023 
 104   0.0000       2.946882        80.1887 
 105   0.0000       2.971587        80.8610 
 106   0.0000       3.001493        81.6748 
 107   0.0000       3.026865        82.3652 
 108   0.0000       3.142065        85.4999 
 109   0.0000       3.204271        87.1927 
 110   0.0000       3.254254        88.5528 
 111   0.0000       3.434986        93.4707 
 112   0.0000       3.659978        99.5931 

                    ********************************
                    * MULLIKEN POPULATION ANALYSIS *
                    ********************************

-----------------------
MULLIKEN ATOMIC CHARGES
-----------------------
   0 C :    0.023733
   1 C :   -0.108483
   2 H :    0.080872
   3 H :    0.050339
   4 S :    0.947137
   5 O :   -0.423497
   6 F :   -0.178105
   7 O :   -0.479121
   8 H :    0.037133
   9 H :    0.030636
  10 H :    0.019356
Sum of atomic charges:   -0.0000000

--------------------------------
MULLIKEN REDUCED ORBITAL CHARGES
--------------------------------
  0 C s       :     2.966844  s :     2.966844
      pz      :     1.014622  p :     2.979719
      px      :     0.972205
      py      :     0.992892
      dz2     :     0.007423  d :     0.029704
      dxz     :     0.007500
      dyz     :     0.002145
      dx2y2   :     0.007321
      dxy     :     0.005314
  1 C s       :     3.085450  s :     3.085450
      pz      :     1.072799  p :     2.987409
      px      :     1.044509
      py      :     0.870101
      dz2     :     0.007144  d :     0.035623
      dxz     :     0.009026
      dyz     :     0.002799
      dx2y2   :     0.011485
      dxy     :     0.005169
  2 H s       :     0.896286  s :     0.896286
      pz      :     0.014025  p :     0.022842
      px      :     0.005166
      py      :     0.003651
  3 H s       :     0.926643  s :     0.926643
      pz      :     0.008453  p :     0.023018
      px      :     0.009995
      py      :     0.004570
  4 S s       :     5.313462  s :     5.313462
      pz      :     2.884983  p :     8.926326
      px      :     2.920995
      py      :     3.120347
      dz2     :     0.177753  d :     0.813075
      dxz     :     0.216333
      dyz     :     0.098771
      dx2y2   :     0.189441
      dxy     :     0.130776
  5 O s       :     3.838323  s :     3.838323
      pz      :     1.646015  p :     4.566027
      px      :     1.280773
      py      :     1.639239
      dz2     :     0.002087  d :     0.019146
      dxz     :     0.004552
      dyz     :     0.000922
      dx2y2   :     0.005869
      dxy     :     0.005717
  6 F s       :     3.901312  s :     3.901312
      pz      :     1.637857  p :     5.264818
      px      :     1.757036
      py      :     1.869924
      dz2     :     0.003459  d :     0.011975
      dxz     :     0.004222
      dyz     :     0.002094
      dx2y2   :     0.001160
      dxy     :     0.001040
  7 O s       :     3.863578  s :     3.863578
      pz      :     1.307022  p :     4.598511
      px      :     1.611431
      py      :     1.680058
      dz2     :     0.005312  d :     0.017032
      dxz     :     0.004974
      dyz     :     0.003747
      dx2y2   :     0.001453
      dxy     :     0.001546
  8 H s       :     0.938147  s :     0.938147
      pz      :     0.009021  p :     0.024720
      px      :     0.010165
      py      :     0.005534
  9 H s       :     0.944590  s :     0.944590
      pz      :     0.005425  p :     0.024774
      px      :     0.004993
      py      :     0.014356
 10 H s       :     0.955740  s :     0.955740
      pz      :     0.013845  p :     0.024905
      px      :     0.005606
      py      :     0.005453


                     *******************************
                     * LOEWDIN POPULATION ANALYSIS *
                     *******************************

----------------------
LOEWDIN ATOMIC CHARGES
----------------------
   0 C :   -0.056645
   1 C :   -0.142794
   2 H :    0.048661
   3 H :    0.029443
   4 S :    1.157765
   5 O :   -0.472446
   6 F :   -0.122164
   7 O :   -0.526192
   8 H :    0.029062
   9 H :    0.034020
  10 H :    0.021290

-------------------------------
LOEWDIN REDUCED ORBITAL CHARGES
-------------------------------
  0 C s       :     2.819692  s :     2.819692
      pz      :     1.070962  p :     3.161444
      px      :     1.031247
      py      :     1.059235
      dz2     :     0.019234  d :     0.075509
      dxz     :     0.018251
      dyz     :     0.004946
      dx2y2   :     0.018078
      dxy     :     0.015000
  1 C s       :     2.902241  s :     2.902241
      pz      :     1.103094  p :     3.157893
      px      :     1.076714
      py      :     0.978084
      dz2     :     0.017590  d :     0.082660
      dxz     :     0.020520
      dyz     :     0.006088
      dx2y2   :     0.025158
      dxy     :     0.013303
  2 H s       :     0.880753  s :     0.880753
      pz      :     0.040936  p :     0.070586
      px      :     0.016415
      py      :     0.013235
  3 H s       :     0.898554  s :     0.898554
      pz      :     0.024371  p :     0.072002
      px      :     0.031311
      py      :     0.016321
  4 S s       :     5.036452  s :     5.036452
      pz      :     2.847716  p :     8.736229
      px      :     2.886198
      py      :     3.002316
      dz2     :     0.241706  d :     1.069555
      dxz     :     0.293614
      dyz     :     0.118534
      dx2y2   :     0.253463
      dxy     :     0.162238
  5 O s       :     3.677357  s :     3.677357
      pz      :     1.668090  p :     4.764293
      px      :     1.431521
      py      :     1.664681
      dz2     :     0.004514  d :     0.030796
      dxz     :     0.005499
      dyz     :     0.001057
      dx2y2   :     0.010075
      dxy     :     0.009651
  6 F s       :     3.763337  s :     3.763337
      pz      :     1.691923  p :     5.340661
      px      :     1.784186
      py      :     1.864552
      dz2     :     0.005298  d :     0.018167
      dxz     :     0.007426
      dyz     :     0.002536
      dx2y2   :     0.001646
      dxy     :     0.001260
  7 O s       :     3.708239  s :     3.708239
      pz      :     1.428274  p :     4.790511
      px      :     1.663780
      py      :     1.698457
      dz2     :     0.008373  d :     0.027441
      dxz     :     0.009509
      dyz     :     0.005460
      dx2y2   :     0.001929
      dxy     :     0.002170
  8 H s       :     0.900438  s :     0.900438
      pz      :     0.024755  p :     0.070501
      px      :     0.030187
      py      :     0.015558
  9 H s       :     0.896187  s :     0.896187
      pz      :     0.014025  p :     0.069792
      px      :     0.015008
      py      :     0.040760
 10 H s       :     0.908773  s :     0.908773
      pz      :     0.038758  p :     0.069937
      px      :     0.016225
      py      :     0.014953


                      *****************************
                      * MAYER POPULATION ANALYSIS *
                      *****************************

  NA   - Mulliken gross atomic population
  ZA   - Total nuclear charge
  QA   - Mulliken gross atomic charge
  VA   - Mayer's total valence
  BVA  - Mayer's bonded valence
  FA   - Mayer's free valence

  ATOM       NA         ZA         QA         VA         BVA        FA
  0 C      5.9763     6.0000     0.0237     3.9809     3.9809     0.0000
  1 C      6.1085     6.0000    -0.1085     4.0073     4.0073     0.0000
  2 H      0.9191     1.0000     0.0809     0.9937     0.9937    -0.0000
  3 H      0.9497     1.0000     0.0503     0.9886     0.9886     0.0000
  4 S     15.0529    16.0000     0.9471     5.5102     5.5102    -0.0000
  5 O      8.4235     8.0000    -0.4235     1.9891     1.9891    -0.0000
  6 F      9.1781     9.0000    -0.1781     1.1427     1.1427     0.0000
  7 O      8.4791     8.0000    -0.4791     1.9275     1.9275    -0.0000
  8 H      0.9629     1.0000     0.0371     1.0046     1.0046     0.0000
  9 H      0.9694     1.0000     0.0306     0.9913     0.9913    -0.0000
 10 H      0.9806     1.0000     0.0194     0.9990     0.9990    -0.0000

  Mayer bond orders larger than 0.100000
B(  0-C ,  1-C ) :   1.0610 B(  0-C ,  8-H ) :   0.9705 B(  0-C ,  9-H ) :   0.9601 
B(  0-C , 10-H ) :   0.9714 B(  1-C ,  2-H ) :   0.9387 B(  1-C ,  3-H ) :   0.9343 
B(  1-C ,  4-S ) :   0.9243 B(  4-S ,  5-O ) :   1.7930 B(  4-S ,  6-F ) :   1.0080 
B(  4-S ,  7-O ) :   1.7362 

-------
TIMINGS
-------

Total SCF time: 0 days 0 hours 0 min 8 sec 

Total time                  ....       8.277 sec
Sum of individual times     ....       8.143 sec  ( 98.4%)

Fock matrix formation       ....       7.349 sec  ( 88.8%)
  Split-RI-J                ....       0.686 sec  (  9.3% of F)
  Chain of spheres X        ....       5.126 sec  ( 69.7% of F)
  XC integration            ....       1.512 sec  ( 20.6% of F)
    Basis function eval.    ....       0.625 sec  ( 41.3% of XC)
    Density eval.           ....       0.302 sec  ( 20.0% of XC)
    XC-Functional eval.     ....       0.188 sec  ( 12.4% of XC)
    XC-Potential eval.      ....       0.279 sec  ( 18.4% of XC)
Diagonalization             ....       0.021 sec  (  0.3%)
Density matrix formation    ....       0.003 sec  (  0.0%)
Population analysis         ....       0.005 sec  (  0.1%)
Initial guess               ....       0.062 sec  (  0.7%)
Orbital Transformation      ....       0.000 sec  (  0.0%)
Orbital Orthonormalization  ....       0.000 sec  (  0.0%)
DIIS solution               ....       0.015 sec  (  0.2%)
SOSCF solution              ....       0.021 sec  (  0.3%)
Grid generation             ....       0.668 sec  (  8.1%)

Maximum memory used throughout the entire SCF-calculation: 48.4 MB


-------------------------------------------------------------------------------
                          DFT DISPERSION CORRECTION                            
                                                                               
                              DFTD3 V3.1  Rev 1                                
                          USING Becke-Johnson damping                          
-------------------------------------------------------------------------------
The B3LYP functional is recognized
Active option DFTDOPT                   ...         4   

molecular C6(AA) [au] = 1445.592148 


            DFT-D V3
 parameters
 s6 scaling factor         :     1.0000 
 a1 scaling factor         :     0.3981 
 s8 scaling factor         :     1.9889 
 a2 scaling factor         :     4.4211 
 ad hoc parameters k1-k3   :    16.0000     1.3333    -4.0000 

 Edisp/kcal,au: -9.996553354005  -0.015930520097 
 E6   /kcal   :  -4.599295694 
 E8   /kcal   :  -5.397257660 
 % E8         :  53.991185445 

-------------------------   ----------------
Dispersion correction           -0.015930520
-------------------------   ----------------


-------------------------   --------------------
FINAL SINGLE POINT ENERGY      -727.030501788378
-------------------------   --------------------


                            ***************************************
                            *     ORCA property calculations      *
                            ***************************************

                                    ---------------------
                                    Active property flags
                                    ---------------------
   (+) Dipole Moment


------------------------------------------------------------------------------
                       ORCA ELECTRIC PROPERTIES CALCULATION
------------------------------------------------------------------------------

Dipole Moment Calculation                       ... on
Quadrupole Moment Calculation                   ... off
Polarizability Calculation                      ... off
GBWName                                         ... SVP_B3LYP_C2_wt_dlpno_neg.gbw
Electron density file                           ... SVP_B3LYP_C2_wt_dlpno_neg.scfp
The origin for moment calculation is the CENTER OF MASS  = ( 3.244967,  0.945988 -8.374513)

-------------
DIPOLE MOMENT
-------------
                                X             Y             Z
Electronic contribution:      0.57401      -8.69580       2.03843
Nuclear contribution   :     -0.86540      10.11467      -1.24082
                        -----------------------------------------
Total Dipole Moment    :     -0.29139       1.41887       0.79761
                        -----------------------------------------
Magnitude (a.u.)       :      1.65357
Magnitude (Debye)      :      4.20304



--------------------
Rotational spectrum 
--------------------
 
Rotational constants in cm-1:     0.154065     0.083345     0.080357 
Rotational constants in MHz :  4618.752213  2498.631937  2409.037217 

 Dipole components along the rotational axes: 
x,y,z [a.u.] :     1.475424    -0.312154     0.678215 
x,y,z [Debye]:     3.750229    -0.793433     1.723886 

 

Timings for individual modules:

Sum of individual times         ...       11.858 sec (=   0.198 min)
GTO integral calculation        ...        1.713 sec (=   0.029 min)  14.4 %
SCF iterations                  ...       10.145 sec (=   0.169 min)  85.6 %
                             ****ORCA TERMINATED NORMALLY****
TOTAL RUN TIME: 0 days 0 hours 0 minutes 12 seconds 390 msec
