
                                        *****************
                                        * O   R   C   A *
                                        *****************

                                            #,                                       
                                            ###                                      
                                            ####                                     
                                            #####                                    
                                            ######                                   
                                           ########,                                 
                                     ,,################,,,,,                         
                               ,,#################################,,                 
                          ,,##########################################,,             
                       ,#########################################, ''#####,          
                    ,#############################################,,   '####,        
                  ,##################################################,,,,####,       
                ,###########''''           ''''###############################       
              ,#####''   ,,,,##########,,,,          '''####'''          '####       
            ,##' ,,,,###########################,,,                        '##       
           ' ,,###''''                  '''############,,,                           
         ,,##''                                '''############,,,,        ,,,,,,###''
      ,#''                                            '''#######################'''  
     '                                                          ''''####''''         
             ,#######,   #######,   ,#######,      ##                                
            ,#'     '#,  ##    ##  ,#'     '#,    #''#        ######   ,####,        
            ##       ##  ##   ,#'  ##            #'  '#       #        #'  '#        
            ##       ##  #######   ##           ,######,      #####,   #    #        
            '#,     ,#'  ##    ##  '#,     ,#' ,#      #,         ##   #,  ,#        
             '#######'   ##     ##  '#######'  #'      '#     #####' # '####'        



                  #######################################################
                  #                        -***-                        #
                  #          Department of theory and spectroscopy      #
                  #    Directorship and core code : Frank Neese         #
                  #        Max Planck Institute fuer Kohlenforschung    #
                  #                Kaiser Wilhelm Platz 1               #
                  #                 D-45470 Muelheim/Ruhr               #
                  #                      Germany                        #
                  #                                                     #
                  #                  All rights reserved                #
                  #                        -***-                        #
                  #######################################################


                         Program Version 5.0.0 -  RELEASE  -
                                (SVN: $Rev: 19529$)
                ($Date: 2021-06-28 11:36:33 +0200 (Mo, 28 Jun 2021) $)


 With contributions from (in alphabetic order):
   Daniel Aravena         : Magnetic Suceptibility
   Michael Atanasov       : Ab Initio Ligand Field Theory (pilot matlab implementation)
   Alexander A. Auer      : GIAO ZORA, VPT2 properties, NMR spectrum
   Ute Becker             : Parallelization
   Giovanni Bistoni       : ED, misc. LED, open-shell LED, HFLD
   Martin Brehm           : Molecular dynamics
   Dmytro Bykov           : SCF Hessian
   Vijay G. Chilkuri      : MRCI spin determinant printing, contributions to CSF-ICE
   Dipayan Datta          : RHF DLPNO-CCSD density
   Achintya Kumar Dutta   : EOM-CC, STEOM-CC
   Dmitry Ganyushin       : Spin-Orbit,Spin-Spin,Magnetic field MRCI
   Miquel Garcia          : C-PCM Hessian, Gaussian charge scheme
   Yang Guo               : DLPNO-NEVPT2, F12-NEVPT2, CIM, IAO-localization
   Andreas Hansen         : Spin unrestricted coupled pair/coupled cluster methods
   Benjamin Helmich-Paris : MC-RPA, TRAH-SCF, COSX integrals
   Lee Huntington         : MR-EOM, pCC
   Robert Izsak           : Overlap fitted RIJCOSX, COSX-SCS-MP3, EOM
   Marcus Kettner         : VPT2
   Christian Kollmar      : KDIIS, OOCD, Brueckner-CCSD(T), CCSD density, CASPT2, CASPT2-K
   Simone Kossmann        : Meta GGA functionals, TD-DFT gradient, OOMP2, MP2 Hessian
   Martin Krupicka        : Initial AUTO-CI
   Lucas Lang             : DCDCAS
   Marvin Lechner         : AUTO-CI (C++ implementation), FIC-MRCC
   Dagmar Lenk            : GEPOL surface, SMD
   Dimitrios Liakos       : Extrapolation schemes; Compound Job, initial MDCI parallelization
   Dimitrios Manganas     : Further ROCIS development; embedding schemes
   Dimitrios Pantazis     : SARC Basis sets
   Anastasios Papadopoulos: AUTO-CI, single reference methods and gradients
   Taras Petrenko         : DFT Hessian,TD-DFT gradient, ASA, ECA, R-Raman, ABS, FL, XAS/XES, NRVS
   Peter Pinski           : DLPNO-MP2, DLPNO-MP2 Gradient
   Christoph Reimann      : Effective Core Potentials
   Marius Retegan         : Local ZFS, SOC
   Christoph Riplinger    : Optimizer, TS searches, QM/MM, DLPNO-CCSD(T), (RO)-DLPNO pert. Triples
   Tobias Risthaus        : Range-separated hybrids, TD-DFT gradient, RPA, STAB
   Michael Roemelt        : Original ROCIS implementation
   Masaaki Saitow         : Open-shell DLPNO-CCSD energy and density
   Barbara Sandhoefer     : DKH picture change effects
   Avijit Sen             : IP-ROCIS
   Kantharuban Sivalingam : CASSCF convergence, NEVPT2, FIC-MRCI
   Bernardo de Souza      : ESD, SOC TD-DFT
   Georgi Stoychev        : AutoAux, RI-MP2 NMR
   Willem Van den Heuvel  : Paramagnetic NMR
   Boris Wezisla          : Elementary symmetry handling
   Frank Wennmohs         : Technical directorship


 We gratefully acknowledge several colleagues who have allowed us to
 interface, adapt or use parts of their codes:
   Stefan Grimme, W. Hujo, H. Kruse, P. Pracht,  : VdW corrections, initial TS optimization,
                  C. Bannwarth, S. Ehlert          DFT functionals, gCP, sTDA/sTD-DF
   Ed Valeev, F. Pavosevic, A. Kumar             : LibInt (2-el integral package), F12 methods
   Garnet Chan, S. Sharma, J. Yang, R. Olivares  : DMRG
   Ulf Ekstrom                                   : XCFun DFT Library
   Mihaly Kallay                                 : mrcc  (arbitrary order and MRCC methods)
   Jiri Pittner, Ondrej Demel                    : Mk-CCSD
   Frank Weinhold                                : gennbo (NPA and NBO analysis)
   Christopher J. Cramer and Donald G. Truhlar   : smd solvation model
   Lars Goerigk                                  : TD-DFT with DH, B97 family of functionals
   V. Asgeirsson, H. Jonsson                     : NEB implementation
   FAccTs GmbH                                   : IRC, NEB, NEB-TS, DLPNO-Multilevel, CI-OPT
                                                   MM, QMMM, 2- and 3-layer-ONIOM, Crystal-QMMM,
                                                   LR-CPCM, SF, NACMEs, symmetry and pop. for TD-DFT,
                                                   nearIR, NL-DFT gradient (VV10), updates on ESD,
                                                   ML-optimized integration grids
   S Lehtola, MJT Oliveira, MAL Marques          : LibXC Library
   Liviu Ungur et al                             : ANISO software


 Your calculation uses the libint2 library for the computation of 2-el integrals
 For citations please refer to: http://libint.valeyev.net

 Your ORCA version has been built with support for libXC version: 5.1.0
 For citations please refer to: https://tddft.org/programs/libxc/

 This ORCA versions uses:
   CBLAS   interface :  Fast vector & matrix operations
   LAPACKE interface :  Fast linear algebra routines
   SCALAPACK package :  Parallel linear algebra routines
   Shared memory     :  Shared parallel matrices
   BLAS/LAPACK       :  OpenBLAS 0.3.15  USE64BITINT DYNAMIC_ARCH NO_AFFINITY Haswell SINGLE_THREADED
        Core in use  :  Haswell
   Copyright (c) 2011-2014, The OpenBLAS Project


Your calculation utilizes the atom-pairwise dispersion correction
with the zero-damping scheme (D30)
Cite in your paper:
S.Grimme, J.Antony, S.Ehrlich and H.Krieg, J.Chem.Phys., 132, (2010), 154104 
   

XCFun DFT library Copyright 2009-2010 Ulf Ekstrom and contributors.
See http://admol.org/xcfun for more information.
This is free software; see the source code for copying conditions.
There is ABSOLUTELY NO WARRANTY; not even for MERCHANTABILITY or FITNESS FOR A PARTICULAR PURPOSE.
For details see the documentation.
Scientific users of this library should cite U. Ekstrom, L. Visscher, R. Bast, A. J. Thorvaldsen and K. Ruud;
J.Chem.Theor.Comp. 2010, DOI: 10.1021/ct100117s
XCFun Version 0.99 

================================================================================

----- Orbital basis set information -----
Your calculation utilizes the basis: def2-TZVPD
   F. Weigend and R. Ahlrichs, Phys. Chem. Chem. Phys. 7, 3297 (2005).
   D. Rappoport and F. Furche, J. Chem. Phys. 133 134105 (2010).

----- AuxJ basis set information -----
Your calculation utilizes the auxiliary basis: def2/J
   F. Weigend, Phys. Chem. Chem. Phys. 8, 1057 (2006).

================================================================================
                                        WARNINGS
                       Please study these warnings very carefully!
================================================================================


INFO   : the flag for use of the SHARK integral package has been found!

================================================================================
                                       INPUT FILE
================================================================================
NAME = TZVPD_wB97XD3_A_wt_dlpno_neg.com
|  1> !wB97X-D3 RIJCOSX def2-TZVPD def2/J TightSCF
|  2> *xyz -1 1
|  3> C          0.96805        1.63064       -3.71575
|  4> C         -0.50835        1.72268       -4.12430
|  5> S         -1.32861        0.14674       -4.43578
|  6> H         -0.59151        2.29496       -5.04722
|  7> H         -1.11411        2.23561       -3.37436
|  8> O         -2.57135        0.47573       -5.06834
|  9> O         -1.51496       -0.40051       -3.06342
| 10> O         -0.37793       -0.62756       -5.20114
| 11> H          1.51840        1.12197       -4.47946
| 12> H          1.05062        1.08971       -2.79625
| 13> H          1.36450        2.61606       -3.58668
| 14> *
| 15> %MaxCore 64000
| 16> 
| 17> %pal nprocs 4
| 18> end  
| 19> 
| 20> %scf
| 21>   MaxIter 150
| 22> end
| 23> 
| 24> 
| 25>                          ****END OF INPUT****
================================================================================

                       ****************************
                       * Single Point Calculation *
                       ****************************

---------------------------------
CARTESIAN COORDINATES (ANGSTROEM)
---------------------------------
  C      0.968050    1.630640   -3.715750
  C     -0.508350    1.722680   -4.124300
  S     -1.328610    0.146740   -4.435780
  H     -0.591510    2.294960   -5.047220
  H     -1.114110    2.235610   -3.374360
  O     -2.571350    0.475730   -5.068340
  O     -1.514960   -0.400510   -3.063420
  O     -0.377930   -0.627560   -5.201140
  H      1.518400    1.121970   -4.479460
  H      1.050620    1.089710   -2.796250
  H      1.364500    2.616060   -3.586680

----------------------------
CARTESIAN COORDINATES (A.U.)
----------------------------
  NO LB      ZA    FRAG     MASS         X           Y           Z
   0 C     6.0000    0    12.011    1.829349    3.081463   -7.021750
   1 C     6.0000    0    12.011   -0.960642    3.255393   -7.793797
   2 S    16.0000    0    32.060   -2.510709    0.277298   -8.382409
   3 H     1.0000    0     1.008   -1.117792    4.336846   -9.537864
   4 H     1.0000    0     1.008   -2.105363    4.224691   -6.376616
   5 O     8.0000    0    15.999   -4.859147    0.898999   -9.577775
   6 O     8.0000    0    15.999   -2.862860   -0.756854   -5.789025
   7 O     8.0000    0    15.999   -0.714184   -1.185917   -9.828730
   8 H     1.0000    0     1.008    2.869360    2.120216   -8.464953
   9 H     1.0000    0     1.008    1.985384    2.059253   -5.284147
  10 H     1.0000    0     1.008    2.578531    4.943637   -6.777843

--------------------------------
INTERNAL COORDINATES (ANGSTROEM)
--------------------------------
 C      0   0   0     0.000000000000     0.00000000     0.00000000
 C      1   0   0     1.534647003092     0.00000000     0.00000000
 S      2   1   0     1.803727568565   115.53546249     0.00000000
 H      2   1   3     1.089128693222   109.30283314   240.40847439
 H      2   1   3     1.091994673110   112.27278736   121.80830992
 O      3   2   1     1.432748854929   105.66825675   192.14354175
 O      3   2   1     1.489154409254   102.64124569    74.09180184
 O      3   2   1     1.445374997016   105.09290493   316.90648081
 H      1   2   3     1.069992175439   109.47076090    58.19150387
 H      1   2   3     1.070001551307   109.47111129   298.19165820
 H      1   2   3     1.069992637264   109.47116908   178.19193625

---------------------------
INTERNAL COORDINATES (A.U.)
---------------------------
 C      0   0   0     0.000000000000     0.00000000     0.00000000
 C      1   0   0     2.900062548087     0.00000000     0.00000000
 S      2   1   0     3.408551124791   115.53546249     0.00000000
 H      2   1   3     2.058154954786   109.30283314   240.40847439
 H      2   1   3     2.063570871878   112.27278736   121.80830992
 O      3   2   1     2.707502954505   105.66825675   192.14354175
 O      3   2   1     2.814094004611   102.64124569    74.09180184
 O      3   2   1     2.731362905178   105.09290493   316.90648081
 H      1   2   3     2.021992177018   109.47076090    58.19150387
 H      1   2   3     2.022009894842   109.47111129   298.19165820
 H      1   2   3     2.021993049742   109.47116908   178.19193625

---------------------
BASIS SET INFORMATION
---------------------
There are 4 groups of distinct atoms

 Group   1 Type C   : 12s6p3d1f contracted to 6s3p3d1f pattern {621111/411/111/1}
 Group   2 Type S   : 15s10p4d1f contracted to 6s6p3d1f pattern {732111/511111/211/1}
 Group   3 Type H   : 5s2p contracted to 3s2p pattern {311/11}
 Group   4 Type O   : 12s7p3d1f contracted to 6s4p3d1f pattern {621111/4111/111/1}

Atom   0C    basis set group =>   1
Atom   1C    basis set group =>   1
Atom   2S    basis set group =>   2
Atom   3H    basis set group =>   3
Atom   4H    basis set group =>   3
Atom   5O    basis set group =>   4
Atom   6O    basis set group =>   4
Atom   7O    basis set group =>   4
Atom   8H    basis set group =>   3
Atom   9H    basis set group =>   3
Atom  10H    basis set group =>   3
---------------------------------
AUXILIARY/J BASIS SET INFORMATION
---------------------------------
There are 4 groups of distinct atoms

 Group   1 Type C   : 12s5p4d2f1g contracted to 6s4p3d1f1g pattern {711111/2111/211/2/1}
 Group   2 Type S   : 14s5p5d2f1g contracted to 8s4p3d1f1g pattern {71111111/2111/311/2/1}
 Group   3 Type H   : 5s2p1d contracted to 3s1p1d pattern {311/2/1}
 Group   4 Type O   : 12s5p4d2f1g contracted to 6s4p3d1f1g pattern {711111/2111/211/2/1}

Atom   0C    basis set group =>   1
Atom   1C    basis set group =>   1
Atom   2S    basis set group =>   2
Atom   3H    basis set group =>   3
Atom   4H    basis set group =>   3
Atom   5O    basis set group =>   4
Atom   6O    basis set group =>   4
Atom   7O    basis set group =>   4
Atom   8H    basis set group =>   3
Atom   9H    basis set group =>   3
Atom  10H    basis set group =>   3


           ************************************************************
           *        Program running with 4 parallel MPI-processes     *
           *              working on a common directory               *
           ************************************************************
------------------------------------------------------------------------------
                           ORCA GTO INTEGRAL CALCULATION
                           -- RI-GTO INTEGRALS CHOSEN --
------------------------------------------------------------------------------
------------------------------------------------------------------------------
                   ___                                                        
                  /   \      - P O W E R E D   B Y -                         
                 /     \                                                     
                 |  |  |   _    _      __       _____    __    __             
                 |  |  |  | |  | |    /  \     |  _  \  |  |  /  |          
                  \  \/   | |  | |   /    \    | | | |  |  | /  /          
                 / \  \   | |__| |  /  /\  \   | |_| |  |  |/  /          
                |  |  |   |  __  | /  /__\  \  |    /   |      \           
                |  |  |   | |  | | |   __   |  |    \   |  |\   \          
                \     /   | |  | | |  |  |  |  | |\  \  |  | \   \       
                 \___/    |_|  |_| |__|  |__|  |_| \__\ |__|  \__/        
                                                                              
                      - O R C A' S   B I G   F R I E N D -                    
                                      &                                       
                       - I N T E G R A L  F E E D E R -                       
                                                                              
 v1 FN, 2020, v2 2021                                                         
------------------------------------------------------------------------------


Reading SHARK input file TZVPD_wB97XD3_A_wt_dlpno_neg.SHARKINP.tmp ... ok
----------------------
SHARK INTEGRAL PACKAGE
----------------------

Number of atoms                             ...     11
Number of basis functions                   ...    285
Number of shells                            ...    109
Maximum angular momentum                    ...      3
Integral batch strategy                     ... SHARK/LIBINT Hybrid
RI-J (if used) integral strategy            ... SPLIT-RIJ (Revised 2003 algorithm where possible)
Printlevel                                  ...      1
Contraction scheme used                     ... SEGMENTED contraction
Coulomb Range Separation                    ... NOT USED
Exchange Range Separation                   ... Long Range
   Mu parameter                             ...  0.250000
   Scaling (regular/separated)              ...  0.195728  0.804272
Finite Nucleus Model                        ... NOT USED
Auxiliary Coulomb fitting basis             ... AVAILABLE
   # of basis functions in Aux-J            ...    351
   # of shells in Aux-J                     ...    117
   Maximum angular momentum in Aux-J        ...      4
Auxiliary J/K fitting basis                 ... NOT available
Auxiliary Correlation fitting basis         ... NOT available
Auxiliary 'external' fitting basis          ... NOT available
Integral threshold                          ...     2.500000e-11
Primitive cut-off                           ...     2.500000e-12
Primitive pair pre-selection threshold      ...     2.500000e-12

Calculating pre-screening integrals         ... done (  0.1 sec) Dimension = 109
Organizing shell pair data                  ... done (  0.1 sec)
Shell pair information
Total number of shell pairs                 ...      5995
Shell pairs after pre-screening             ...      5755
Total number of primitive shell pairs       ...     16092
Primitive shell pairs kept                  ...     12480
          la=0 lb=0:   1219 shell pairs
          la=1 lb=0:   1671 shell pairs
          la=1 lb=1:    588 shell pairs
          la=2 lb=0:    879 shell pairs
          la=2 lb=1:    605 shell pairs
          la=2 lb=2:    170 shell pairs
          la=3 lb=0:    293 shell pairs
          la=3 lb=1:    202 shell pairs
          la=3 lb=2:    107 shell pairs
          la=3 lb=3:     21 shell pairs

Calculating one electron integrals          ... done (  0.0 sec)
Calculating RI/J V-Matrix + Cholesky decomp.... done (  0.0 sec)
Calculating Nuclear repulsion               ... done (  0.0 sec) ENN=    350.328493473334 Eh

SHARK setup successfully completed in   0.3 seconds

Maximum memory used throughout the entire GTOINT-calculation: 15.3 MB


           ************************************************************
           *        Program running with 4 parallel MPI-processes     *
           *              working on a common directory               *
           ************************************************************
-------------------------------------------------------------------------------
                                 ORCA SCF
-------------------------------------------------------------------------------

------------
SCF SETTINGS
------------
Hamiltonian:
 Density Functional     Method          .... DFT(GTOs)
 Exchange Functional    Exchange        .... WB97X-D3
 Correlation Functional Correlation     .... WB97X-D3
 Gradients option       PostSCFGGA      .... off
 Hybrid DFT is turned on
   Fraction HF Exchange ScalHFX         ....  0.195728
   Scaling of DF-GGA-X  ScalDFX         ....  0.000000
   Scaling of DF-GGA-C  ScalDFC         ....  1.000000
   Scaling of DF-LDA-C  ScalLDAC        ....  1.000000
   Perturbative correction              ....  0.000000
   Density functional embedding theory  .... OFF
 Long-range corrected/Screened/Range-Separated Hybrid DFT is turned on
   Amount of maximum screened exact exchange              ....  0.804272
   Range separation parameter mu (erf(mu*r12)/r12)        ....  0.250000
 RI-approximation to the Coulomb term is turned on
   Number of AuxJ basis functions       .... 351
   RIJ-COSX (HFX calculated with COS-X)).... on


General Settings:
 Integral files         IntName         .... TZVPD_wB97XD3_A_wt_dlpno_neg
 Hartree-Fock type      HFTyp           .... RHF
 Total Charge           Charge          ....   -1
 Multiplicity           Mult            ....    1
 Number of Electrons    NEL             ....   58
 Basis Dimension        Dim             ....  285
 Nuclear Repulsion      ENuc            ....    350.3284934733 Eh

Convergence Acceleration:
 DIIS                   CNVDIIS         .... on
   Start iteration      DIISMaxIt       ....    12
   Startup error        DIISStart       ....  0.200000
   # of expansion vecs  DIISMaxEq       ....     5
   Bias factor          DIISBfac        ....   1.050
   Max. coefficient     DIISMaxC        ....  10.000
 Trust-Rad. Augm. Hess. CNVTRAH         .... auto
   Auto Start mean grad. ratio tolernc. ....  1.125000
   Auto Start start iteration           ....    20
   Auto Start num. interpolation iter.  ....    10
   Max. Number of Micro iterations      ....    16
   Max. Number of Macro iterations      .... Maxiter - #DIIS iter
   Number of Davidson start vectors     ....     2
   Converg. threshold I  (grad. norm)   ....   1.000e-05
   Converg. threshold II (energy diff.) ....   1.000e-08
   Grad. Scal. Fac. for Micro threshold ....   0.100
   Minimum threshold for Micro iter.    ....   0.010
   NR start threshold (gradient norm)   ....   0.001
   Initial trust radius                 ....   0.400
   Minimum AH scaling param. (alpha)    ....   1.000
   Maximum AH scaling param. (alpha)    .... 1000.000
   Orbital update algorithm             .... Taylor
   White noise on init. David. guess    .... on
   Maximum white noise                  ....   0.010
   Quad. conv. algorithm                .... NR
 SOSCF                  CNVSOSCF        .... on
   Start iteration      SOSCFMaxIt      ....   150
   Startup grad/error   SOSCFStart      ....  0.003300
 Level Shifting         CNVShift        .... on
   Level shift para.    LevelShift      ....    0.2500
   Turn off err/grad.   ShiftErr        ....    0.0010
 Zerner damping         CNVZerner       .... off
 Static damping         CNVDamp         .... on
   Fraction old density DampFac         ....    0.7000
   Max. Damping (<1)    DampMax         ....    0.9800
   Min. Damping (>=0)   DampMin         ....    0.0000
   Turn off err/grad.   DampErr         ....    0.1000
 Fernandez-Rico         CNVRico         .... off

SCF Procedure:
 Maximum # iterations   MaxIter         ....   150
 SCF integral mode      SCFMode         .... Direct
   Integral package                     .... SHARK and LIBINT hybrid scheme
 Reset frequency        DirectResetFreq ....    20
 Integral Threshold     Thresh          ....  2.500e-11 Eh
 Primitive CutOff       TCut            ....  2.500e-12 Eh

Convergence Tolerance:
 Convergence Check Mode ConvCheckMode   .... Total+1el-Energy
 Convergence forced     ConvForced      .... 0
 Energy Change          TolE            ....  1.000e-08 Eh
 1-El. energy change                    ....  1.000e-05 Eh
 Orbital Gradient       TolG            ....  1.000e-05
 Orbital Rotation angle TolX            ....  1.000e-05
 DIIS Error             TolErr          ....  5.000e-07


Diagonalization of the overlap matrix:
Smallest eigenvalue                        ... 1.186e-05
Time for diagonalization                   ...    0.015 sec
Threshold for overlap eigenvalues          ... 1.000e-08
Number of eigenvalues below threshold      ... 0
Time for construction of square roots      ...    0.014 sec
Total time needed                          ...    0.030 sec

Time for model grid setup =    0.134 sec

------------------------------
INITIAL GUESS: MODEL POTENTIAL
------------------------------
Loading Hartree-Fock densities                     ... done
Calculating cut-offs                               ... done
Initializing the effective Hamiltonian             ... done
Setting up the integral package (SHARK)            ... done
Starting the Coulomb interaction                   ... done (   0.1 sec)
Reading the grid                                   ... done
Mapping shells                                     ... done
Starting the XC term evaluation                    ... done (   0.2 sec)
  promolecular density results
     # of electrons  =     56.995209756
     EX              =    -61.164510638
     EC              =     -2.016498525
     EX+EC           =    -63.181009163
Transforming the Hamiltonian                       ... done (   0.0 sec)
Diagonalizing the Hamiltonian                      ... done (   0.0 sec)
Back transforming the eigenvectors                 ... done (   0.0 sec)
Now organizing SCF variables                       ... done
                      ------------------
                      INITIAL GUESS DONE (   0.5 sec)
                      ------------------
-------------------
DFT GRID GENERATION
-------------------

General Integration Accuracy     IntAcc      ... 4.388
Radial Grid Type                 RadialGrid  ... OptM3 with GC (2021)
Angular Grid (max. ang.)         AngularGrid ... 4 (Lebedev-302)
Angular grid pruning method      GridPruning ... 4 (adaptive)
Weight generation scheme         WeightScheme... Becke
Basis function cutoff            BFCut       ... 1.0000e-11
Integration weight cutoff        WCut        ... 1.0000e-14
Angular grids for H and He will be reduced by one unit
Partially contracted basis set               ... off
Rotationally invariant grid construction     ... off

Total number of grid points                  ...    56587
Total number of batches                      ...      890
Average number of points per batch           ...       63
Average number of grid points per atom       ...     5144
Time for grid setup =    0.580 sec

--------------------
COSX GRID GENERATION
--------------------

GRIDX 1
-------
General Integration Accuracy     IntAcc      ... 3.816
Radial Grid Type                 RadialGrid  ... OptM3 with GC (2021)
Angular Grid (max. ang.)         AngularGrid ... 1 (Lebedev-50)
Angular grid pruning method      GridPruning ... 4 (adaptive)
Weight generation scheme         WeightScheme... Becke
Basis function cutoff            BFCut       ... 1.0000e-11
Integration weight cutoff        WCut        ... 1.0000e-14
Angular grids for H and He will be reduced by one unit
Partially contracted basis set               ... on
Rotationally invariant grid construction     ... off

Total number of grid points                  ...     7032
Total number of batches                      ...      115
Average number of points per batch           ...       61
Average number of grid points per atom       ...      639
UseSFitting                                  ... on

GRIDX 2
-------
General Integration Accuracy     IntAcc      ... 4.020
Radial Grid Type                 RadialGrid  ... OptM3 with GC (2021)
Angular Grid (max. ang.)         AngularGrid ... 2 (Lebedev-110)
Angular grid pruning method      GridPruning ... 4 (adaptive)
Weight generation scheme         WeightScheme... Becke
Basis function cutoff            BFCut       ... 1.0000e-11
Integration weight cutoff        WCut        ... 1.0000e-14
Angular grids for H and He will be reduced by one unit
Partially contracted basis set               ... on
Rotationally invariant grid construction     ... off

Total number of grid points                  ...    17394
Total number of batches                      ...      277
Average number of points per batch           ...       62
Average number of grid points per atom       ...     1581
UseSFitting                                  ... on

GRIDX 3
-------
General Integration Accuracy     IntAcc      ... 4.338
Radial Grid Type                 RadialGrid  ... OptM3 with GC (2021)
Angular Grid (max. ang.)         AngularGrid ... 3 (Lebedev-194)
Angular grid pruning method      GridPruning ... 4 (adaptive)
Weight generation scheme         WeightScheme... Becke
Basis function cutoff            BFCut       ... 1.0000e-11
Integration weight cutoff        WCut        ... 1.0000e-14
Angular grids for H and He will be reduced by one unit
Partially contracted basis set               ... on
Rotationally invariant grid construction     ... off

Total number of grid points                  ...    39286
Total number of batches                      ...      620
Average number of points per batch           ...       63
Average number of grid points per atom       ...     3571
UseSFitting                                  ... on

Time for X-Grid setup             =    0.754 sec

--------------
SCF ITERATIONS
--------------
ITER       Energy         Delta-E        Max-DP      RMS-DP      [F,P]     Damp
               ***  Starting incremental Fock matrix formation  ***
  0   -702.8541451101   0.000000000000 0.10096093  0.00149327  0.3101363 0.7000
  1   -703.0156777094  -0.161532599269 0.06987393  0.00111275  0.1489918 0.7000
                               ***Turning on DIIS***
  2   -703.0856371949  -0.069959485518 0.16348719  0.00232034  0.0605428 0.0000
  3   -703.2006124654  -0.114975270528 0.03995061  0.00065211  0.0758985 0.0000
  4   -703.2198374483  -0.019224982852 0.01492338  0.00023555  0.0091909 0.0000
                      *** Initiating the SOSCF procedure ***
                           *** Shutting down DIIS ***
                      *** Re-Reading the Fockian *** 
                      *** Removing any level shift *** 
ITER      Energy       Delta-E        Grad      Rot      Max-DP    RMS-DP
  5   -703.22035293  -0.0005154791  0.000707  0.000707  0.003560  0.000072
               *** Restarting incremental Fock matrix formation ***
  6   -703.22038208  -0.0000291561  0.000199  0.000333  0.002994  0.000058
  7   -703.22038723  -0.0000051489  0.000089  0.000231  0.001541  0.000034
  8   -703.22038781  -0.0000005781  0.000074  0.000067  0.000556  0.000012
  9   -703.22038822  -0.0000004055  0.000016  0.000017  0.000204  0.000003
 10   -703.22038823  -0.0000000145  0.000012  0.000008  0.000064  0.000001
 11   -703.22038823  -0.0000000012  0.000003  0.000003  0.000048  0.000001
                  ***Gradient check signals convergence***
              ***Rediagonalizing the Fockian in SOSCF/NRSCF***

               *****************************************************
               *                     SUCCESS                       *
               *           SCF CONVERGED AFTER  12 CYCLES          *
               *****************************************************

Old exchange energy                            =    -18.470415146 Eh
New exchange energy                            =    -18.470424270 Eh
Exchange energy change after final integration =     -0.000009124 Eh
Total energy after final integration           =   -703.220397353 Eh
Final COS-X integration done in                =     9.977 sec

----------------
TOTAL SCF ENERGY
----------------

Total Energy       :         -703.22039735 Eh          -19135.59985 eV

Components:
Nuclear Repulsion  :          350.32849347 Eh            9532.92295 eV
Electronic Energy  :        -1053.54889083 Eh          -28668.52280 eV
One Electron Energy:        -1674.69186012 Eh          -45570.68228 eV
Two Electron Energy:          621.14296929 Eh           16902.15948 eV
Max COSX asymmetry :            0.00000166 Eh               0.00005 eV

Virial components:
Potential Energy   :        -1404.59052815 Eh          -38220.85138 eV
Kinetic Energy     :          701.37013080 Eh           19085.25153 eV
Virial Ratio       :            2.00263807


DFT components:
N(Alpha)           :       28.999908478200 electrons
N(Beta)            :       28.999908478200 electrons
N(Total)           :       57.999816956401 electrons
E(XC)              :      -46.142752481694 Eh       
DFET-embed. en.    :        0.000000000000 Eh       

---------------
SCF CONVERGENCE
---------------

  Last Energy change         ...    2.5373e-09  Tolerance :   1.0000e-08
  Last MAX-Density change    ...    8.8818e-16  Tolerance :   1.0000e-07
  Last RMS-Density change    ...    1.5612e-17  Tolerance :   5.0000e-09
  Last Orbital Gradient      ...    2.3931e-06  Tolerance :   1.0000e-05
  Last Orbital Rotation      ...    1.5691e-06  Tolerance :   1.0000e-05

             **** THE GBW FILE WAS UPDATED (TZVPD_wB97XD3_A_wt_dlpno_neg.gbw) ****
             **** DENSITY TZVPD_wB97XD3_A_wt_dlpno_neg.scfp WAS UPDATED ****
             **** ENERGY FILE WAS UPDATED (TZVPD_wB97XD3_A_wt_dlpno_neg.en.tmp) ****
             **** THE GBW FILE WAS UPDATED (TZVPD_wB97XD3_A_wt_dlpno_neg.gbw) ****
             **** DENSITY TZVPD_wB97XD3_A_wt_dlpno_neg.scfp WAS UPDATED ****
----------------
ORBITAL ENERGIES
----------------

  NO   OCC          E(Eh)            E(eV) 
   0   2.0000     -88.934006     -2420.0173 
   1   2.0000     -19.014870      -517.4209 
   2   2.0000     -19.011417      -517.3270 
   3   2.0000     -18.995753      -516.9007 
   4   2.0000     -10.133848      -275.7560 
   5   2.0000     -10.127596      -275.5859 
   6   2.0000      -7.997043      -217.6106 
   7   2.0000      -5.951406      -161.9460 
   8   2.0000      -5.950021      -161.9083 
   9   2.0000      -5.949685      -161.8991 
  10   2.0000      -1.042648       -28.3719 
  11   2.0000      -0.914082       -24.8734 
  12   2.0000      -0.883596       -24.0439 
  13   2.0000      -0.744540       -20.2600 
  14   2.0000      -0.616300       -16.7704 
  15   2.0000      -0.486387       -13.2353 
  16   2.0000      -0.417779       -11.3683 
  17   2.0000      -0.416172       -11.3246 
  18   2.0000      -0.375496       -10.2178 
  19   2.0000      -0.363141        -9.8816 
  20   2.0000      -0.353904        -9.6302 
  21   2.0000      -0.322814        -8.7842 
  22   2.0000      -0.307625        -8.3709 
  23   2.0000      -0.251366        -6.8400 
  24   2.0000      -0.250610        -6.8195 
  25   2.0000      -0.215692        -5.8693 
  26   2.0000      -0.203005        -5.5240 
  27   2.0000      -0.190579        -5.1859 
  28   2.0000      -0.159566        -4.3420 
  29   0.0000       0.176312         4.7977 
  30   0.0000       0.185675         5.0525 
  31   0.0000       0.187165         5.0930 
  32   0.0000       0.193362         5.2617 
  33   0.0000       0.221606         6.0302 
  34   0.0000       0.233282         6.3479 
  35   0.0000       0.254662         6.9297 
  36   0.0000       0.266186         7.2433 
  37   0.0000       0.267859         7.2888 
  38   0.0000       0.287304         7.8179 
  39   0.0000       0.296863         8.0780 
  40   0.0000       0.310779         8.4567 
  41   0.0000       0.316822         8.6212 
  42   0.0000       0.321787         8.7563 
  43   0.0000       0.334457         9.1010 
  44   0.0000       0.337289         9.1781 
  45   0.0000       0.340685         9.2705 
  46   0.0000       0.348694         9.4885 
  47   0.0000       0.353589         9.6216 
  48   0.0000       0.361662         9.8413 
  49   0.0000       0.366277         9.9669 
  50   0.0000       0.379296        10.3212 
  51   0.0000       0.393002        10.6941 
  52   0.0000       0.405847        11.0437 
  53   0.0000       0.414521        11.2797 
  54   0.0000       0.421551        11.4710 
  55   0.0000       0.426863        11.6155 
  56   0.0000       0.435131        11.8405 
  57   0.0000       0.456948        12.4342 
  58   0.0000       0.462708        12.5909 
  59   0.0000       0.464158        12.6304 
  60   0.0000       0.476751        12.9730 
  61   0.0000       0.477446        12.9920 
  62   0.0000       0.485408        13.2086 
  63   0.0000       0.499002        13.5785 
  64   0.0000       0.503668        13.7055 
  65   0.0000       0.510707        13.8970 
  66   0.0000       0.514436        13.9985 
  67   0.0000       0.516976        14.0676 
  68   0.0000       0.528124        14.3710 
  69   0.0000       0.542121        14.7519 
  70   0.0000       0.550871        14.9899 
  71   0.0000       0.558625        15.2010 
  72   0.0000       0.566075        15.4037 
  73   0.0000       0.570574        15.5261 
  74   0.0000       0.575241        15.6531 
  75   0.0000       0.593836        16.1591 
  76   0.0000       0.602365        16.3912 
  77   0.0000       0.605728        16.4827 
  78   0.0000       0.617238        16.7959 
  79   0.0000       0.622054        16.9269 
  80   0.0000       0.629961        17.1421 
  81   0.0000       0.644248        17.5309 
  82   0.0000       0.646739        17.5987 
  83   0.0000       0.664384        18.0788 
  84   0.0000       0.673746        18.3335 
  85   0.0000       0.682686        18.5768 
  86   0.0000       0.691708        18.8223 
  87   0.0000       0.709119        19.2961 
  88   0.0000       0.721168        19.6240 
  89   0.0000       0.735012        20.0007 
  90   0.0000       0.759557        20.6686 
  91   0.0000       0.780219        21.2308 
  92   0.0000       0.790253        21.5039 
  93   0.0000       0.793170        21.5833 
  94   0.0000       0.807868        21.9832 
  95   0.0000       0.815243        22.1839 
  96   0.0000       0.827618        22.5206 
  97   0.0000       0.828475        22.5439 
  98   0.0000       0.841316        22.8934 
  99   0.0000       0.858008        23.3476 
 100   0.0000       0.868744        23.6397 
 101   0.0000       0.875157        23.8142 
 102   0.0000       0.889092        24.1934 
 103   0.0000       0.894656        24.3448 
 104   0.0000       0.904710        24.6184 
 105   0.0000       0.914906        24.8959 
 106   0.0000       0.919130        25.0108 
 107   0.0000       0.922088        25.0913 
 108   0.0000       0.930002        25.3066 
 109   0.0000       0.936946        25.4956 
 110   0.0000       0.952347        25.9147 
 111   0.0000       0.956160        26.0184 
 112   0.0000       0.970241        26.4016 
 113   0.0000       0.978271        26.6201 
 114   0.0000       1.002590        27.2819 
 115   0.0000       1.011290        27.5186 
 116   0.0000       1.019161        27.7328 
 117   0.0000       1.045393        28.4466 
 118   0.0000       1.057353        28.7720 
 119   0.0000       1.077402        29.3176 
 120   0.0000       1.095516        29.8105 
 121   0.0000       1.141997        31.0753 
 122   0.0000       1.157797        31.5053 
 123   0.0000       1.173179        31.9238 
 124   0.0000       1.188821        32.3495 
 125   0.0000       1.196997        32.5719 
 126   0.0000       1.226679        33.3796 
 127   0.0000       1.237621        33.6774 
 128   0.0000       1.253949        34.1217 
 129   0.0000       1.261685        34.3322 
 130   0.0000       1.273702        34.6592 
 131   0.0000       1.298791        35.3419 
 132   0.0000       1.307599        35.5816 
 133   0.0000       1.314972        35.7822 
 134   0.0000       1.339008        36.4363 
 135   0.0000       1.362280        37.0695 
 136   0.0000       1.379281        37.5321 
 137   0.0000       1.428376        38.8681 
 138   0.0000       1.467615        39.9358 
 139   0.0000       1.489550        40.5327 
 140   0.0000       1.515900        41.2497 
 141   0.0000       1.532437        41.6997 
 142   0.0000       1.556012        42.3412 
 143   0.0000       1.596186        43.4344 
 144   0.0000       1.627345        44.2823 
 145   0.0000       1.634822        44.4858 
 146   0.0000       1.849212        50.3196 
 147   0.0000       1.853102        50.4255 
 148   0.0000       1.865012        50.7495 
 149   0.0000       1.867699        50.8227 
 150   0.0000       1.893207        51.5168 
 151   0.0000       1.917799        52.1860 
 152   0.0000       1.937090        52.7109 
 153   0.0000       2.007152        54.6174 
 154   0.0000       2.014169        54.8083 
 155   0.0000       2.033496        55.3342 
 156   0.0000       2.056530        55.9610 
 157   0.0000       2.061608        56.0992 
 158   0.0000       2.068596        56.2894 
 159   0.0000       2.093141        56.9573 
 160   0.0000       2.100289        57.1518 
 161   0.0000       2.117517        57.6206 
 162   0.0000       2.153868        58.6097 
 163   0.0000       2.159144        58.7533 
 164   0.0000       2.173793        59.1519 
 165   0.0000       2.193198        59.6800 
 166   0.0000       2.194514        59.7158 
 167   0.0000       2.245264        61.0967 
 168   0.0000       2.279796        62.0364 
 169   0.0000       2.292480        62.3816 
 170   0.0000       2.309035        62.8320 
 171   0.0000       2.345098        63.8134 
 172   0.0000       2.396446        65.2106 
 173   0.0000       2.423864        65.9567 
 174   0.0000       2.436848        66.3100 
 175   0.0000       2.470191        67.2173 
 176   0.0000       2.572274        69.9951 
 177   0.0000       2.622128        71.3517 
 178   0.0000       2.638999        71.8108 
 179   0.0000       2.663100        72.4666 
 180   0.0000       2.689541        73.1861 
 181   0.0000       2.706954        73.6600 
 182   0.0000       2.726157        74.1825 
 183   0.0000       2.753506        74.9267 
 184   0.0000       2.766280        75.2743 
 185   0.0000       2.774489        75.4977 
 186   0.0000       2.785208        75.7894 
 187   0.0000       2.812189        76.5236 
 188   0.0000       2.824883        76.8690 
 189   0.0000       2.848672        77.5163 
 190   0.0000       2.857893        77.7672 
 191   0.0000       2.866143        77.9917 
 192   0.0000       2.918327        79.4117 
 193   0.0000       2.957851        80.4872 
 194   0.0000       2.973602        80.9158 
 195   0.0000       2.976850        81.0042 
 196   0.0000       3.010012        81.9066 
 197   0.0000       3.019503        82.1648 
 198   0.0000       3.034847        82.5824 
 199   0.0000       3.056226        83.1641 
 200   0.0000       3.117337        84.8271 
 201   0.0000       3.149796        85.7103 
 202   0.0000       3.243038        88.2476 
 203   0.0000       3.303813        89.9013 
 204   0.0000       3.346293        91.0573 
 205   0.0000       3.407946        92.7349 
 206   0.0000       3.433775        93.4378 
 207   0.0000       3.457114        94.0729 
 208   0.0000       3.486859        94.8822 
 209   0.0000       3.500124        95.2432 
 210   0.0000       3.506992        95.4301 
 211   0.0000       3.525783        95.9414 
 212   0.0000       3.543414        96.4212 
 213   0.0000       3.584335        97.5347 
 214   0.0000       3.606388        98.1348 
 215   0.0000       3.630650        98.7950 
 216   0.0000       3.672583        99.9361 
 217   0.0000       3.695693       100.5649 
 218   0.0000       3.748271       101.9956 
 219   0.0000       3.766756       102.4986 
 220   0.0000       3.781430       102.8979 
 221   0.0000       3.785493       103.0085 
 222   0.0000       3.802791       103.4792 
 223   0.0000       3.847966       104.7085 
 224   0.0000       3.883580       105.6776 
 225   0.0000       3.986586       108.4805 
 226   0.0000       4.081147       111.0537 
 227   0.0000       4.089235       111.2737 
 228   0.0000       4.192276       114.0776 
 229   0.0000       4.237013       115.2950 
 230   0.0000       4.308797       117.2483 
 231   0.0000       4.311753       117.3288 
 232   0.0000       4.566807       124.2691 
 233   0.0000       4.620050       125.7180 
 234   0.0000       4.645691       126.4157 
 235   0.0000       4.687645       127.5573 
 236   0.0000       4.796135       130.5095 
 237   0.0000       4.813105       130.9712 
 238   0.0000       4.990548       135.7997 
 239   0.0000       5.176180       140.8510 
 240   0.0000       5.424955       147.6205 
 241   0.0000       5.451741       148.3494 
 242   0.0000       5.464208       148.6887 
 243   0.0000       5.470100       148.8490 
 244   0.0000       5.473727       148.9477 
 245   0.0000       5.484038       149.2283 
 246   0.0000       5.493149       149.4762 
 247   0.0000       5.516074       150.1000 
 248   0.0000       5.518738       150.1725 
 249   0.0000       5.631127       153.2308 
 250   0.0000       5.644046       153.5823 
 251   0.0000       5.654751       153.8736 
 252   0.0000       5.682816       154.6373 
 253   0.0000       5.710190       155.3822 
 254   0.0000       5.801664       157.8713 
 255   0.0000       5.875517       159.8810 
 256   0.0000       5.929241       161.3428 
 257   0.0000       5.996925       163.1846 
 258   0.0000       6.026753       163.9963 
 259   0.0000       6.049746       164.6220 
 260   0.0000       6.230036       169.5279 
 261   0.0000       6.740193       183.4100 
 262   0.0000       6.753019       183.7590 
 263   0.0000       6.760015       183.9494 
 264   0.0000       6.850245       186.4046 
 265   0.0000       6.859066       186.6447 
 266   0.0000       6.887947       187.4306 
 267   0.0000       7.043807       191.6717 
 268   0.0000       7.053615       191.9386 
 269   0.0000       7.070152       192.3886 
 270   0.0000       7.092116       192.9863 
 271   0.0000       7.267726       197.7649 
 272   0.0000       7.294393       198.4905 
 273   0.0000       7.325775       199.3445 
 274   0.0000       7.420578       201.9242 
 275   0.0000       7.442258       202.5141 
 276   0.0000       9.816108       267.1099 
 277   0.0000      10.039226       273.1812 
 278   0.0000      10.159269       276.4478 
 279   0.0000      22.759954       619.3298 
 280   0.0000      22.816367       620.8649 
 281   0.0000      23.341495       635.1544 
 282   0.0000      44.136958      1201.0277 
 283   0.0000      44.390726      1207.9331 
 284   0.0000      44.424973      1208.8650 

                    ********************************
                    * MULLIKEN POPULATION ANALYSIS *
                    ********************************

-----------------------
MULLIKEN ATOMIC CHARGES
-----------------------
   0 C :   -1.177511
   1 C :   -0.365703
   2 S :    1.183965
   3 H :    0.289639
   4 H :    0.277714
   5 O :   -0.682558
   6 O :   -0.744616
   7 O :   -0.703942
   8 H :    0.298652
   9 H :    0.305003
  10 H :    0.319358
Sum of atomic charges:   -1.0000000

--------------------------------
MULLIKEN REDUCED ORBITAL CHARGES
--------------------------------
  0 C s       :     3.485767  s :     3.485767
      pz      :     1.270627  p :     3.616685
      px      :     1.071481
      py      :     1.274578
      dz2     :     0.011779  d :     0.072034
      dxz     :    -0.010033
      dyz     :     0.025354
      dx2y2   :     0.028196
      dxy     :     0.016738
      f0      :     0.000180  f :     0.003025
      f+1     :     0.000453
      f-1     :     0.000463
      f+2     :     0.000589
      f-2     :     0.000119
      f+3     :     0.000526
      f-3     :     0.000694
  1 C s       :     3.109920  s :     3.109920
      pz      :     1.194277  p :     3.165916
      px      :     0.973036
      py      :     0.998603
      dz2     :     0.017590  d :     0.085421
      dxz     :     0.001039
      dyz     :     0.045992
      dx2y2   :     0.014524
      dxy     :     0.006276
      f0      :     0.000397  f :     0.004445
      f+1     :     0.000581
      f-1     :     0.000424
      f+2     :     0.000778
      f-2     :     0.000352
      f+3     :     0.000819
      f-3     :     0.001094
  2 S s       :     5.310021  s :     5.310021
      pz      :     2.673095  p :     8.141974
      px      :     2.675444
      py      :     2.793435
      dz2     :     0.278563  d :     1.239309
      dxz     :     0.257009
      dyz     :     0.215448
      dx2y2   :     0.223359
      dxy     :     0.264930
      f0      :     0.017486  f :     0.124731
      f+1     :     0.034309
      f-1     :     0.014350
      f+2     :     0.016990
      f-2     :     0.013924
      f+3     :     0.015385
      f-3     :     0.012286
  3 H s       :     0.671428  s :     0.671428
      pz      :     0.028503  p :     0.038934
      px      :     0.009053
      py      :     0.001378
  4 H s       :     0.673455  s :     0.673455
      pz      :     0.021555  p :     0.048831
      px      :     0.021201
      py      :     0.006075
  5 O s       :     3.931928  s :     3.931928
      pz      :     1.653847  p :     4.716348
      px      :     1.378636
      py      :     1.683866
      dz2     :     0.002744  d :     0.032268
      dxz     :     0.010804
      dyz     :     0.001977
      dx2y2   :     0.010104
      dxy     :     0.006639
      f0      :     0.000162  f :     0.002014
      f+1     :     0.000476
      f-1     :     0.000042
      f+2     :     0.000352
      f-2     :     0.000289
      f+3     :     0.000341
      f-3     :     0.000353
  6 O s       :     3.939458  s :     3.939458
      pz      :     1.324325  p :     4.771221
      px      :     1.767606
      py      :     1.679290
      dz2     :     0.010965  d :     0.032171
      dxz     :     0.005146
      dyz     :     0.011502
      dx2y2   :     0.001932
      dxy     :     0.002626
      f0      :     0.000538  f :     0.001766
      f+1     :     0.000355
      f-1     :     0.000480
      f+2     :     0.000175
      f-2     :     0.000179
      f+3     :     0.000020
      f-3     :     0.000018
  7 O s       :     3.940039  s :     3.940039
      pz      :     1.615648  p :     4.729017
      px      :     1.526516
      py      :     1.586853
      dz2     :     0.002988  d :     0.032932
      dxz     :     0.007616
      dyz     :     0.008565
      dx2y2   :     0.005763
      dxy     :     0.008000
      f0      :     0.000173  f :     0.001953
      f+1     :     0.000315
      f-1     :     0.000222
      f+2     :     0.000312
      f-2     :     0.000385
      f+3     :     0.000279
      f-3     :     0.000268
  8 H s       :     0.646324  s :     0.646324
      pz      :     0.019626  p :     0.055024
      px      :     0.019424
      py      :     0.015974
  9 H s       :     0.639959  s :     0.639959
      pz      :     0.030979  p :     0.055038
      px      :     0.006004
      py      :     0.018055
 10 H s       :     0.625343  s :     0.625343
      pz      :     0.010408  p :     0.055298
      px      :     0.019940
      py      :     0.024950


                     *******************************
                     * LOEWDIN POPULATION ANALYSIS *
                     *******************************

----------------------
LOEWDIN ATOMIC CHARGES
----------------------
   0 C :   -0.145652
   1 C :   -0.327406
   2 S :    0.345870
   3 H :    0.078004
   4 H :    0.083097
   5 O :   -0.383685
   6 O :   -0.428247
   7 O :   -0.387832
   8 H :    0.055996
   9 H :    0.061527
  10 H :    0.048329

-------------------------------
LOEWDIN REDUCED ORBITAL CHARGES
-------------------------------
  0 C s       :     2.725500  s :     2.725500
      pz      :     0.984957  p :     2.910341
      px      :     0.959409
      py      :     0.965975
      dz2     :     0.070478  d :     0.482688
      dxz     :     0.122294
      dyz     :     0.063934
      dx2y2   :     0.096982
      dxy     :     0.129000
      f0      :     0.002098  f :     0.027124
      f+1     :     0.004569
      f-1     :     0.003803
      f+2     :     0.003852
      f-2     :     0.002895
      f+3     :     0.004965
      f-3     :     0.004941
  1 C s       :     2.727159  s :     2.727159
      pz      :     0.961209  p :     2.836177
      px      :     0.946852
      py      :     0.928116
      dz2     :     0.088125  d :     0.732113
      dxz     :     0.153725
      dyz     :     0.140524
      dx2y2   :     0.161216
      dxy     :     0.188522
      f0      :     0.002805  f :     0.031958
      f+1     :     0.004663
      f-1     :     0.003960
      f+2     :     0.004401
      f-2     :     0.003854
      f+3     :     0.005889
      f-3     :     0.006385
  2 S s       :     4.570713  s :     4.570713
      pz      :     2.789443  p :     8.357696
      px      :     2.789727
      py      :     2.778526
      dz2     :     0.505892  d :     2.344494
      dxz     :     0.507062
      dyz     :     0.420313
      dx2y2   :     0.431122
      dxy     :     0.480105
      f0      :     0.054467  f :     0.381227
      f+1     :     0.094508
      f-1     :     0.046681
      f+2     :     0.051593
      f-2     :     0.047374
      f+3     :     0.045904
      f-3     :     0.040701
  3 H s       :     0.699202  s :     0.699202
      pz      :     0.093689  p :     0.222793
      px      :     0.057642
      py      :     0.071463
  4 H s       :     0.697199  s :     0.697199
      pz      :     0.081392  p :     0.219704
      px      :     0.067105
      py      :     0.071207
  5 O s       :     3.468150  s :     3.468150
      pz      :     1.577905  p :     4.646453
      px      :     1.510265
      py      :     1.558284
      dz2     :     0.046230  d :     0.264375
      dxz     :     0.068054
      dyz     :     0.027575
      dx2y2   :     0.056241
      dxy     :     0.066274
      f0      :     0.000546  f :     0.004706
      f+1     :     0.000835
      f-1     :     0.000097
      f+2     :     0.001032
      f-2     :     0.000633
      f+3     :     0.000748
      f-3     :     0.000813
  6 O s       :     3.494661  s :     3.494661
      pz      :     1.473491  p :     4.675151
      px      :     1.615411
      py      :     1.586248
      dz2     :     0.080066  d :     0.254360
      dxz     :     0.066327
      dyz     :     0.068176
      dx2y2   :     0.019531
      dxy     :     0.020261
      f0      :     0.001201  f :     0.004075
      f+1     :     0.000711
      f-1     :     0.001351
      f+2     :     0.000369
      f-2     :     0.000366
      f+3     :     0.000049
      f-3     :     0.000029
  7 O s       :     3.468250  s :     3.468250
      pz      :     1.572392  p :     4.648667
      px      :     1.527834
      py      :     1.548441
      dz2     :     0.052015  d :     0.266346
      dxz     :     0.055842
      dyz     :     0.045551
      dx2y2   :     0.054782
      dxy     :     0.058156
      f0      :     0.000542  f :     0.004570
      f+1     :     0.000620
      f-1     :     0.000393
      f+2     :     0.000555
      f-2     :     0.001252
      f+3     :     0.000506
      f-3     :     0.000703
  8 H s       :     0.702335  s :     0.702335
      pz      :     0.089286  p :     0.241669
      px      :     0.072134
      py      :     0.080249
  9 H s       :     0.704929  s :     0.704929
      pz      :     0.096150  p :     0.233544
      px      :     0.060982
      py      :     0.076412
 10 H s       :     0.720651  s :     0.720651
      pz      :     0.063003  p :     0.231020
      px      :     0.065016
      py      :     0.103001


                      *****************************
                      * MAYER POPULATION ANALYSIS *
                      *****************************

  NA   - Mulliken gross atomic population
  ZA   - Total nuclear charge
  QA   - Mulliken gross atomic charge
  VA   - Mayer's total valence
  BVA  - Mayer's bonded valence
  FA   - Mayer's free valence

  ATOM       NA         ZA         QA         VA         BVA        FA
  0 C      7.1775     6.0000    -1.1775     3.7433     3.7433     0.0000
  1 C      6.3657     6.0000    -0.3657     3.7229     3.7229    -0.0000
  2 S     14.8160    16.0000     1.1840     5.5194     5.5194    -0.0000
  3 H      0.7104     1.0000     0.2896     0.9441     0.9441    -0.0000
  4 H      0.7223     1.0000     0.2777     0.9830     0.9830    -0.0000
  5 O      8.6826     8.0000    -0.6826     1.7179     1.7179     0.0000
  6 O      8.7446     8.0000    -0.7446     1.6699     1.6699    -0.0000
  7 O      8.7039     8.0000    -0.7039     1.7110     1.7110    -0.0000
  8 H      0.7013     1.0000     0.2987     0.9996     0.9996     0.0000
  9 H      0.6950     1.0000     0.3050     0.9924     0.9924     0.0000
 10 H      0.6806     1.0000     0.3194     0.9721     0.9721     0.0000

  Mayer bond orders larger than 0.100000
B(  0-C ,  1-C ) :   0.7229 B(  0-C ,  8-H ) :   0.9800 B(  0-C ,  9-H ) :   0.9695 
B(  0-C , 10-H ) :   0.9191 B(  1-C ,  2-S ) :   0.8416 B(  1-C ,  3-H ) :   0.9428 
B(  1-C ,  4-H ) :   0.9540 B(  1-C ,  5-O ) :   0.1349 B(  1-C ,  6-O ) :   0.1209 
B(  2-S ,  5-O ) :   1.5357 B(  2-S ,  6-O ) :   1.4819 B(  2-S ,  7-O ) :   1.5295 


-------
TIMINGS
-------

Total SCF time: 0 days 0 hours 1 min 5 sec 

Total time                  ....      65.207 sec
Sum of individual times     ....      64.914 sec  ( 99.6%)

Fock matrix formation       ....      62.729 sec  ( 96.2%)
  Split-RI-J                ....       2.338 sec  (  3.7% of F)
  Chain of spheres X        ....      54.522 sec  ( 86.9% of F)
  XC integration            ....       5.683 sec  (  9.1% of F)
    Basis function eval.    ....       1.465 sec  ( 25.8% of XC)
    Density eval.           ....       1.437 sec  ( 25.3% of XC)
    XC-Functional eval.     ....       0.306 sec  (  5.4% of XC)
    XC-Potential eval.      ....       2.098 sec  ( 36.9% of XC)
Diagonalization             ....       0.126 sec  (  0.2%)
Density matrix formation    ....       0.013 sec  (  0.0%)
Population analysis         ....       0.016 sec  (  0.0%)
Initial guess               ....       0.389 sec  (  0.6%)
Orbital Transformation      ....       0.000 sec  (  0.0%)
Orbital Orthonormalization  ....       0.000 sec  (  0.0%)
DIIS solution               ....       0.064 sec  (  0.1%)
SOSCF solution              ....       0.110 sec  (  0.2%)
Grid generation             ....       1.468 sec  (  2.3%)

Maximum memory used throughout the entire SCF-calculation: 76.5 MB


-------------------------------------------------------------------------------
                          DFT DISPERSION CORRECTION                            
                                                                               
                              DFTD3 V3.1  Rev 1                                
                              USING zero damping                               
-------------------------------------------------------------------------------
The omegaB97X-D3 functional is recognized. Fit by Chai et al.
Active option DFTDOPT                   ...         3   

molecular C6(AA) [au] = 1522.460936 


            DFT-D V3
 parameters
 s6 scaling factor         :     1.0000 
 rs6 scaling factor        :     1.2810 
 s8 scaling factor         :     1.0000 
 rs8 scaling factor        :     1.0940 
 Damping factor alpha6     :    14.0000 
 Damping factor alpha8     :    16.0000 
 ad hoc parameters k1-k3   :    16.0000     1.3333    -4.0000 

 Edisp/kcal,au: -1.829771652228  -0.002915926424 
 E6   /kcal   :  -0.613816585 
 E8   /kcal   :  -1.215955067 
 % E8         :  66.453924218 

-------------------------   ----------------
Dispersion correction           -0.002915926
-------------------------   ----------------


-------------------------   --------------------
FINAL SINGLE POINT ENERGY      -703.223313279574
-------------------------   --------------------


                            ***************************************
                            *     ORCA property calculations      *
                            ***************************************

                                    ---------------------
                                    Active property flags
                                    ---------------------
   (+) Dipole Moment


------------------------------------------------------------------------------
                       ORCA ELECTRIC PROPERTIES CALCULATION
------------------------------------------------------------------------------

Dipole Moment Calculation                       ... on
Quadrupole Moment Calculation                   ... off
Polarizability Calculation                      ... off
GBWName                                         ... TZVPD_wB97XD3_A_wt_dlpno_neg.gbw
Electron density file                           ... TZVPD_wB97XD3_A_wt_dlpno_neg.scfp
The origin for moment calculation is the CENTER OF MASS  = (-1.840066,  0.789313 -8.124395)

-------------
DIPOLE MOMENT
-------------
                                X             Y             Z
Electronic contribution:     -5.57786      -5.27907      -1.93579
Nuclear contribution   :      6.64523       6.80157       2.07300
                        -----------------------------------------
Total Dipole Moment    :      1.06736       1.52250       0.13721
                        -----------------------------------------
Magnitude (a.u.)       :      1.86443
Magnitude (Debye)      :      4.73901



--------------------
Rotational spectrum 
--------------------
 
Rotational constants in cm-1:     0.163070     0.082807     0.081541 
Rotational constants in MHz :  4888.719902  2482.497026  2444.541148 

 Dipole components along the rotational axes: 
x,y,z [a.u.] :     1.708077     0.686456    -0.295567 
x,y,z [Debye]:     4.341587     1.744832    -0.751271 

 

Timings for individual modules:

Sum of individual times         ...       70.043 sec (=   1.167 min)
GTO integral calculation        ...        2.904 sec (=   0.048 min)   4.1 %
SCF iterations                  ...       67.139 sec (=   1.119 min)  95.9 %
                             ****ORCA TERMINATED NORMALLY****
TOTAL RUN TIME: 0 days 0 hours 1 minutes 10 seconds 562 msec
