
                                        *****************
                                        * O   R   C   A *
                                        *****************

                                            #,                                       
                                            ###                                      
                                            ####                                     
                                            #####                                    
                                            ######                                   
                                           ########,                                 
                                     ,,################,,,,,                         
                               ,,#################################,,                 
                          ,,##########################################,,             
                       ,#########################################, ''#####,          
                    ,#############################################,,   '####,        
                  ,##################################################,,,,####,       
                ,###########''''           ''''###############################       
              ,#####''   ,,,,##########,,,,          '''####'''          '####       
            ,##' ,,,,###########################,,,                        '##       
           ' ,,###''''                  '''############,,,                           
         ,,##''                                '''############,,,,        ,,,,,,###''
      ,#''                                            '''#######################'''  
     '                                                          ''''####''''         
             ,#######,   #######,   ,#######,      ##                                
            ,#'     '#,  ##    ##  ,#'     '#,    #''#        ######   ,####,        
            ##       ##  ##   ,#'  ##            #'  '#       #        #'  '#        
            ##       ##  #######   ##           ,######,      #####,   #    #        
            '#,     ,#'  ##    ##  '#,     ,#' ,#      #,         ##   #,  ,#        
             '#######'   ##     ##  '#######'  #'      '#     #####' # '####'        



                  #######################################################
                  #                        -***-                        #
                  #          Department of theory and spectroscopy      #
                  #    Directorship and core code : Frank Neese         #
                  #        Max Planck Institute fuer Kohlenforschung    #
                  #                Kaiser Wilhelm Platz 1               #
                  #                 D-45470 Muelheim/Ruhr               #
                  #                      Germany                        #
                  #                                                     #
                  #                  All rights reserved                #
                  #                        -***-                        #
                  #######################################################


                         Program Version 5.0.0 -  RELEASE  -
                                (SVN: $Rev: 19529$)
                ($Date: 2021-06-28 11:36:33 +0200 (Mo, 28 Jun 2021) $)


 With contributions from (in alphabetic order):
   Daniel Aravena         : Magnetic Suceptibility
   Michael Atanasov       : Ab Initio Ligand Field Theory (pilot matlab implementation)
   Alexander A. Auer      : GIAO ZORA, VPT2 properties, NMR spectrum
   Ute Becker             : Parallelization
   Giovanni Bistoni       : ED, misc. LED, open-shell LED, HFLD
   Martin Brehm           : Molecular dynamics
   Dmytro Bykov           : SCF Hessian
   Vijay G. Chilkuri      : MRCI spin determinant printing, contributions to CSF-ICE
   Dipayan Datta          : RHF DLPNO-CCSD density
   Achintya Kumar Dutta   : EOM-CC, STEOM-CC
   Dmitry Ganyushin       : Spin-Orbit,Spin-Spin,Magnetic field MRCI
   Miquel Garcia          : C-PCM Hessian, Gaussian charge scheme
   Yang Guo               : DLPNO-NEVPT2, F12-NEVPT2, CIM, IAO-localization
   Andreas Hansen         : Spin unrestricted coupled pair/coupled cluster methods
   Benjamin Helmich-Paris : MC-RPA, TRAH-SCF, COSX integrals
   Lee Huntington         : MR-EOM, pCC
   Robert Izsak           : Overlap fitted RIJCOSX, COSX-SCS-MP3, EOM
   Marcus Kettner         : VPT2
   Christian Kollmar      : KDIIS, OOCD, Brueckner-CCSD(T), CCSD density, CASPT2, CASPT2-K
   Simone Kossmann        : Meta GGA functionals, TD-DFT gradient, OOMP2, MP2 Hessian
   Martin Krupicka        : Initial AUTO-CI
   Lucas Lang             : DCDCAS
   Marvin Lechner         : AUTO-CI (C++ implementation), FIC-MRCC
   Dagmar Lenk            : GEPOL surface, SMD
   Dimitrios Liakos       : Extrapolation schemes; Compound Job, initial MDCI parallelization
   Dimitrios Manganas     : Further ROCIS development; embedding schemes
   Dimitrios Pantazis     : SARC Basis sets
   Anastasios Papadopoulos: AUTO-CI, single reference methods and gradients
   Taras Petrenko         : DFT Hessian,TD-DFT gradient, ASA, ECA, R-Raman, ABS, FL, XAS/XES, NRVS
   Peter Pinski           : DLPNO-MP2, DLPNO-MP2 Gradient
   Christoph Reimann      : Effective Core Potentials
   Marius Retegan         : Local ZFS, SOC
   Christoph Riplinger    : Optimizer, TS searches, QM/MM, DLPNO-CCSD(T), (RO)-DLPNO pert. Triples
   Tobias Risthaus        : Range-separated hybrids, TD-DFT gradient, RPA, STAB
   Michael Roemelt        : Original ROCIS implementation
   Masaaki Saitow         : Open-shell DLPNO-CCSD energy and density
   Barbara Sandhoefer     : DKH picture change effects
   Avijit Sen             : IP-ROCIS
   Kantharuban Sivalingam : CASSCF convergence, NEVPT2, FIC-MRCI
   Bernardo de Souza      : ESD, SOC TD-DFT
   Georgi Stoychev        : AutoAux, RI-MP2 NMR
   Willem Van den Heuvel  : Paramagnetic NMR
   Boris Wezisla          : Elementary symmetry handling
   Frank Wennmohs         : Technical directorship


 We gratefully acknowledge several colleagues who have allowed us to
 interface, adapt or use parts of their codes:
   Stefan Grimme, W. Hujo, H. Kruse, P. Pracht,  : VdW corrections, initial TS optimization,
                  C. Bannwarth, S. Ehlert          DFT functionals, gCP, sTDA/sTD-DF
   Ed Valeev, F. Pavosevic, A. Kumar             : LibInt (2-el integral package), F12 methods
   Garnet Chan, S. Sharma, J. Yang, R. Olivares  : DMRG
   Ulf Ekstrom                                   : XCFun DFT Library
   Mihaly Kallay                                 : mrcc  (arbitrary order and MRCC methods)
   Jiri Pittner, Ondrej Demel                    : Mk-CCSD
   Frank Weinhold                                : gennbo (NPA and NBO analysis)
   Christopher J. Cramer and Donald G. Truhlar   : smd solvation model
   Lars Goerigk                                  : TD-DFT with DH, B97 family of functionals
   V. Asgeirsson, H. Jonsson                     : NEB implementation
   FAccTs GmbH                                   : IRC, NEB, NEB-TS, DLPNO-Multilevel, CI-OPT
                                                   MM, QMMM, 2- and 3-layer-ONIOM, Crystal-QMMM,
                                                   LR-CPCM, SF, NACMEs, symmetry and pop. for TD-DFT,
                                                   nearIR, NL-DFT gradient (VV10), updates on ESD,
                                                   ML-optimized integration grids
   S Lehtola, MJT Oliveira, MAL Marques          : LibXC Library
   Liviu Ungur et al                             : ANISO software


 Your calculation uses the libint2 library for the computation of 2-el integrals
 For citations please refer to: http://libint.valeyev.net

 Your ORCA version has been built with support for libXC version: 5.1.0
 For citations please refer to: https://tddft.org/programs/libxc/

 This ORCA versions uses:
   CBLAS   interface :  Fast vector & matrix operations
   LAPACKE interface :  Fast linear algebra routines
   SCALAPACK package :  Parallel linear algebra routines
   Shared memory     :  Shared parallel matrices
   BLAS/LAPACK       :  OpenBLAS 0.3.15  USE64BITINT DYNAMIC_ARCH NO_AFFINITY Haswell SINGLE_THREADED
        Core in use  :  Haswell
   Copyright (c) 2011-2014, The OpenBLAS Project


XCFun DFT library Copyright 2009-2010 Ulf Ekstrom and contributors.
See http://admol.org/xcfun for more information.
This is free software; see the source code for copying conditions.
There is ABSOLUTELY NO WARRANTY; not even for MERCHANTABILITY or FITNESS FOR A PARTICULAR PURPOSE.
For details see the documentation.
Scientific users of this library should cite U. Ekstrom, L. Visscher, R. Bast, A. J. Thorvaldsen and K. Ruud;
J.Chem.Theor.Comp. 2010, DOI: 10.1021/ct100117s
XCFun Version 0.99 

================================================================================

----- Orbital basis set information -----
Your calculation utilizes the basis: def2-SVP
   F. Weigend and R. Ahlrichs, Phys. Chem. Chem. Phys. 7, 3297 (2005).

----- AuxJ basis set information -----
Your calculation utilizes the auxiliary basis: def2/J
   F. Weigend, Phys. Chem. Chem. Phys. 8, 1057 (2006).

================================================================================
                                        WARNINGS
                       Please study these warnings very carefully!
================================================================================


INFO   : the flag for use of the SHARK integral package has been found!

================================================================================
                                       INPUT FILE
================================================================================
NAME = SVP_CAMB3LYP_C1_wt_dlpno_neg.com
|  1> !CAM-B3LYP RIJCOSX def2-SVP def2/J TightSCF 
|  2> *xyz 0 1 
|  3> C         -0.77894        0.17197        1.80496
|  4> C         -0.60249       -0.63071        0.49224
|  5> H          0.31389       -1.24035        0.60350
|  6> H         -0.36383        0.11332       -0.30117
|  7> F         -1.71206       -1.37684        0.20253
|  8> H         -1.65864        0.77733        1.73736
|  9> H          0.07466        0.79896        1.95712
| 10> H         -0.87474       -0.50584        2.62734
| 11> *
| 12> %MaxCore 64000
| 13> 
| 14> %pal nprocs 4 
| 15> end  
| 16> 
| 17> %scf
| 18>   MaxIter 150
| 19> end
| 20> 
| 21> 
| 22>                          ****END OF INPUT****
================================================================================

                       ****************************
                       * Single Point Calculation *
                       ****************************

---------------------------------
CARTESIAN COORDINATES (ANGSTROEM)
---------------------------------
  C     -0.778940    0.171970    1.804960
  C     -0.602490   -0.630710    0.492240
  H      0.313890   -1.240350    0.603500
  H     -0.363830    0.113320   -0.301170
  F     -1.712060   -1.376840    0.202530
  H     -1.658640    0.777330    1.737360
  H      0.074660    0.798960    1.957120
  H     -0.874740   -0.505840    2.627340

----------------------------
CARTESIAN COORDINATES (A.U.)
----------------------------
  NO LB      ZA    FRAG     MASS         X           Y           Z
   0 C     6.0000    0    12.011   -1.471983    0.324976    3.410880
   1 C     6.0000    0    12.011   -1.138541   -1.191869    0.930199
   2 H     1.0000    0     1.008    0.593166   -2.343922    1.140450
   3 H     1.0000    0     1.008   -0.687539    0.214144   -0.569129
   4 F     9.0000    0    18.998   -3.235325   -2.601851    0.382726
   5 H     1.0000    0     1.008   -3.134375    1.468941    3.283135
   6 H     1.0000    0     1.008    0.141087    1.509816    3.698421
   7 H     1.0000    0     1.008   -1.653019   -0.955899    4.964953

--------------------------------
INTERNAL COORDINATES (ANGSTROEM)
--------------------------------
 C      0   0   0     0.000000000000     0.00000000     0.00000000
 C      1   0   0     1.548761951786     0.00000000     0.00000000
 H      2   1   0     1.106251337446   107.14208476     0.00000000
 H      2   1   3     1.113570233349   106.38189140   247.86336931
 F      2   1   3     1.368132831965   111.69904673   124.39446908
 H      1   2   3     1.070001205420   109.47126364   180.00070714
 H      1   2   3     1.070000974626   109.47143415    59.99995464
 H      1   2   3     1.070006028254   109.47119049   300.00076547

---------------------------
INTERNAL COORDINATES (A.U.)
---------------------------
 C      0   0   0     0.000000000000     0.00000000     0.00000000
 C      1   0   0     2.926735935513     0.00000000     0.00000000
 H      2   1   0     2.090512063056   107.14208476     0.00000000
 H      2   1   3     2.104342771916   106.38189140   247.86336931
 F      2   1   3     2.585396367240   111.69904673   124.39446908
 H      1   2   3     2.022009241209   109.47126364   180.00070714
 H      1   2   3     2.022008805071   109.47143415    59.99995464
 H      1   2   3     2.022018355045   109.47119049   300.00076547

---------------------
BASIS SET INFORMATION
---------------------
There are 3 groups of distinct atoms

 Group   1 Type C   : 7s4p1d contracted to 3s2p1d pattern {511/31/1}
 Group   2 Type H   : 4s1p contracted to 2s1p pattern {31/1}
 Group   3 Type F   : 7s4p1d contracted to 3s2p1d pattern {511/31/1}

Atom   0C    basis set group =>   1
Atom   1C    basis set group =>   1
Atom   2H    basis set group =>   2
Atom   3H    basis set group =>   2
Atom   4F    basis set group =>   3
Atom   5H    basis set group =>   2
Atom   6H    basis set group =>   2
Atom   7H    basis set group =>   2
---------------------------------
AUXILIARY/J BASIS SET INFORMATION
---------------------------------
There are 3 groups of distinct atoms

 Group   1 Type C   : 12s5p4d2f1g contracted to 6s4p3d1f1g pattern {711111/2111/211/2/1}
 Group   2 Type H   : 5s2p1d contracted to 3s1p1d pattern {311/2/1}
 Group   3 Type F   : 12s5p4d2f1g contracted to 6s4p3d1f1g pattern {711111/2111/211/2/1}

Atom   0C    basis set group =>   1
Atom   1C    basis set group =>   1
Atom   2H    basis set group =>   2
Atom   3H    basis set group =>   2
Atom   4F    basis set group =>   3
Atom   5H    basis set group =>   2
Atom   6H    basis set group =>   2
Atom   7H    basis set group =>   2


           ************************************************************
           *        Program running with 4 parallel MPI-processes     *
           *              working on a common directory               *
           ************************************************************
------------------------------------------------------------------------------
                           ORCA GTO INTEGRAL CALCULATION
                           -- RI-GTO INTEGRALS CHOSEN --
------------------------------------------------------------------------------
------------------------------------------------------------------------------
                   ___                                                        
                  /   \      - P O W E R E D   B Y -                         
                 /     \                                                     
                 |  |  |   _    _      __       _____    __    __             
                 |  |  |  | |  | |    /  \     |  _  \  |  |  /  |          
                  \  \/   | |  | |   /    \    | | | |  |  | /  /          
                 / \  \   | |__| |  /  /\  \   | |_| |  |  |/  /          
                |  |  |   |  __  | /  /__\  \  |    /   |      \           
                |  |  |   | |  | | |   __   |  |    \   |  |\   \          
                \     /   | |  | | |  |  |  |  | |\  \  |  | \   \       
                 \___/    |_|  |_| |__|  |__|  |_| \__\ |__|  \__/        
                                                                              
                      - O R C A' S   B I G   F R I E N D -                    
                                      &                                       
                       - I N T E G R A L  F E E D E R -                       
                                                                              
 v1 FN, 2020, v2 2021                                                         
------------------------------------------------------------------------------


Reading SHARK input file SVP_CAMB3LYP_C1_wt_dlpno_neg.SHARKINP.tmp ... ok
----------------------
SHARK INTEGRAL PACKAGE
----------------------

Number of atoms                             ...      8
Number of basis functions                   ...     67
Number of shells                            ...     33
Maximum angular momentum                    ...      2
Integral batch strategy                     ... SHARK/LIBINT Hybrid
RI-J (if used) integral strategy            ... SPLIT-RIJ (Revised 2003 algorithm where possible)
Printlevel                                  ...      1
Contraction scheme used                     ... SEGMENTED contraction
Coulomb Range Separation                    ... NOT USED
Exchange Range Separation                   ... Long Range
   Mu parameter                             ...  0.330000
   Scaling (regular/separated)              ...  0.190000  0.460000
Finite Nucleus Model                        ... NOT USED
Auxiliary Coulomb fitting basis             ... AVAILABLE
   # of basis functions in Aux-J            ...    202
   # of shells in Aux-J                     ...     70
   Maximum angular momentum in Aux-J        ...      4
Auxiliary J/K fitting basis                 ... NOT available
Auxiliary Correlation fitting basis         ... NOT available
Auxiliary 'external' fitting basis          ... NOT available
Integral threshold                          ...     2.500000e-11
Primitive cut-off                           ...     2.500000e-12
Primitive pair pre-selection threshold      ...     2.500000e-12

Calculating pre-screening integrals         ... done (  0.0 sec) Dimension = 33
Organizing shell pair data                  ... done (  0.0 sec)
Shell pair information
Total number of shell pairs                 ...       561
Shell pairs after pre-screening             ...       559
Total number of primitive shell pairs       ...      1945
Primitive shell pairs kept                  ...      1671
          la=0 lb=0:    189 shell pairs
          la=1 lb=0:    208 shell pairs
          la=1 lb=1:     66 shell pairs
          la=2 lb=0:     57 shell pairs
          la=2 lb=1:     33 shell pairs
          la=2 lb=2:      6 shell pairs

Calculating one electron integrals          ... done (  0.0 sec)
Calculating RI/J V-Matrix + Cholesky decomp.... done (  0.0 sec)
Calculating Nuclear repulsion               ... done (  0.0 sec) ENN=     79.022121046631 Eh

SHARK setup successfully completed in   0.1 seconds

Maximum memory used throughout the entire GTOINT-calculation: 8.7 MB


           ************************************************************
           *        Program running with 4 parallel MPI-processes     *
           *              working on a common directory               *
           ************************************************************
-------------------------------------------------------------------------------
                                 ORCA SCF
-------------------------------------------------------------------------------

------------
SCF SETTINGS
------------
Hamiltonian:
 Density Functional     Method          .... DFT(GTOs)
 Exchange Functional    Exchange        .... WB88
 Correlation Functional Correlation     .... LYP
 LDA part of GGA corr.  LDAOpt          .... VWN-5
 Gradients option       PostSCFGGA      .... off
 Hybrid DFT is turned on
   Fraction HF Exchange ScalHFX         ....  0.190000
   Scaling of DF-GGA-X  ScalDFX         ....  0.350000
   Scaling of DF-GGA-C  ScalDFC         ....  0.810000
   Scaling of DF-LDA-C  ScalLDAC        ....  1.000000
   Perturbative correction              ....  0.000000
   Density functional embedding theory  .... OFF
 Long-range corrected/Screened/Range-Separated Hybrid DFT is turned on
   Amount of maximum screened exact exchange              ....  0.460000
   Range separation parameter mu (erf(mu*r12)/r12)        ....  0.330000
 RI-approximation to the Coulomb term is turned on
   Number of AuxJ basis functions       .... 202
   RIJ-COSX (HFX calculated with COS-X)).... on


General Settings:
 Integral files         IntName         .... SVP_CAMB3LYP_C1_wt_dlpno_neg
 Hartree-Fock type      HFTyp           .... RHF
 Total Charge           Charge          ....    0
 Multiplicity           Mult            ....    1
 Number of Electrons    NEL             ....   26
 Basis Dimension        Dim             ....   67
 Nuclear Repulsion      ENuc            ....     79.0221210466 Eh

Convergence Acceleration:
 DIIS                   CNVDIIS         .... on
   Start iteration      DIISMaxIt       ....    12
   Startup error        DIISStart       ....  0.200000
   # of expansion vecs  DIISMaxEq       ....     5
   Bias factor          DIISBfac        ....   1.050
   Max. coefficient     DIISMaxC        ....  10.000
 Trust-Rad. Augm. Hess. CNVTRAH         .... auto
   Auto Start mean grad. ratio tolernc. ....  1.125000
   Auto Start start iteration           ....    20
   Auto Start num. interpolation iter.  ....    10
   Max. Number of Micro iterations      ....    16
   Max. Number of Macro iterations      .... Maxiter - #DIIS iter
   Number of Davidson start vectors     ....     2
   Converg. threshold I  (grad. norm)   ....   1.000e-05
   Converg. threshold II (energy diff.) ....   1.000e-08
   Grad. Scal. Fac. for Micro threshold ....   0.100
   Minimum threshold for Micro iter.    ....   0.010
   NR start threshold (gradient norm)   ....   0.001
   Initial trust radius                 ....   0.400
   Minimum AH scaling param. (alpha)    ....   1.000
   Maximum AH scaling param. (alpha)    .... 1000.000
   Orbital update algorithm             .... Taylor
   White noise on init. David. guess    .... on
   Maximum white noise                  ....   0.010
   Quad. conv. algorithm                .... NR
 SOSCF                  CNVSOSCF        .... on
   Start iteration      SOSCFMaxIt      ....   150
   Startup grad/error   SOSCFStart      ....  0.003300
 Level Shifting         CNVShift        .... on
   Level shift para.    LevelShift      ....    0.2500
   Turn off err/grad.   ShiftErr        ....    0.0010
 Zerner damping         CNVZerner       .... off
 Static damping         CNVDamp         .... on
   Fraction old density DampFac         ....    0.7000
   Max. Damping (<1)    DampMax         ....    0.9800
   Min. Damping (>=0)   DampMin         ....    0.0000
   Turn off err/grad.   DampErr         ....    0.1000
 Fernandez-Rico         CNVRico         .... off

SCF Procedure:
 Maximum # iterations   MaxIter         ....   150
 SCF integral mode      SCFMode         .... Direct
   Integral package                     .... SHARK and LIBINT hybrid scheme
 Reset frequency        DirectResetFreq ....    20
 Integral Threshold     Thresh          ....  2.500e-11 Eh
 Primitive CutOff       TCut            ....  2.500e-12 Eh

Convergence Tolerance:
 Convergence Check Mode ConvCheckMode   .... Total+1el-Energy
 Convergence forced     ConvForced      .... 0
 Energy Change          TolE            ....  1.000e-08 Eh
 1-El. energy change                    ....  1.000e-05 Eh
 Orbital Gradient       TolG            ....  1.000e-05
 Orbital Rotation angle TolX            ....  1.000e-05
 DIIS Error             TolErr          ....  5.000e-07


Diagonalization of the overlap matrix:
Smallest eigenvalue                        ... 4.315e-03
Time for diagonalization                   ...    0.001 sec
Threshold for overlap eigenvalues          ... 1.000e-08
Number of eigenvalues below threshold      ... 0
Time for construction of square roots      ...    0.002 sec
Total time needed                          ...    0.003 sec

Time for model grid setup =    0.032 sec

------------------------------
INITIAL GUESS: MODEL POTENTIAL
------------------------------
Loading Hartree-Fock densities                     ... done
Calculating cut-offs                               ... done
Initializing the effective Hamiltonian             ... done
Setting up the integral package (SHARK)            ... done
Starting the Coulomb interaction                   ... done (   0.0 sec)
Reading the grid                                   ... done
Mapping shells                                     ... done
Starting the XC term evaluation                    ... done (   0.0 sec)
  promolecular density results
     # of electrons  =     25.997371235
     EX              =    -21.680821941
     EC              =     -0.847990351
     EX+EC           =    -22.528812292
Transforming the Hamiltonian                       ... done (   0.0 sec)
Diagonalizing the Hamiltonian                      ... done (   0.0 sec)
Back transforming the eigenvectors                 ... done (   0.0 sec)
Now organizing SCF variables                       ... done
                      ------------------
                      INITIAL GUESS DONE (   0.1 sec)
                      ------------------
-------------------
DFT GRID GENERATION
-------------------

General Integration Accuracy     IntAcc      ... 4.388
Radial Grid Type                 RadialGrid  ... OptM3 with GC (2021)
Angular Grid (max. ang.)         AngularGrid ... 4 (Lebedev-302)
Angular grid pruning method      GridPruning ... 4 (adaptive)
Weight generation scheme         WeightScheme... Becke
Basis function cutoff            BFCut       ... 1.0000e-11
Integration weight cutoff        WCut        ... 1.0000e-14
Angular grids for H and He will be reduced by one unit
Partially contracted basis set               ... off
Rotationally invariant grid construction     ... off

Total number of grid points                  ...    34550
Total number of batches                      ...      545
Average number of points per batch           ...       63
Average number of grid points per atom       ...     4319
Time for grid setup =    0.189 sec

--------------------
COSX GRID GENERATION
--------------------

GRIDX 1
-------
General Integration Accuracy     IntAcc      ... 3.816
Radial Grid Type                 RadialGrid  ... OptM3 with GC (2021)
Angular Grid (max. ang.)         AngularGrid ... 1 (Lebedev-50)
Angular grid pruning method      GridPruning ... 4 (adaptive)
Weight generation scheme         WeightScheme... Becke
Basis function cutoff            BFCut       ... 1.0000e-11
Integration weight cutoff        WCut        ... 1.0000e-14
Angular grids for H and He will be reduced by one unit
Partially contracted basis set               ... on
Rotationally invariant grid construction     ... off

Total number of grid points                  ...     4455
Total number of batches                      ...       74
Average number of points per batch           ...       60
Average number of grid points per atom       ...      557
UseSFitting                                  ... on

GRIDX 2
-------
General Integration Accuracy     IntAcc      ... 4.020
Radial Grid Type                 RadialGrid  ... OptM3 with GC (2021)
Angular Grid (max. ang.)         AngularGrid ... 2 (Lebedev-110)
Angular grid pruning method      GridPruning ... 4 (adaptive)
Weight generation scheme         WeightScheme... Becke
Basis function cutoff            BFCut       ... 1.0000e-11
Integration weight cutoff        WCut        ... 1.0000e-14
Angular grids for H and He will be reduced by one unit
Partially contracted basis set               ... on
Rotationally invariant grid construction     ... off

Total number of grid points                  ...     9503
Total number of batches                      ...      153
Average number of points per batch           ...       62
Average number of grid points per atom       ...     1188
UseSFitting                                  ... on

GRIDX 3
-------
General Integration Accuracy     IntAcc      ... 4.338
Radial Grid Type                 RadialGrid  ... OptM3 with GC (2021)
Angular Grid (max. ang.)         AngularGrid ... 3 (Lebedev-194)
Angular grid pruning method      GridPruning ... 4 (adaptive)
Weight generation scheme         WeightScheme... Becke
Basis function cutoff            BFCut       ... 1.0000e-11
Integration weight cutoff        WCut        ... 1.0000e-14
Angular grids for H and He will be reduced by one unit
Partially contracted basis set               ... on
Rotationally invariant grid construction     ... off

Total number of grid points                  ...    20889
Total number of batches                      ...      330
Average number of points per batch           ...       63
Average number of grid points per atom       ...     2611
UseSFitting                                  ... on

Time for X-Grid setup             =    0.163 sec

--------------
SCF ITERATIONS
--------------
ITER       Energy         Delta-E        Max-DP      RMS-DP      [F,P]     Damp
               ***  Starting incremental Fock matrix formation  ***
  0   -178.7751601668   0.000000000000 0.07146499  0.00243954  0.1658378 0.7000
  1   -178.8035615988  -0.028401432001 0.04629530  0.00179836  0.0951618 0.7000
                               ***Turning on DIIS***
  2   -178.8177697892  -0.014208190392 0.07426221  0.00351144  0.0445973 0.0000
  3   -178.8398218710  -0.022052081780 0.03781853  0.00122459  0.0428824 0.0000
  4   -178.8437538056  -0.003931934580 0.00327843  0.00016207  0.0052174 0.0000
                      *** Initiating the SOSCF procedure ***
                           *** Shutting down DIIS ***
                      *** Re-Reading the Fockian *** 
                      *** Removing any level shift *** 
ITER      Energy       Delta-E        Grad      Rot      Max-DP    RMS-DP
  5   -178.84382519  -0.0000713879  0.000451  0.000451  0.001181  0.000064
               *** Restarting incremental Fock matrix formation ***
  6   -178.84386746  -0.0000422651  0.000229  0.000258  0.000702  0.000039
  7   -178.84386756  -0.0000000981  0.000247  0.000107  0.000397  0.000019
  8   -178.84386842  -0.0000008601  0.000015  0.000026  0.000073  0.000003
  9   -178.84386842  -0.0000000017  0.000011  0.000010  0.000030  0.000001
                  ***Gradient check signals convergence***
              ***Rediagonalizing the Fockian in SOSCF/NRSCF***

               *****************************************************
               *                     SUCCESS                       *
               *           SCF CONVERGED AFTER  10 CYCLES          *
               *****************************************************

Old exchange energy                            =     -6.267139361 Eh
New exchange energy                            =     -6.267163863 Eh
Exchange energy change after final integration =     -0.000024502 Eh
Total energy after final integration           =   -178.843892923 Eh
Final COS-X integration done in                =     0.542 sec

----------------
TOTAL SCF ENERGY
----------------

Total Energy       :         -178.84389292 Eh           -4866.58974 eV

Components:
Nuclear Repulsion  :           79.02212105 Eh            2150.30123 eV
Electronic Energy  :         -257.86601397 Eh           -7016.89097 eV
One Electron Energy:         -401.28008166 Eh          -10919.38615 eV
Two Electron Energy:          143.41406769 Eh            3902.49518 eV
Max COSX asymmetry :            0.00000286 Eh               0.00008 eV

Virial components:
Potential Energy   :         -356.18992387 Eh           -9692.42058 eV
Kinetic Energy     :          177.34603095 Eh            4825.83084 eV
Virial Ratio       :            2.00844599


DFT components:
N(Alpha)           :       13.000002462328 electrons
N(Beta)            :       13.000002462328 electrons
N(Total)           :       26.000004924655 electrons
E(XC)              :      -16.835421136487 Eh       
DFET-embed. en.    :        0.000000000000 Eh       

---------------
SCF CONVERGENCE
---------------

  Last Energy change         ...   -2.9880e-09  Tolerance :   1.0000e-08
  Last MAX-Density change    ...    1.3323e-15  Tolerance :   1.0000e-07
  Last RMS-Density change    ...    3.9447e-17  Tolerance :   5.0000e-09
  Last Orbital Gradient      ...    5.7418e-07  Tolerance :   1.0000e-05
  Last Orbital Rotation      ...    1.0556e-06  Tolerance :   1.0000e-05

             **** THE GBW FILE WAS UPDATED (SVP_CAMB3LYP_C1_wt_dlpno_neg.gbw) ****
             **** DENSITY SVP_CAMB3LYP_C1_wt_dlpno_neg.scfp WAS UPDATED ****
             **** ENERGY FILE WAS UPDATED (SVP_CAMB3LYP_C1_wt_dlpno_neg.en.tmp) ****
             **** THE GBW FILE WAS UPDATED (SVP_CAMB3LYP_C1_wt_dlpno_neg.gbw) ****
             **** DENSITY SVP_CAMB3LYP_C1_wt_dlpno_neg.scfp WAS UPDATED ****
----------------
ORBITAL ENERGIES
----------------

  NO   OCC          E(Eh)            E(eV) 
   0   2.0000     -24.737921      -673.1531 
   1   2.0000     -10.334028      -281.2032 
   2   2.0000     -10.252801      -278.9929 
   3   2.0000      -1.249247       -33.9937 
   4   2.0000      -0.833643       -22.6846 
   5   2.0000      -0.698293       -19.0015 
   6   2.0000      -0.571219       -15.5437 
   7   2.0000      -0.562546       -15.3076 
   8   2.0000      -0.520888       -14.1741 
   9   2.0000      -0.467604       -12.7241 
  10   2.0000      -0.464689       -12.6448 
  11   2.0000      -0.393959       -10.7202 
  12   2.0000      -0.391574       -10.6553 
  13   0.0000       0.105563         2.8725 
  14   0.0000       0.152038         4.1372 
  15   0.0000       0.160703         4.3730 
  16   0.0000       0.180458         4.9105 
  17   0.0000       0.197276         5.3682 
  18   0.0000       0.201919         5.4945 
  19   0.0000       0.271534         7.3888 
  20   0.0000       0.476810        12.9746 
  21   0.0000       0.493354        13.4248 
  22   0.0000       0.527122        14.3437 
  23   0.0000       0.550396        14.9770 
  24   0.0000       0.595579        16.2065 
  25   0.0000       0.646094        17.5811 
  26   0.0000       0.688543        18.7362 
  27   0.0000       0.702980        19.1291 
  28   0.0000       0.724631        19.7182 
  29   0.0000       0.745918        20.2975 
  30   0.0000       0.758244        20.6329 
  31   0.0000       0.782682        21.2979 
  32   0.0000       0.955528        26.0012 
  33   0.0000       1.154502        31.4156 
  34   0.0000       1.159591        31.5541 
  35   0.0000       1.231610        33.5138 
  36   0.0000       1.377195        37.4754 
  37   0.0000       1.418099        38.5884 
  38   0.0000       1.438098        39.1326 
  39   0.0000       1.592447        43.3327 
  40   0.0000       1.611325        43.8464 
  41   0.0000       1.749307        47.6011 
  42   0.0000       1.802851        49.0581 
  43   0.0000       1.811609        49.2964 
  44   0.0000       1.836411        49.9713 
  45   0.0000       1.852981        50.4222 
  46   0.0000       1.892604        51.5004 
  47   0.0000       1.931386        52.5557 
  48   0.0000       1.964570        53.4587 
  49   0.0000       1.988138        54.1000 
  50   0.0000       2.119890        57.6851 
  51   0.0000       2.251831        61.2754 
  52   0.0000       2.268729        61.7353 
  53   0.0000       2.413555        65.6762 
  54   0.0000       2.474697        67.3399 
  55   0.0000       2.600069        70.7515 
  56   0.0000       2.630877        71.5898 
  57   0.0000       2.763584        75.2010 
  58   0.0000       2.908993        79.1577 
  59   0.0000       2.919171        79.4347 
  60   0.0000       3.029374        82.4335 
  61   0.0000       3.064451        83.3880 
  62   0.0000       3.203921        87.1831 
  63   0.0000       3.212577        87.4187 
  64   0.0000       3.464025        94.2609 
  65   0.0000       3.474734        94.5523 
  66   0.0000       3.861306       105.0715 

                    ********************************
                    * MULLIKEN POPULATION ANALYSIS *
                    ********************************

-----------------------
MULLIKEN ATOMIC CHARGES
-----------------------
   0 C :   -0.038409
   1 C :    0.225887
   2 H :    0.006771
   3 H :    0.006588
   4 F :   -0.260340
   5 H :    0.024645
   6 H :    0.011563
   7 H :    0.023294
Sum of atomic charges:   -0.0000000

--------------------------------
MULLIKEN REDUCED ORBITAL CHARGES
--------------------------------
  0 C s       :     2.979508  s :     2.979508
      pz      :     1.000920  p :     3.029896
      px      :     1.018351
      py      :     1.010624
      dz2     :     0.007843  d :     0.029005
      dxz     :     0.001349
      dyz     :     0.008553
      dx2y2   :     0.002283
      dxy     :     0.008977
  1 C s       :     3.023492  s :     3.023492
      pz      :     1.004877  p :     2.678298
      px      :     0.768377
      py      :     0.905044
      dz2     :     0.011882  d :     0.072322
      dxz     :     0.010561
      dyz     :     0.014470
      dx2y2   :     0.013556
      dxy     :     0.021854
  2 H s       :     0.971888  s :     0.971888
      pz      :     0.004810  p :     0.021341
      px      :     0.010204
      py      :     0.006326
  3 H s       :     0.972284  s :     0.972284
      pz      :     0.008915  p :     0.021128
      px      :     0.003544
      py      :     0.008669
  4 F s       :     3.907507  s :     3.907507
      pz      :     1.914461  p :     5.345459
      px      :     1.628896
      py      :     1.802102
      dz2     :     0.000983  d :     0.007374
      dxz     :     0.001276
      dyz     :     0.000671
      dx2y2   :     0.001735
      dxy     :     0.002709
  5 H s       :     0.951302  s :     0.951302
      pz      :     0.004370  p :     0.024053
      px      :     0.011717
      py      :     0.007966
  6 H s       :     0.964173  s :     0.964173
      pz      :     0.004749  p :     0.024263
      px      :     0.011157
      py      :     0.008357
  7 H s       :     0.952588  s :     0.952588
      pz      :     0.010258  p :     0.024118
      px      :     0.005137
      py      :     0.008723


                     *******************************
                     * LOEWDIN POPULATION ANALYSIS *
                     *******************************

----------------------
LOEWDIN ATOMIC CHARGES
----------------------
   0 C :   -0.072378
   1 C :    0.109205
   2 H :    0.009717
   3 H :    0.010192
   4 F :   -0.134233
   5 H :    0.025423
   6 H :    0.027919
   7 H :    0.024155

-------------------------------
LOEWDIN REDUCED ORBITAL CHARGES
-------------------------------
  0 C s       :     2.827782  s :     2.827782
      pz      :     1.040245  p :     3.172946
      px      :     1.072720
      py      :     1.059982
      dz2     :     0.018932  d :     0.071650
      dxz     :     0.002863
      dyz     :     0.022403
      dx2y2   :     0.005628
      dxy     :     0.021824
  1 C s       :     2.853147  s :     2.853147
      pz      :     1.047927  p :     2.875700
      px      :     0.854995
      py      :     0.972777
      dz2     :     0.026620  d :     0.161948
      dxz     :     0.021330
      dyz     :     0.035625
      dx2y2   :     0.030136
      dxy     :     0.048238
  2 H s       :     0.927177  s :     0.927177
      pz      :     0.013209  p :     0.063105
      px      :     0.031928
      py      :     0.017969
  3 H s       :     0.927867  s :     0.927867
      pz      :     0.026372  p :     0.061941
      px      :     0.009988
      py      :     0.025581
  4 F s       :     3.737378  s :     3.737378
      pz      :     1.911067  p :     5.385580
      px      :     1.661014
      py      :     1.813499
      dz2     :     0.001527  d :     0.011275
      dxz     :     0.001900
      dyz     :     0.001001
      dx2y2   :     0.002501
      dxy     :     0.004346
  5 H s       :     0.905174  s :     0.905174
      pz      :     0.014392  p :     0.069403
      px      :     0.032601
      py      :     0.022409
  6 H s       :     0.902941  s :     0.902941
      pz      :     0.014892  p :     0.069140
      px      :     0.030602
      py      :     0.023646
  7 H s       :     0.906527  s :     0.906527
      pz      :     0.030869  p :     0.069318
      px      :     0.013765
      py      :     0.024685


                      *****************************
                      * MAYER POPULATION ANALYSIS *
                      *****************************

  NA   - Mulliken gross atomic population
  ZA   - Total nuclear charge
  QA   - Mulliken gross atomic charge
  VA   - Mayer's total valence
  BVA  - Mayer's bonded valence
  FA   - Mayer's free valence

  ATOM       NA         ZA         QA         VA         BVA        FA
  0 C      6.0384     6.0000    -0.0384     4.0046     4.0046    -0.0000
  1 C      5.7741     6.0000     0.2259     4.0585     4.0585    -0.0000
  2 H      0.9932     1.0000     0.0068     0.9714     0.9714     0.0000
  3 H      0.9934     1.0000     0.0066     0.9719     0.9719    -0.0000
  4 F      9.2603     9.0000    -0.2603     1.0673     1.0673    -0.0000
  5 H      0.9754     1.0000     0.0246     0.9947     0.9947    -0.0000
  6 H      0.9884     1.0000     0.0116     0.9914     0.9914    -0.0000
  7 H      0.9767     1.0000     0.0233     0.9918     0.9918    -0.0000

  Mayer bond orders larger than 0.100000
B(  0-C ,  1-C ) :   1.0933 B(  0-C ,  5-H ) :   0.9723 B(  0-C ,  6-H ) :   0.9626 
B(  0-C ,  7-H ) :   0.9736 B(  1-C ,  2-H ) :   0.9592 B(  1-C ,  3-H ) :   0.9599 
B(  1-C ,  4-F ) :   1.0099 

-------
TIMINGS
-------

Total SCF time: 0 days 0 hours 0 min 4 sec 

Total time                  ....       4.593 sec
Sum of individual times     ....       4.495 sec  ( 97.9%)

Fock matrix formation       ....       4.040 sec  ( 88.0%)
  Split-RI-J                ....       0.272 sec  (  6.7% of F)
  Chain of spheres X        ....       2.939 sec  ( 72.7% of F)
  XC integration            ....       0.815 sec  ( 20.2% of F)
    Basis function eval.    ....       0.237 sec  ( 29.1% of XC)
    Density eval.           ....       0.103 sec  ( 12.7% of XC)
    XC-Functional eval.     ....       0.304 sec  ( 37.3% of XC)
    XC-Potential eval.      ....       0.096 sec  ( 11.7% of XC)
Diagonalization             ....       0.011 sec  (  0.2%)
Density matrix formation    ....       0.001 sec  (  0.0%)
Population analysis         ....       0.003 sec  (  0.1%)
Initial guess               ....       0.038 sec  (  0.8%)
Orbital Transformation      ....       0.000 sec  (  0.0%)
Orbital Orthonormalization  ....       0.000 sec  (  0.0%)
DIIS solution               ....       0.010 sec  (  0.2%)
SOSCF solution              ....       0.008 sec  (  0.2%)
Grid generation             ....       0.384 sec  (  8.4%)

Maximum memory used throughout the entire SCF-calculation: 45.1 MB

-------------------------   --------------------
FINAL SINGLE POINT ENERGY      -178.843892923473
-------------------------   --------------------


                            ***************************************
                            *     ORCA property calculations      *
                            ***************************************

                                    ---------------------
                                    Active property flags
                                    ---------------------
   (+) Dipole Moment


------------------------------------------------------------------------------
                       ORCA ELECTRIC PROPERTIES CALCULATION
------------------------------------------------------------------------------

Dipole Moment Calculation                       ... on
Quadrupole Moment Calculation                   ... off
Polarizability Calculation                      ... off
GBWName                                         ... SVP_CAMB3LYP_C1_wt_dlpno_neg.gbw
Electron density file                           ... SVP_CAMB3LYP_C1_wt_dlpno_neg.scfp
The origin for moment calculation is the CENTER OF MASS  = (-2.030760, -1.247399  1.498745)

-------------
DIPOLE MOMENT
-------------
                                X             Y             Z
Electronic contribution:     -2.75820      -3.31853      -2.84456
Nuclear contribution   :      3.27800       3.70743       3.04146
                        -----------------------------------------
Total Dipole Moment    :      0.51980       0.38890       0.19689
                        -----------------------------------------
Magnitude (a.u.)       :      0.67838
Magnitude (Debye)      :      1.72431



--------------------
Rotational spectrum 
--------------------
 
Rotational constants in cm-1:     1.234437     0.305084     0.268865 
Rotational constants in MHz : 37007.496448  9146.194083  8060.380630 

 Dipole components along the rotational axes: 
x,y,z [a.u.] :     0.579877    -0.352052     0.002256 
x,y,z [Debye]:     1.473931    -0.894845     0.005735 

 

Timings for individual modules:

Sum of individual times         ...        8.158 sec (=   0.136 min)
GTO integral calculation        ...        1.788 sec (=   0.030 min)  21.9 %
SCF iterations                  ...        6.370 sec (=   0.106 min)  78.1 %
                             ****ORCA TERMINATED NORMALLY****
TOTAL RUN TIME: 0 days 0 hours 0 minutes 8 seconds 660 msec
