
                                        *****************
                                        * O   R   C   A *
                                        *****************

                                            #,                                       
                                            ###                                      
                                            ####                                     
                                            #####                                    
                                            ######                                   
                                           ########,                                 
                                     ,,################,,,,,                         
                               ,,#################################,,                 
                          ,,##########################################,,             
                       ,#########################################, ''#####,          
                    ,#############################################,,   '####,        
                  ,##################################################,,,,####,       
                ,###########''''           ''''###############################       
              ,#####''   ,,,,##########,,,,          '''####'''          '####       
            ,##' ,,,,###########################,,,                        '##       
           ' ,,###''''                  '''############,,,                           
         ,,##''                                '''############,,,,        ,,,,,,###''
      ,#''                                            '''#######################'''  
     '                                                          ''''####''''         
             ,#######,   #######,   ,#######,      ##                                
            ,#'     '#,  ##    ##  ,#'     '#,    #''#        ######   ,####,        
            ##       ##  ##   ,#'  ##            #'  '#       #        #'  '#        
            ##       ##  #######   ##           ,######,      #####,   #    #        
            '#,     ,#'  ##    ##  '#,     ,#' ,#      #,         ##   #,  ,#        
             '#######'   ##     ##  '#######'  #'      '#     #####' # '####'        



                  #######################################################
                  #                        -***-                        #
                  #          Department of theory and spectroscopy      #
                  #    Directorship and core code : Frank Neese         #
                  #        Max Planck Institute fuer Kohlenforschung    #
                  #                Kaiser Wilhelm Platz 1               #
                  #                 D-45470 Muelheim/Ruhr               #
                  #                      Germany                        #
                  #                                                     #
                  #                  All rights reserved                #
                  #                        -***-                        #
                  #######################################################


                         Program Version 5.0.0 -  RELEASE  -
                                (SVN: $Rev: 19529$)
                ($Date: 2021-06-28 11:36:33 +0200 (Mo, 28 Jun 2021) $)


 With contributions from (in alphabetic order):
   Daniel Aravena         : Magnetic Suceptibility
   Michael Atanasov       : Ab Initio Ligand Field Theory (pilot matlab implementation)
   Alexander A. Auer      : GIAO ZORA, VPT2 properties, NMR spectrum
   Ute Becker             : Parallelization
   Giovanni Bistoni       : ED, misc. LED, open-shell LED, HFLD
   Martin Brehm           : Molecular dynamics
   Dmytro Bykov           : SCF Hessian
   Vijay G. Chilkuri      : MRCI spin determinant printing, contributions to CSF-ICE
   Dipayan Datta          : RHF DLPNO-CCSD density
   Achintya Kumar Dutta   : EOM-CC, STEOM-CC
   Dmitry Ganyushin       : Spin-Orbit,Spin-Spin,Magnetic field MRCI
   Miquel Garcia          : C-PCM Hessian, Gaussian charge scheme
   Yang Guo               : DLPNO-NEVPT2, F12-NEVPT2, CIM, IAO-localization
   Andreas Hansen         : Spin unrestricted coupled pair/coupled cluster methods
   Benjamin Helmich-Paris : MC-RPA, TRAH-SCF, COSX integrals
   Lee Huntington         : MR-EOM, pCC
   Robert Izsak           : Overlap fitted RIJCOSX, COSX-SCS-MP3, EOM
   Marcus Kettner         : VPT2
   Christian Kollmar      : KDIIS, OOCD, Brueckner-CCSD(T), CCSD density, CASPT2, CASPT2-K
   Simone Kossmann        : Meta GGA functionals, TD-DFT gradient, OOMP2, MP2 Hessian
   Martin Krupicka        : Initial AUTO-CI
   Lucas Lang             : DCDCAS
   Marvin Lechner         : AUTO-CI (C++ implementation), FIC-MRCC
   Dagmar Lenk            : GEPOL surface, SMD
   Dimitrios Liakos       : Extrapolation schemes; Compound Job, initial MDCI parallelization
   Dimitrios Manganas     : Further ROCIS development; embedding schemes
   Dimitrios Pantazis     : SARC Basis sets
   Anastasios Papadopoulos: AUTO-CI, single reference methods and gradients
   Taras Petrenko         : DFT Hessian,TD-DFT gradient, ASA, ECA, R-Raman, ABS, FL, XAS/XES, NRVS
   Peter Pinski           : DLPNO-MP2, DLPNO-MP2 Gradient
   Christoph Reimann      : Effective Core Potentials
   Marius Retegan         : Local ZFS, SOC
   Christoph Riplinger    : Optimizer, TS searches, QM/MM, DLPNO-CCSD(T), (RO)-DLPNO pert. Triples
   Tobias Risthaus        : Range-separated hybrids, TD-DFT gradient, RPA, STAB
   Michael Roemelt        : Original ROCIS implementation
   Masaaki Saitow         : Open-shell DLPNO-CCSD energy and density
   Barbara Sandhoefer     : DKH picture change effects
   Avijit Sen             : IP-ROCIS
   Kantharuban Sivalingam : CASSCF convergence, NEVPT2, FIC-MRCI
   Bernardo de Souza      : ESD, SOC TD-DFT
   Georgi Stoychev        : AutoAux, RI-MP2 NMR
   Willem Van den Heuvel  : Paramagnetic NMR
   Boris Wezisla          : Elementary symmetry handling
   Frank Wennmohs         : Technical directorship


 We gratefully acknowledge several colleagues who have allowed us to
 interface, adapt or use parts of their codes:
   Stefan Grimme, W. Hujo, H. Kruse, P. Pracht,  : VdW corrections, initial TS optimization,
                  C. Bannwarth, S. Ehlert          DFT functionals, gCP, sTDA/sTD-DF
   Ed Valeev, F. Pavosevic, A. Kumar             : LibInt (2-el integral package), F12 methods
   Garnet Chan, S. Sharma, J. Yang, R. Olivares  : DMRG
   Ulf Ekstrom                                   : XCFun DFT Library
   Mihaly Kallay                                 : mrcc  (arbitrary order and MRCC methods)
   Jiri Pittner, Ondrej Demel                    : Mk-CCSD
   Frank Weinhold                                : gennbo (NPA and NBO analysis)
   Christopher J. Cramer and Donald G. Truhlar   : smd solvation model
   Lars Goerigk                                  : TD-DFT with DH, B97 family of functionals
   V. Asgeirsson, H. Jonsson                     : NEB implementation
   FAccTs GmbH                                   : IRC, NEB, NEB-TS, DLPNO-Multilevel, CI-OPT
                                                   MM, QMMM, 2- and 3-layer-ONIOM, Crystal-QMMM,
                                                   LR-CPCM, SF, NACMEs, symmetry and pop. for TD-DFT,
                                                   nearIR, NL-DFT gradient (VV10), updates on ESD,
                                                   ML-optimized integration grids
   S Lehtola, MJT Oliveira, MAL Marques          : LibXC Library
   Liviu Ungur et al                             : ANISO software


 Your calculation uses the libint2 library for the computation of 2-el integrals
 For citations please refer to: http://libint.valeyev.net

 Your ORCA version has been built with support for libXC version: 5.1.0
 For citations please refer to: https://tddft.org/programs/libxc/

 This ORCA versions uses:
   CBLAS   interface :  Fast vector & matrix operations
   LAPACKE interface :  Fast linear algebra routines
   SCALAPACK package :  Parallel linear algebra routines
   Shared memory     :  Shared parallel matrices
   BLAS/LAPACK       :  OpenBLAS 0.3.15  USE64BITINT DYNAMIC_ARCH NO_AFFINITY Haswell SINGLE_THREADED
        Core in use  :  Haswell
   Copyright (c) 2011-2014, The OpenBLAS Project


================================================================================

----- Orbital basis set information -----
Your calculation utilizes the basis: def2-SVPD
   F. Weigend and R. Ahlrichs, Phys. Chem. Chem. Phys. 7, 3297 (2005).
   D. Rappoport and F. Furche, J. Chem. Phys. 133 134105 (2010).

----- AuxJ basis set information -----
Your calculation utilizes the auxiliary basis: def2/J
   F. Weigend, Phys. Chem. Chem. Phys. 8, 1057 (2006).

================================================================================
                                        WARNINGS
                       Please study these warnings very carefully!
================================================================================


INFO   : the flag for use of the SHARK integral package has been found!

================================================================================
                                       INPUT FILE
================================================================================
NAME = 14Feb_SVPD_LC_PBE_A_wt_wb97_typ1_neg.com
|  1> !LC-PBE RIJCOSX def2-SVPD def2/J TightSCF 
|  2> *xyz -1 1 
|  3> C          0.64866        1.00359       -3.64560
|  4> C          0.13297        2.38587       -4.02462
|  5> C         -1.36646        2.47911       -4.31393
|  6> C         -2.35773        2.30686       -3.13675
|  7> H         -1.63680        1.72709       -5.06399
|  8> H         -1.58235        3.44561       -4.76869
|  9> O         -3.44376        2.84652       -3.25274
| 10> O         -1.97092        1.58304       -2.15123
| 11> H          0.41484        3.10285       -3.24517
| 12> H          0.68317        2.68756       -4.91972
| 13> H          0.37534        0.30051       -4.40446
| 14> H          0.21856        0.70606       -2.71212
| 15> H          1.71431        1.03324       -3.55398
| 16> *
| 17> %MaxCore 64000
| 18> 
| 19> %pal nprocs 4
| 20> end  
| 21> 
| 22> %scf
| 23>   MaxIter 150
| 24> end
| 25> 
| 26> 
| 27>                          ****END OF INPUT****
================================================================================

                       ****************************
                       * Single Point Calculation *
                       ****************************

---------------------------------
CARTESIAN COORDINATES (ANGSTROEM)
---------------------------------
  C      0.648660    1.003590   -3.645600
  C      0.132970    2.385870   -4.024620
  C     -1.366460    2.479110   -4.313930
  C     -2.357730    2.306860   -3.136750
  H     -1.636800    1.727090   -5.063990
  H     -1.582350    3.445610   -4.768690
  O     -3.443760    2.846520   -3.252740
  O     -1.970920    1.583040   -2.151230
  H      0.414840    3.102850   -3.245170
  H      0.683170    2.687560   -4.919720
  H      0.375340    0.300510   -4.404460
  H      0.218560    0.706060   -2.712120
  H      1.714310    1.033240   -3.553980

----------------------------
CARTESIAN COORDINATES (A.U.)
----------------------------
  NO LB      ZA    FRAG     MASS         X           Y           Z
   0 C     6.0000    0    12.011    1.225790    1.896510   -6.889186
   1 C     6.0000    0    12.011    0.251277    4.508641   -7.605430
   2 C     6.0000    0    12.011   -2.582235    4.684839   -8.152146
   3 C     6.0000    0    12.011   -4.455464    4.359334   -5.927598
   4 H     1.0000    0     1.008   -3.093104    3.263727   -9.569554
   5 H     1.0000    0     1.008   -2.990208    6.511259   -9.011518
   6 O     8.0000    0    15.999   -6.507763    5.379143   -6.146788
   7 O     8.0000    0    15.999   -3.724499    2.991512   -4.065236
   8 H     1.0000    0     1.008    0.783934    5.863537   -6.132483
   9 H     1.0000    0     1.008    1.291004    5.078752   -9.296923
  10 H     1.0000    0     1.008    0.709290    0.567882   -8.323223
  11 H     1.0000    0     1.008    0.413019    1.334260   -5.125164
  12 H     1.0000    0     1.008    3.239576    1.952541   -6.716049

--------------------------------
INTERNAL COORDINATES (ANGSTROEM)
--------------------------------
 C      0   0   0     0.000000000000     0.00000000     0.00000000
 C      1   0   0     1.523249925291     0.00000000     0.00000000
 C      2   1   0     1.529929507722   115.73143054     0.00000000
 C      3   2   1     1.548560308093   118.47882882    69.26105950
 H      3   2   1     1.095996258935   109.22876055   306.99587259
 H      3   2   1     1.089741895909   109.09447516   191.65918400
 O      4   3   2     1.218256030808   116.67932681   153.78014971
 O      4   3   2     1.282492510271   116.99179008   332.02427143
 H      2   1   3     1.095925782067   109.24662404   125.16332320
 H      2   1   3     1.093133526199   106.48671664   239.00413491
 H      1   2   3     1.069997106725   109.47088171    54.83675893
 H      1   2   3     1.069997673502   109.47076563   294.83680064
 H      1   2   3     1.069992181934   109.47113693   174.83695651

---------------------------
INTERNAL COORDINATES (A.U.)
---------------------------
 C      0   0   0     0.000000000000     0.00000000     0.00000000
 C      1   0   0     2.878525192317     0.00000000     0.00000000
 C      2   1   0     2.891147773800   115.73143054     0.00000000
 C      3   2   1     2.926354884156   118.47882882    69.26105950
 H      3   2   1     2.071132773190   109.22876055   306.99587259
 H      3   2   1     2.059313739929   109.09447516   191.65918400
 O      4   3   2     2.302170259225   116.67932681   153.78014971
 O      4   3   2     2.423559613216   116.99179008   332.02427143
 H      2   1   3     2.070999591211   109.24662404   125.16332320
 H      2   1   3     2.065722992324   106.48671664   239.00413491
 H      1   2   3     2.022001495798   109.47088171    54.83675893
 H      1   2   3     2.022002566852   109.47076563   294.83680064
 H      1   2   3     2.021992189292   109.47113693   174.83695651

---------------------
BASIS SET INFORMATION
---------------------
There are 3 groups of distinct atoms

 Group   1 Type C   : 8s4p2d contracted to 4s2p2d pattern {5111/31/11}
 Group   2 Type H   : 4s2p contracted to 2s2p pattern {31/11}
 Group   3 Type O   : 8s5p2d contracted to 4s3p2d pattern {5111/311/11}

Atom   0C    basis set group =>   1
Atom   1C    basis set group =>   1
Atom   2C    basis set group =>   1
Atom   3C    basis set group =>   1
Atom   4H    basis set group =>   2
Atom   5H    basis set group =>   2
Atom   6O    basis set group =>   3
Atom   7O    basis set group =>   3
Atom   8H    basis set group =>   2
Atom   9H    basis set group =>   2
Atom  10H    basis set group =>   2
Atom  11H    basis set group =>   2
Atom  12H    basis set group =>   2
---------------------------------
AUXILIARY/J BASIS SET INFORMATION
---------------------------------
There are 3 groups of distinct atoms

 Group   1 Type C   : 12s5p4d2f1g contracted to 6s4p3d1f1g pattern {711111/2111/211/2/1}
 Group   2 Type H   : 5s2p1d contracted to 3s1p1d pattern {311/2/1}
 Group   3 Type O   : 12s5p4d2f1g contracted to 6s4p3d1f1g pattern {711111/2111/211/2/1}

Atom   0C    basis set group =>   1
Atom   1C    basis set group =>   1
Atom   2C    basis set group =>   1
Atom   3C    basis set group =>   1
Atom   4H    basis set group =>   2
Atom   5H    basis set group =>   2
Atom   6O    basis set group =>   3
Atom   7O    basis set group =>   3
Atom   8H    basis set group =>   2
Atom   9H    basis set group =>   2
Atom  10H    basis set group =>   2
Atom  11H    basis set group =>   2
Atom  12H    basis set group =>   2


           ************************************************************
           *        Program running with 4 parallel MPI-processes     *
           *              working on a common directory               *
           ************************************************************
------------------------------------------------------------------------------
                           ORCA GTO INTEGRAL CALCULATION
                           -- RI-GTO INTEGRALS CHOSEN --
------------------------------------------------------------------------------
------------------------------------------------------------------------------
                   ___                                                        
                  /   \      - P O W E R E D   B Y -                         
                 /     \                                                     
                 |  |  |   _    _      __       _____    __    __             
                 |  |  |  | |  | |    /  \     |  _  \  |  |  /  |          
                  \  \/   | |  | |   /    \    | | | |  |  | /  /          
                 / \  \   | |__| |  /  /\  \   | |_| |  |  |/  /          
                |  |  |   |  __  | /  /__\  \  |    /   |      \           
                |  |  |   | |  | | |   __   |  |    \   |  |\   \          
                \     /   | |  | | |  |  |  |  | |\  \  |  | \   \       
                 \___/    |_|  |_| |__|  |__|  |_| \__\ |__|  \__/        
                                                                              
                      - O R C A' S   B I G   F R I E N D -                    
                                      &                                       
                       - I N T E G R A L  F E E D E R -                       
                                                                              
 v1 FN, 2020, v2 2021                                                         
------------------------------------------------------------------------------


Reading SHARK input file 14Feb_SVPD_LC_PBE_A_wt_wb97_typ1_neg.SHARKINP.tmp ... ok
----------------------
SHARK INTEGRAL PACKAGE
----------------------

Number of atoms                             ...     13
Number of basis functions                   ...    182
Number of shells                            ...     78
Maximum angular momentum                    ...      2
Integral batch strategy                     ... SHARK/LIBINT Hybrid
RI-J (if used) integral strategy            ... SPLIT-RIJ (Revised 2003 algorithm where possible)
Printlevel                                  ...      1
Contraction scheme used                     ... SEGMENTED contraction
Coulomb Range Separation                    ... NOT USED
Exchange Range Separation                   ... Long Range
   Mu parameter                             ...  0.470000
   Scaling (regular/separated)              ...  0.000000  1.000000
Finite Nucleus Model                        ... NOT USED
Auxiliary Coulomb fitting basis             ... AVAILABLE
   # of basis functions in Aux-J            ...    371
   # of shells in Aux-J                     ...    125
   Maximum angular momentum in Aux-J        ...      4
Auxiliary J/K fitting basis                 ... NOT available
Auxiliary Correlation fitting basis         ... NOT available
Auxiliary 'external' fitting basis          ... NOT available
Integral threshold                          ...     2.500000e-11
Primitive cut-off                           ...     2.500000e-12
Primitive pair pre-selection threshold      ...     2.500000e-12

Calculating pre-screening integrals         ... done (  0.0 sec) Dimension = 78
Organizing shell pair data                  ... done (  0.0 sec)
Shell pair information
Total number of shell pairs                 ...      3081
Shell pairs after pre-screening             ...      3029
Total number of primitive shell pairs       ...      8355
Primitive shell pairs kept                  ...      6897
          la=0 lb=0:    722 shell pairs
          la=1 lb=0:   1045 shell pairs
          la=1 lb=1:    403 shell pairs
          la=2 lb=0:    450 shell pairs
          la=2 lb=1:    332 shell pairs
          la=2 lb=2:     77 shell pairs

Calculating one electron integrals          ... done (  0.0 sec)
Calculating RI/J V-Matrix + Cholesky decomp.... done (  0.0 sec)
Calculating Nuclear repulsion               ... done (  0.0 sec) ENN=    232.437649914478 Eh

SHARK setup successfully completed in   0.2 seconds

Maximum memory used throughout the entire GTOINT-calculation: 8.9 MB


           ************************************************************
           *        Program running with 4 parallel MPI-processes     *
           *              working on a common directory               *
           ************************************************************
-------------------------------------------------------------------------------
                                 ORCA SCF
-------------------------------------------------------------------------------

------------
SCF SETTINGS
------------
Hamiltonian:
 Density Functional     Method          .... DFT(GTOs)
 Exchange Functional    Exchange        .... LC-PBE
 Correlation Functional Correlation     .... PBE
   PBE beta parameter  CBetaPBE         ....  0.066725
 LDA part of GGA corr.  LDAOpt          .... PW91-LDA
 Gradients option       PostSCFGGA      .... off
   Density functional embedding theory  .... OFF
 Long-range corrected/Screened/Range-Separated Hybrid DFT is turned on
   Amount of maximum screened exact exchange              ....  1.000000
   Range separation parameter mu (erf(mu*r12)/r12)        ....  0.470000
   NL short-range parameter             ....  6.400000
 RI-approximation to the Coulomb term is turned on
   Number of AuxJ basis functions       .... 371
   RIJ-COSX (HFX calculated with COS-X)).... on


General Settings:
 Integral files         IntName         .... 14Feb_SVPD_LC_PBE_A_wt_wb97_typ1_neg
 Hartree-Fock type      HFTyp           .... RHF
 Total Charge           Charge          ....   -1
 Multiplicity           Mult            ....    1
 Number of Electrons    NEL             ....   48
 Basis Dimension        Dim             ....  182
 Nuclear Repulsion      ENuc            ....    232.4376499145 Eh

Convergence Acceleration:
 DIIS                   CNVDIIS         .... on
   Start iteration      DIISMaxIt       ....    12
   Startup error        DIISStart       ....  0.200000
   # of expansion vecs  DIISMaxEq       ....     5
   Bias factor          DIISBfac        ....   1.050
   Max. coefficient     DIISMaxC        ....  10.000
 Trust-Rad. Augm. Hess. CNVTRAH         .... auto
   Auto Start mean grad. ratio tolernc. ....  1.125000
   Auto Start start iteration           ....    20
   Auto Start num. interpolation iter.  ....    10
   Max. Number of Micro iterations      ....    16
   Max. Number of Macro iterations      .... Maxiter - #DIIS iter
   Number of Davidson start vectors     ....     2
   Converg. threshold I  (grad. norm)   ....   1.000e-05
   Converg. threshold II (energy diff.) ....   1.000e-08
   Grad. Scal. Fac. for Micro threshold ....   0.100
   Minimum threshold for Micro iter.    ....   0.010
   NR start threshold (gradient norm)   ....   0.001
   Initial trust radius                 ....   0.400
   Minimum AH scaling param. (alpha)    ....   1.000
   Maximum AH scaling param. (alpha)    .... 1000.000
   Orbital update algorithm             .... Taylor
   White noise on init. David. guess    .... on
   Maximum white noise                  ....   0.010
   Quad. conv. algorithm                .... NR
 SOSCF                  CNVSOSCF        .... on
   Start iteration      SOSCFMaxIt      ....   150
   Startup grad/error   SOSCFStart      ....  0.003300
 Level Shifting         CNVShift        .... on
   Level shift para.    LevelShift      ....    0.2500
   Turn off err/grad.   ShiftErr        ....    0.0010
 Zerner damping         CNVZerner       .... off
 Static damping         CNVDamp         .... on
   Fraction old density DampFac         ....    0.7000
   Max. Damping (<1)    DampMax         ....    0.9800
   Min. Damping (>=0)   DampMin         ....    0.0000
   Turn off err/grad.   DampErr         ....    0.1000
 Fernandez-Rico         CNVRico         .... off

SCF Procedure:
 Maximum # iterations   MaxIter         ....   150
 SCF integral mode      SCFMode         .... Direct
   Integral package                     .... SHARK and LIBINT hybrid scheme
 Reset frequency        DirectResetFreq ....    20
 Integral Threshold     Thresh          ....  2.500e-11 Eh
 Primitive CutOff       TCut            ....  2.500e-12 Eh

Convergence Tolerance:
 Convergence Check Mode ConvCheckMode   .... Total+1el-Energy
 Convergence forced     ConvForced      .... 0
 Energy Change          TolE            ....  1.000e-08 Eh
 1-El. energy change                    ....  1.000e-05 Eh
 Orbital Gradient       TolG            ....  1.000e-05
 Orbital Rotation angle TolX            ....  1.000e-05
 DIIS Error             TolErr          ....  5.000e-07


Diagonalization of the overlap matrix:
Smallest eigenvalue                        ... 1.013e-04
Time for diagonalization                   ...    0.009 sec
Threshold for overlap eigenvalues          ... 1.000e-08
Number of eigenvalues below threshold      ... 0
Time for construction of square roots      ...    0.006 sec
Total time needed                          ...    0.016 sec

Time for model grid setup =    0.081 sec

------------------------------
INITIAL GUESS: MODEL POTENTIAL
------------------------------
Loading Hartree-Fock densities                     ... done
Calculating cut-offs                               ... done
Initializing the effective Hamiltonian             ... done
Setting up the integral package (SHARK)            ... done
Starting the Coulomb interaction                   ... done (   0.0 sec)
Reading the grid                                   ... done
Mapping shells                                     ... done
Starting the XC term evaluation                    ... done (   0.1 sec)
  promolecular density results
     # of electrons  =     47.000203668
     EX              =    -27.661831109
     EC              =     -1.546591064
     EX+EC           =    -29.208422172
Transforming the Hamiltonian                       ... done (   0.0 sec)
Diagonalizing the Hamiltonian                      ... done (   0.0 sec)
Back transforming the eigenvectors                 ... done (   0.0 sec)
Now organizing SCF variables                       ... done
                      ------------------
                      INITIAL GUESS DONE (   0.2 sec)
                      ------------------
-------------------
DFT GRID GENERATION
-------------------

General Integration Accuracy     IntAcc      ... 4.388
Radial Grid Type                 RadialGrid  ... OptM3 with GC (2021)
Angular Grid (max. ang.)         AngularGrid ... 4 (Lebedev-302)
Angular grid pruning method      GridPruning ... 4 (adaptive)
Weight generation scheme         WeightScheme... Becke
Basis function cutoff            BFCut       ... 1.0000e-11
Integration weight cutoff        WCut        ... 1.0000e-14
Angular grids for H and He will be reduced by one unit
Partially contracted basis set               ... off
Rotationally invariant grid construction     ... off

Total number of grid points                  ...    60773
Total number of batches                      ...      957
Average number of points per batch           ...       63
Average number of grid points per atom       ...     4675
Time for grid setup =    0.384 sec

--------------------
COSX GRID GENERATION
--------------------

GRIDX 1
-------
General Integration Accuracy     IntAcc      ... 3.816
Radial Grid Type                 RadialGrid  ... OptM3 with GC (2021)
Angular Grid (max. ang.)         AngularGrid ... 1 (Lebedev-50)
Angular grid pruning method      GridPruning ... 4 (adaptive)
Weight generation scheme         WeightScheme... Becke
Basis function cutoff            BFCut       ... 1.0000e-11
Integration weight cutoff        WCut        ... 1.0000e-14
Angular grids for H and He will be reduced by one unit
Partially contracted basis set               ... on
Rotationally invariant grid construction     ... off

Total number of grid points                  ...     7626
Total number of batches                      ...      127
Average number of points per batch           ...       60
Average number of grid points per atom       ...      587
UseSFitting                                  ... on

GRIDX 2
-------
General Integration Accuracy     IntAcc      ... 4.020
Radial Grid Type                 RadialGrid  ... OptM3 with GC (2021)
Angular Grid (max. ang.)         AngularGrid ... 2 (Lebedev-110)
Angular grid pruning method      GridPruning ... 4 (adaptive)
Weight generation scheme         WeightScheme... Becke
Basis function cutoff            BFCut       ... 1.0000e-11
Integration weight cutoff        WCut        ... 1.0000e-14
Angular grids for H and He will be reduced by one unit
Partially contracted basis set               ... on
Rotationally invariant grid construction     ... off

Total number of grid points                  ...    17566
Total number of batches                      ...      281
Average number of points per batch           ...       62
Average number of grid points per atom       ...     1351
UseSFitting                                  ... on

GRIDX 3
-------
General Integration Accuracy     IntAcc      ... 4.338
Radial Grid Type                 RadialGrid  ... OptM3 with GC (2021)
Angular Grid (max. ang.)         AngularGrid ... 3 (Lebedev-194)
Angular grid pruning method      GridPruning ... 4 (adaptive)
Weight generation scheme         WeightScheme... Becke
Basis function cutoff            BFCut       ... 1.0000e-11
Integration weight cutoff        WCut        ... 1.0000e-14
Angular grids for H and He will be reduced by one unit
Partially contracted basis set               ... on
Rotationally invariant grid construction     ... off

Total number of grid points                  ...    39713
Total number of batches                      ...      626
Average number of points per batch           ...       63
Average number of grid points per atom       ...     3055
UseSFitting                                  ... on

Time for X-Grid setup             =    0.340 sec

--------------
SCF ITERATIONS
--------------
ITER       Energy         Delta-E        Max-DP      RMS-DP      [F,P]     Damp
               ***  Starting incremental Fock matrix formation  ***
  0   -305.9185620236   0.000000000000 0.07968725  0.00182173  0.1341921 0.7000
  1   -305.9605051961  -0.041943172551 0.05055774  0.00127614  0.0774355 0.7000
                               ***Turning on DIIS***
  2   -305.9813450957  -0.020839899597 0.13058884  0.00280544  0.0448496 0.0000
  3   -306.0173704816  -0.036025385935 0.05575211  0.00118342  0.0354851 0.0000
  4   -306.0225156014  -0.005145119813 0.03053456  0.00060018  0.0063284 0.0000
  5   -306.0227873678  -0.000271766365 0.01882216  0.00037839  0.0043135 0.0000
                      *** Initiating the SOSCF procedure ***
                           *** Shutting down DIIS ***
                      *** Re-Reading the Fockian *** 
                      *** Removing any level shift *** 
ITER      Energy       Delta-E        Grad      Rot      Max-DP    RMS-DP
  6   -306.02287365  -0.0000862860  0.000602  0.000602  0.023196  0.000430
               *** Restarting incremental Fock matrix formation ***
  7   -306.02289418  -0.0000205288  0.000132  0.000302  0.005200  0.000100
  8   -306.02289460  -0.0000004202  0.000148  0.000152  0.002489  0.000046
  9   -306.02289521  -0.0000006089  0.000010  0.000035  0.000668  0.000012
 10   -306.02289522  -0.0000000125  0.000005  0.000012  0.000186  0.000003
                  ***Gradient check signals convergence***
              ***Rediagonalizing the Fockian in SOSCF/NRSCF***

               *****************************************************
               *                     SUCCESS                       *
               *           SCF CONVERGED AFTER  11 CYCLES          *
               *****************************************************


----------------
TOTAL SCF ENERGY
----------------

Total Energy       :         -306.02289523 Eh           -8327.30633 eV

Components:
Nuclear Repulsion  :          232.43764991 Eh            6324.95001 eV
Electronic Energy  :         -538.46054514 Eh          -14652.25634 eV
One Electron Energy:         -887.34487876 Eh          -24145.88170 eV
Two Electron Energy:          348.88433362 Eh            9493.62536 eV
Max COSX asymmetry :            0.00000848 Eh               0.00023 eV

Virial components:
Potential Energy   :         -609.18875255 Eh          -16576.86871 eV
Kinetic Energy     :          303.16585732 Eh            8249.56238 eV
Virial Ratio       :            2.00942401


DFT components:
N(Alpha)           :       24.000125433142 electrons
N(Beta)            :       24.000125433142 electrons
N(Total)           :       48.000250866285 electrons
E(X)               :      -28.230453366493 Eh       
E(C)               :       -1.592842932244 Eh       
E(XC)              :      -29.823296298737 Eh       
DFET-embed. en.    :        0.000000000000 Eh       

---------------
SCF CONVERGENCE
---------------

  Last Energy change         ...   -1.4398e-09  Tolerance :   1.0000e-08
  Last MAX-Density change    ...    1.8768e-05  Tolerance :   1.0000e-07
  Last RMS-Density change    ...    5.5764e-07  Tolerance :   5.0000e-09
  Last Orbital Gradient      ...    1.2966e-06  Tolerance :   1.0000e-05
  Last Orbital Rotation      ...    2.8103e-06  Tolerance :   1.0000e-05

             **** THE GBW FILE WAS UPDATED (14Feb_SVPD_LC_PBE_A_wt_wb97_typ1_neg.gbw) ****
             **** DENSITY 14Feb_SVPD_LC_PBE_A_wt_wb97_typ1_neg.scfp WAS UPDATED ****
             **** ENERGY FILE WAS UPDATED (14Feb_SVPD_LC_PBE_A_wt_wb97_typ1_neg.en.tmp) ****
             **** THE GBW FILE WAS UPDATED (14Feb_SVPD_LC_PBE_A_wt_wb97_typ1_neg.gbw) ****
             **** DENSITY 14Feb_SVPD_LC_PBE_A_wt_wb97_typ1_neg.scfp WAS UPDATED ****
----------------
ORBITAL ENERGIES
----------------

  NO   OCC          E(Eh)            E(eV) 
   0   2.0000     -18.737174      -509.8644 
   1   2.0000     -18.725284      -509.5409 
   2   2.0000     -10.023351      -272.7492 
   3   2.0000      -9.979963      -271.5686 
   4   2.0000      -9.964149      -271.1383 
   5   2.0000      -9.957198      -270.9491 
   6   2.0000      -0.991300       -26.9746 
   7   2.0000      -0.881979       -23.9999 
   8   2.0000      -0.809152       -22.0181 
   9   2.0000      -0.705936       -19.2095 
  10   2.0000      -0.601489       -16.3674 
  11   2.0000      -0.477819       -13.0021 
  12   2.0000      -0.441801       -12.0220 
  13   2.0000      -0.435339       -11.8462 
  14   2.0000      -0.403641       -10.9836 
  15   2.0000      -0.376127       -10.2349 
  16   2.0000      -0.360566        -9.8115 
  17   2.0000      -0.347102        -9.4451 
  18   2.0000      -0.323386        -8.7998 
  19   2.0000      -0.312097        -8.4926 
  20   2.0000      -0.299494        -8.1496 
  21   2.0000      -0.183807        -5.0017 
  22   2.0000      -0.177099        -4.8191 
  23   2.0000      -0.167710        -4.5636 
  24   0.0000       0.213661         5.8140 
  25   0.0000       0.238505         6.4901 
  26   0.0000       0.249807         6.7976 
  27   0.0000       0.260576         7.0906 
  28   0.0000       0.294190         8.0053 
  29   0.0000       0.301084         8.1929 
  30   0.0000       0.308376         8.3913 
  31   0.0000       0.316660         8.6168 
  32   0.0000       0.323924         8.8144 
  33   0.0000       0.343254         9.3404 
  34   0.0000       0.348324         9.4784 
  35   0.0000       0.354893         9.6571 
  36   0.0000       0.360846         9.8191 
  37   0.0000       0.376355        10.2411 
  38   0.0000       0.387143        10.5347 
  39   0.0000       0.393899        10.7185 
  40   0.0000       0.395891        10.7728 
  41   0.0000       0.413674        11.2566 
  42   0.0000       0.422398        11.4940 
  43   0.0000       0.444284        12.0896 
  44   0.0000       0.467501        12.7213 
  45   0.0000       0.478700        13.0261 
  46   0.0000       0.484612        13.1870 
  47   0.0000       0.493610        13.4318 
  48   0.0000       0.514793        14.0082 
  49   0.0000       0.520241        14.1565 
  50   0.0000       0.528945        14.3933 
  51   0.0000       0.538271        14.6471 
  52   0.0000       0.544147        14.8070 
  53   0.0000       0.551945        15.0192 
  54   0.0000       0.558554        15.1990 
  55   0.0000       0.573116        15.5953 
  56   0.0000       0.586414        15.9571 
  57   0.0000       0.597904        16.2698 
  58   0.0000       0.606014        16.4905 
  59   0.0000       0.606453        16.5024 
  60   0.0000       0.619271        16.8512 
  61   0.0000       0.632808        17.2196 
  62   0.0000       0.636024        17.3071 
  63   0.0000       0.651155        17.7188 
  64   0.0000       0.660358        17.9693 
  65   0.0000       0.669300        18.2126 
  66   0.0000       0.672188        18.2912 
  67   0.0000       0.675224        18.3738 
  68   0.0000       0.696034        18.9401 
  69   0.0000       0.703633        19.1468 
  70   0.0000       0.708661        19.2836 
  71   0.0000       0.722328        19.6555 
  72   0.0000       0.731780        19.9127 
  73   0.0000       0.735608        20.0169 
  74   0.0000       0.741901        20.1881 
  75   0.0000       0.744309        20.2537 
  76   0.0000       0.758856        20.6495 
  77   0.0000       0.776924        21.1412 
  78   0.0000       0.785547        21.3758 
  79   0.0000       0.806963        21.9586 
  80   0.0000       0.808897        22.0112 
  81   0.0000       0.816947        22.2303 
  82   0.0000       0.822293        22.3757 
  83   0.0000       0.833906        22.6917 
  84   0.0000       0.838809        22.8251 
  85   0.0000       0.852920        23.2091 
  86   0.0000       0.864372        23.5208 
  87   0.0000       0.874450        23.7950 
  88   0.0000       0.888327        24.1726 
  89   0.0000       0.922883        25.1129 
  90   0.0000       0.948057        25.7979 
  91   0.0000       0.974206        26.5095 
  92   0.0000       0.980319        26.6758 
  93   0.0000       0.985993        26.8302 
  94   0.0000       1.021533        27.7973 
  95   0.0000       1.030710        28.0471 
  96   0.0000       1.051613        28.6158 
  97   0.0000       1.063038        28.9267 
  98   0.0000       1.070098        29.1188 
  99   0.0000       1.130183        30.7538 
 100   0.0000       1.180034        32.1104 
 101   0.0000       1.198150        32.6033 
 102   0.0000       1.212503        32.9939 
 103   0.0000       1.236085        33.6356 
 104   0.0000       1.247699        33.9516 
 105   0.0000       1.265951        34.4483 
 106   0.0000       1.279796        34.8250 
 107   0.0000       1.285864        34.9901 
 108   0.0000       1.303952        35.4823 
 109   0.0000       1.314851        35.7789 
 110   0.0000       1.338655        36.4266 
 111   0.0000       1.348235        36.6873 
 112   0.0000       1.363587        37.1051 
 113   0.0000       1.391000        37.8510 
 114   0.0000       1.405406        38.2431 
 115   0.0000       1.426541        38.8181 
 116   0.0000       1.474394        40.1203 
 117   0.0000       1.487983        40.4901 
 118   0.0000       1.555862        42.3372 
 119   0.0000       1.586794        43.1789 
 120   0.0000       1.617348        44.0103 
 121   0.0000       1.646995        44.8170 
 122   0.0000       1.713193        46.6183 
 123   0.0000       1.843617        50.1674 
 124   0.0000       1.852377        50.4057 
 125   0.0000       1.861120        50.6436 
 126   0.0000       1.885519        51.3076 
 127   0.0000       1.900970        51.7280 
 128   0.0000       1.911806        52.0229 
 129   0.0000       1.955934        53.2237 
 130   0.0000       1.972115        53.6640 
 131   0.0000       1.990444        54.1627 
 132   0.0000       2.005389        54.5694 
 133   0.0000       2.054816        55.9144 
 134   0.0000       2.075593        56.4797 
 135   0.0000       2.093437        56.9653 
 136   0.0000       2.140813        58.2545 
 137   0.0000       2.171112        59.0790 
 138   0.0000       2.195327        59.7379 
 139   0.0000       2.236843        60.8676 
 140   0.0000       2.238333        60.9082 
 141   0.0000       2.270923        61.7949 
 142   0.0000       2.286064        62.2070 
 143   0.0000       2.305479        62.7353 
 144   0.0000       2.329667        63.3935 
 145   0.0000       2.354759        64.0762 
 146   0.0000       2.360263        64.2260 
 147   0.0000       2.379535        64.7504 
 148   0.0000       2.413590        65.6771 
 149   0.0000       2.432981        66.2048 
 150   0.0000       2.469719        67.2045 
 151   0.0000       2.555398        69.5359 
 152   0.0000       2.559645        69.6515 
 153   0.0000       2.578146        70.1549 
 154   0.0000       2.650323        72.1189 
 155   0.0000       2.716486        73.9193 
 156   0.0000       2.739851        74.5551 
 157   0.0000       2.764471        75.2251 
 158   0.0000       2.820643        76.7536 
 159   0.0000       2.854312        77.6698 
 160   0.0000       2.897201        78.8368 
 161   0.0000       2.903342        79.0039 
 162   0.0000       2.966968        80.7353 
 163   0.0000       3.001653        81.6791 
 164   0.0000       3.063398        83.3593 
 165   0.0000       3.202397        87.1417 
 166   0.0000       3.236740        88.0762 
 167   0.0000       3.254364        88.5557 
 168   0.0000       3.279697        89.2451 
 169   0.0000       3.310907        90.0944 
 170   0.0000       3.361605        91.4739 
 171   0.0000       3.368718        91.6675 
 172   0.0000       3.395988        92.4095 
 173   0.0000       3.423957        93.1706 
 174   0.0000       3.451263        93.9136 
 175   0.0000       3.480046        94.6969 
 176   0.0000       3.511415        95.5505 
 177   0.0000       3.590970        97.7152 
 178   0.0000       3.663077        99.6774 
 179   0.0000       3.815391       103.8221 
 180   0.0000       4.056075       110.3714 
 181   0.0000       4.206529       114.4655 

                    ********************************
                    * MULLIKEN POPULATION ANALYSIS *
                    ********************************

-----------------------
MULLIKEN ATOMIC CHARGES
-----------------------
   0 C :    0.496759
   1 C :   -0.435460
   2 C :   -0.158198
   3 C :    0.310033
   4 H :    0.109366
   5 H :    0.063589
   6 O :   -0.586100
   7 O :   -0.692746
   8 H :   -0.025950
   9 H :    0.011381
  10 H :   -0.019759
  11 H :   -0.083312
  12 H :    0.010397
Sum of atomic charges:   -1.0000000

--------------------------------
MULLIKEN REDUCED ORBITAL CHARGES
--------------------------------
  0 C s       :     2.501221  s :     2.501221
      pz      :     1.002206  p :     2.892656
      px      :     0.887658
      py      :     1.002792
      dz2     :    -0.000855  d :     0.109364
      dxz     :    -0.022952
      dyz     :     0.060959
      dx2y2   :     0.054870
      dxy     :     0.017342
  1 C s       :     2.882667  s :     2.882667
      pz      :     0.971753  p :     3.030671
      px      :     1.008225
      py      :     1.050694
      dz2     :     0.019647  d :     0.522121
      dxz     :     0.103988
      dyz     :     0.137007
      dx2y2   :     0.063520
      dxy     :     0.197960
  2 C s       :     2.866846  s :     2.866846
      pz      :     1.118239  p :     3.053322
      px      :     0.942015
      py      :     0.993068
      dz2     :     0.017783  d :     0.238031
      dxz     :     0.086172
      dyz     :     0.009168
      dx2y2   :     0.064994
      dxy     :     0.059914
  3 C s       :     2.898006  s :     2.898006
      pz      :     0.869847  p :     2.468776
      px      :     0.842092
      py      :     0.756837
      dz2     :     0.078992  d :     0.323186
      dxz     :     0.072002
      dyz     :     0.069686
      dx2y2   :     0.070355
      dxy     :     0.032150
  4 H s       :     0.855345  s :     0.855345
      pz      :     0.025205  p :     0.035289
      px      :    -0.000654
      py      :     0.010737
  5 H s       :     0.889033  s :     0.889033
      pz      :     0.004763  p :     0.047377
      px      :    -0.009190
      py      :     0.051804
  6 O s       :     3.851289  s :     3.851289
      pz      :     1.807231  p :     4.712104
      px      :     1.338863
      py      :     1.566010
      dz2     :     0.001857  d :     0.022707
      dxz     :     0.003928
      dyz     :     0.000931
      dx2y2   :     0.009474
      dxy     :     0.006518
  7 O s       :     3.883367  s :     3.883367
      pz      :     1.460013  p :     4.792455
      px      :     1.801398
      py      :     1.531044
      dz2     :     0.005392  d :     0.016924
      dxz     :     0.000766
      dyz     :     0.004294
      dx2y2   :     0.004852
      dxy     :     0.001619
  8 H s       :     0.974050  s :     0.974050
      pz      :     0.019639  p :     0.051900
      px      :     0.006060
      py      :     0.026201
  9 H s       :     0.981537  s :     0.981537
      pz      :     0.029994  p :     0.007083
      px      :    -0.004682
      py      :    -0.018230
 10 H s       :     0.985130  s :     0.985130
      pz      :     0.031971  p :     0.034629
      px      :    -0.017500
      py      :     0.020157
 11 H s       :     0.968131  s :     0.968131
      pz      :     0.066753  p :     0.115181
      px      :     0.043573
      py      :     0.004855
 12 H s       :     0.978592  s :     0.978592
      pz      :    -0.023979  p :     0.011011
      px      :     0.041685
      py      :    -0.006695


                     *******************************
                     * LOEWDIN POPULATION ANALYSIS *
                     *******************************

----------------------
LOEWDIN ATOMIC CHARGES
----------------------
   0 C :    0.069829
   1 C :   -0.118219
   2 C :   -0.021535
   3 C :   -0.314610
   4 H :    0.028614
   5 H :    0.013308
   6 O :   -0.294813
   7 O :   -0.326806
   8 H :    0.029410
   9 H :    0.008723
  10 H :   -0.015858
  11 H :   -0.031321
  12 H :   -0.026720

-------------------------------
LOEWDIN REDUCED ORBITAL CHARGES
-------------------------------
  0 C s       :     2.698082  s :     2.698082
      pz      :     0.958472  p :     2.804507
      px      :     0.924175
      py      :     0.921860
      dz2     :     0.059812  d :     0.427582
      dxz     :     0.035350
      dyz     :     0.133270
      dx2y2   :     0.134307
      dxy     :     0.064843
  1 C s       :     2.684189  s :     2.684189
      pz      :     0.916472  p :     2.735336
      px      :     0.908494
      py      :     0.910370
      dz2     :     0.074907  d :     0.698694
      dxz     :     0.144317
      dyz     :     0.144242
      dx2y2   :     0.159061
      dxy     :     0.176167
  2 C s       :     2.685015  s :     2.685015
      pz      :     0.922251  p :     2.725430
      px      :     0.886847
      py      :     0.916333
      dz2     :     0.091978  d :     0.611090
      dxz     :     0.158253
      dyz     :     0.104804
      dx2y2   :     0.143734
      dxy     :     0.112321
  3 C s       :     2.677019  s :     2.677019
      pz      :     0.826675  p :     2.426136
      px      :     0.872157
      py      :     0.727304
      dz2     :     0.246008  d :     1.211456
      dxz     :     0.309957
      dyz     :     0.199377
      dx2y2   :     0.241027
      dxy     :     0.215088
  4 H s       :     0.714701  s :     0.714701
      pz      :     0.092406  p :     0.256685
      px      :     0.063896
      py      :     0.100383
  5 H s       :     0.719732  s :     0.719732
      pz      :     0.080103  p :     0.266960
      px      :     0.072265
      py      :     0.114592
  6 O s       :     3.431238  s :     3.431238
      pz      :     1.653099  p :     4.627874
      px      :     1.481886
      py      :     1.492888
      dz2     :     0.023530  d :     0.235701
      dxz     :     0.065936
      dyz     :     0.021348
      dx2y2   :     0.065065
      dxy     :     0.059822
  7 O s       :     3.453709  s :     3.453709
      pz      :     1.511194  p :     4.654051
      px      :     1.664716
      py      :     1.478141
      dz2     :     0.057869  d :     0.219046
      dxz     :     0.045263
      dyz     :     0.054656
      dx2y2   :     0.026511
      dxy     :     0.034748
  8 H s       :     0.724018  s :     0.724018
      pz      :     0.099356  p :     0.246571
      px      :     0.064122
      py      :     0.083093
  9 H s       :     0.733110  s :     0.733110
      pz      :     0.108981  p :     0.258167
      px      :     0.078839
      py      :     0.070346
 10 H s       :     0.738586  s :     0.738586
      pz      :     0.105473  p :     0.277272
      px      :     0.082056
      py      :     0.089743
 11 H s       :     0.710366  s :     0.710366
      pz      :     0.125507  p :     0.320955
      px      :     0.120158
      py      :     0.075290
 12 H s       :     0.746775  s :     0.746775
      pz      :     0.078983  p :     0.279945
      px      :     0.130119
      py      :     0.070844


                      *****************************
                      * MAYER POPULATION ANALYSIS *
                      *****************************

  NA   - Mulliken gross atomic population
  ZA   - Total nuclear charge
  QA   - Mulliken gross atomic charge
  VA   - Mayer's total valence
  BVA  - Mayer's bonded valence
  FA   - Mayer's free valence

  ATOM       NA         ZA         QA         VA         BVA        FA
  0 C      5.5032     6.0000     0.4968     3.9214     3.9214    -0.0000
  1 C      6.4355     6.0000    -0.4355     5.1026     5.1026    -0.0000
  2 C      6.1582     6.0000    -0.1582     4.1986     4.1986     0.0000
  3 C      5.6900     6.0000     0.3100     4.3511     4.3511    -0.0000
  4 H      0.8906     1.0000     0.1094     1.0420     1.0420    -0.0000
  5 H      0.9364     1.0000     0.0636     1.1468     1.1468     0.0000
  6 O      8.5861     8.0000    -0.5861     1.7309     1.7309     0.0000
  7 O      8.6927     8.0000    -0.6927     1.6567     1.6567    -0.0000
  8 H      1.0259     1.0000    -0.0259     1.1833     1.1833    -0.0000
  9 H      0.9886     1.0000     0.0114     1.0855     1.0855    -0.0000
 10 H      1.0198     1.0000    -0.0198     1.0485     1.0485    -0.0000
 11 H      1.0833     1.0000    -0.0833     1.2419     1.2419     0.0000
 12 H      0.9896     1.0000     0.0104     0.9930     0.9930    -0.0000

  Mayer bond orders larger than 0.100000
B(  0-C ,  1-C ) :   1.2826 B(  0-C , 10-H ) :   0.8335 B(  0-C , 11-H ) :   0.8926 
B(  0-C , 12-H ) :   0.7979 B(  1-C ,  2-C ) :   1.1826 B(  1-C ,  4-H ) :   0.1000 
B(  1-C ,  5-H ) :   0.1021 B(  1-C ,  8-H ) :   0.9807 B(  1-C ,  9-H ) :   0.9006 
B(  1-C , 10-H ) :   0.1620 B(  1-C , 11-H ) :   0.1844 B(  1-C , 12-H ) :   0.1703 
B(  2-C ,  3-C ) :   0.9939 B(  2-C ,  4-H ) :   0.8650 B(  2-C ,  5-H ) :   0.9395 
B(  2-C ,  8-H ) :   0.1134 B(  3-C ,  5-H ) :   0.1265 B(  3-C ,  6-O ) :   1.6067 
B(  3-C ,  7-O ) :   1.5266 B(  6-O ,  7-O ) :   0.1006 

-------
TIMINGS
-------

Total SCF time: 0 days 0 hours 0 min 17 sec 

Total time                  ....      17.198 sec
Sum of individual times     ....      17.027 sec  ( 99.0%)

Fock matrix formation       ....      15.948 sec  ( 92.7%)
  Split-RI-J                ....       0.767 sec  (  4.8% of F)
  Chain of spheres X        ....      12.299 sec  ( 77.1% of F)
  XC integration            ....       2.726 sec  ( 17.1% of F)
    Basis function eval.    ....       0.882 sec  ( 32.4% of XC)
    Density eval.           ....       0.652 sec  ( 23.9% of XC)
    XC-Functional eval.     ....       0.242 sec  (  8.9% of XC)
    XC-Potential eval.      ....       0.858 sec  ( 31.5% of XC)
Diagonalization             ....       0.076 sec  (  0.4%)
Density matrix formation    ....       0.003 sec  (  0.0%)
Population analysis         ....       0.007 sec  (  0.0%)
Initial guess               ....       0.127 sec  (  0.7%)
Orbital Transformation      ....       0.000 sec  (  0.0%)
Orbital Orthonormalization  ....       0.000 sec  (  0.0%)
DIIS solution               ....       0.034 sec  (  0.2%)
SOSCF solution              ....       0.027 sec  (  0.2%)
Grid generation             ....       0.806 sec  (  4.7%)

Maximum memory used throughout the entire SCF-calculation: 23.5 MB

-------------------------   --------------------
FINAL SINGLE POINT ENERGY      -306.022895225567
-------------------------   --------------------


                            ***************************************
                            *     ORCA property calculations      *
                            ***************************************

                                    ---------------------
                                    Active property flags
                                    ---------------------
   (+) Dipole Moment


------------------------------------------------------------------------------
                       ORCA ELECTRIC PROPERTIES CALCULATION
------------------------------------------------------------------------------

Dipole Moment Calculation                       ... on
Quadrupole Moment Calculation                   ... off
Polarizability Calculation                      ... off
GBWName                                         ... 14Feb_SVPD_LC_PBE_A_wt_wb97_typ1_neg.gbw
Electron density file                           ... 14Feb_SVPD_LC_PBE_A_wt_wb97_typ1_neg.scfp
The origin for moment calculation is the CENTER OF MASS  = (-2.642292,  3.952473 -6.443284)

-------------
DIPOLE MOMENT
-------------
                                X             Y             Z
Electronic contribution:     -7.14221       1.47861       3.04961
Nuclear contribution   :      9.31936      -1.53308      -4.48293
                        -----------------------------------------
Total Dipole Moment    :      2.17715      -0.05446      -1.43333
                        -----------------------------------------
Magnitude (a.u.)       :      2.60718
Magnitude (Debye)      :      6.62692



--------------------
Rotational spectrum 
--------------------
 
Rotational constants in cm-1:     0.250458     0.077448     0.063252 
Rotational constants in MHz :  7508.538874  2321.842942  1896.252250 

 Dipole components along the rotational axes: 
x,y,z [a.u.] :    -2.376566    -1.067455    -0.099254 
x,y,z [Debye]:    -6.040750    -2.713256    -0.252285 

 

Timings for individual modules:

Sum of individual times         ...       17.793 sec (=   0.297 min)
GTO integral calculation        ...        0.387 sec (=   0.006 min)   2.2 %
SCF iterations                  ...       17.406 sec (=   0.290 min)  97.8 %
                             ****ORCA TERMINATED NORMALLY****
TOTAL RUN TIME: 0 days 0 hours 0 minutes 18 seconds 144 msec
