
                                        *****************
                                        * O   R   C   A *
                                        *****************

                                            #,                                       
                                            ###                                      
                                            ####                                     
                                            #####                                    
                                            ######                                   
                                           ########,                                 
                                     ,,################,,,,,                         
                               ,,#################################,,                 
                          ,,##########################################,,             
                       ,#########################################, ''#####,          
                    ,#############################################,,   '####,        
                  ,##################################################,,,,####,       
                ,###########''''           ''''###############################       
              ,#####''   ,,,,##########,,,,          '''####'''          '####       
            ,##' ,,,,###########################,,,                        '##       
           ' ,,###''''                  '''############,,,                           
         ,,##''                                '''############,,,,        ,,,,,,###''
      ,#''                                            '''#######################'''  
     '                                                          ''''####''''         
             ,#######,   #######,   ,#######,      ##                                
            ,#'     '#,  ##    ##  ,#'     '#,    #''#        ######   ,####,        
            ##       ##  ##   ,#'  ##            #'  '#       #        #'  '#        
            ##       ##  #######   ##           ,######,      #####,   #    #        
            '#,     ,#'  ##    ##  '#,     ,#' ,#      #,         ##   #,  ,#        
             '#######'   ##     ##  '#######'  #'      '#     #####' # '####'        



                  #######################################################
                  #                        -***-                        #
                  #          Department of theory and spectroscopy      #
                  #    Directorship and core code : Frank Neese         #
                  #        Max Planck Institute fuer Kohlenforschung    #
                  #                Kaiser Wilhelm Platz 1               #
                  #                 D-45470 Muelheim/Ruhr               #
                  #                      Germany                        #
                  #                                                     #
                  #                  All rights reserved                #
                  #                        -***-                        #
                  #######################################################


                         Program Version 5.0.0 -  RELEASE  -
                                (SVN: $Rev: 19529$)
                ($Date: 2021-06-28 11:36:33 +0200 (Mo, 28 Jun 2021) $)


 With contributions from (in alphabetic order):
   Daniel Aravena         : Magnetic Suceptibility
   Michael Atanasov       : Ab Initio Ligand Field Theory (pilot matlab implementation)
   Alexander A. Auer      : GIAO ZORA, VPT2 properties, NMR spectrum
   Ute Becker             : Parallelization
   Giovanni Bistoni       : ED, misc. LED, open-shell LED, HFLD
   Martin Brehm           : Molecular dynamics
   Dmytro Bykov           : SCF Hessian
   Vijay G. Chilkuri      : MRCI spin determinant printing, contributions to CSF-ICE
   Dipayan Datta          : RHF DLPNO-CCSD density
   Achintya Kumar Dutta   : EOM-CC, STEOM-CC
   Dmitry Ganyushin       : Spin-Orbit,Spin-Spin,Magnetic field MRCI
   Miquel Garcia          : C-PCM Hessian, Gaussian charge scheme
   Yang Guo               : DLPNO-NEVPT2, F12-NEVPT2, CIM, IAO-localization
   Andreas Hansen         : Spin unrestricted coupled pair/coupled cluster methods
   Benjamin Helmich-Paris : MC-RPA, TRAH-SCF, COSX integrals
   Lee Huntington         : MR-EOM, pCC
   Robert Izsak           : Overlap fitted RIJCOSX, COSX-SCS-MP3, EOM
   Marcus Kettner         : VPT2
   Christian Kollmar      : KDIIS, OOCD, Brueckner-CCSD(T), CCSD density, CASPT2, CASPT2-K
   Simone Kossmann        : Meta GGA functionals, TD-DFT gradient, OOMP2, MP2 Hessian
   Martin Krupicka        : Initial AUTO-CI
   Lucas Lang             : DCDCAS
   Marvin Lechner         : AUTO-CI (C++ implementation), FIC-MRCC
   Dagmar Lenk            : GEPOL surface, SMD
   Dimitrios Liakos       : Extrapolation schemes; Compound Job, initial MDCI parallelization
   Dimitrios Manganas     : Further ROCIS development; embedding schemes
   Dimitrios Pantazis     : SARC Basis sets
   Anastasios Papadopoulos: AUTO-CI, single reference methods and gradients
   Taras Petrenko         : DFT Hessian,TD-DFT gradient, ASA, ECA, R-Raman, ABS, FL, XAS/XES, NRVS
   Peter Pinski           : DLPNO-MP2, DLPNO-MP2 Gradient
   Christoph Reimann      : Effective Core Potentials
   Marius Retegan         : Local ZFS, SOC
   Christoph Riplinger    : Optimizer, TS searches, QM/MM, DLPNO-CCSD(T), (RO)-DLPNO pert. Triples
   Tobias Risthaus        : Range-separated hybrids, TD-DFT gradient, RPA, STAB
   Michael Roemelt        : Original ROCIS implementation
   Masaaki Saitow         : Open-shell DLPNO-CCSD energy and density
   Barbara Sandhoefer     : DKH picture change effects
   Avijit Sen             : IP-ROCIS
   Kantharuban Sivalingam : CASSCF convergence, NEVPT2, FIC-MRCI
   Bernardo de Souza      : ESD, SOC TD-DFT
   Georgi Stoychev        : AutoAux, RI-MP2 NMR
   Willem Van den Heuvel  : Paramagnetic NMR
   Boris Wezisla          : Elementary symmetry handling
   Frank Wennmohs         : Technical directorship


 We gratefully acknowledge several colleagues who have allowed us to
 interface, adapt or use parts of their codes:
   Stefan Grimme, W. Hujo, H. Kruse, P. Pracht,  : VdW corrections, initial TS optimization,
                  C. Bannwarth, S. Ehlert          DFT functionals, gCP, sTDA/sTD-DF
   Ed Valeev, F. Pavosevic, A. Kumar             : LibInt (2-el integral package), F12 methods
   Garnet Chan, S. Sharma, J. Yang, R. Olivares  : DMRG
   Ulf Ekstrom                                   : XCFun DFT Library
   Mihaly Kallay                                 : mrcc  (arbitrary order and MRCC methods)
   Jiri Pittner, Ondrej Demel                    : Mk-CCSD
   Frank Weinhold                                : gennbo (NPA and NBO analysis)
   Christopher J. Cramer and Donald G. Truhlar   : smd solvation model
   Lars Goerigk                                  : TD-DFT with DH, B97 family of functionals
   V. Asgeirsson, H. Jonsson                     : NEB implementation
   FAccTs GmbH                                   : IRC, NEB, NEB-TS, DLPNO-Multilevel, CI-OPT
                                                   MM, QMMM, 2- and 3-layer-ONIOM, Crystal-QMMM,
                                                   LR-CPCM, SF, NACMEs, symmetry and pop. for TD-DFT,
                                                   nearIR, NL-DFT gradient (VV10), updates on ESD,
                                                   ML-optimized integration grids
   S Lehtola, MJT Oliveira, MAL Marques          : LibXC Library
   Liviu Ungur et al                             : ANISO software


 Your calculation uses the libint2 library for the computation of 2-el integrals
 For citations please refer to: http://libint.valeyev.net

 Your ORCA version has been built with support for libXC version: 5.1.0
 For citations please refer to: https://tddft.org/programs/libxc/

 This ORCA versions uses:
   CBLAS   interface :  Fast vector & matrix operations
   LAPACKE interface :  Fast linear algebra routines
   SCALAPACK package :  Parallel linear algebra routines
   Shared memory     :  Shared parallel matrices
   BLAS/LAPACK       :  OpenBLAS 0.3.15  USE64BITINT DYNAMIC_ARCH NO_AFFINITY Haswell SINGLE_THREADED
        Core in use  :  Haswell
   Copyright (c) 2011-2014, The OpenBLAS Project




***************************************
The coordinates will be read from file: D6.xyz
***************************************


XCFun DFT library Copyright 2009-2010 Ulf Ekstrom and contributors.
See http://admol.org/xcfun for more information.
This is free software; see the source code for copying conditions.
There is ABSOLUTELY NO WARRANTY; not even for MERCHANTABILITY or FITNESS FOR A PARTICULAR PURPOSE.
For details see the documentation.
Scientific users of this library should cite U. Ekstrom, L. Visscher, R. Bast, A. J. Thorvaldsen and K. Ruud;
J.Chem.Theor.Comp. 2010, DOI: 10.1021/ct100117s
XCFun Version 0.99 

================================================================================

----- Orbital basis set information -----
Your calculation utilizes the basis: def2-SVPD
   F. Weigend and R. Ahlrichs, Phys. Chem. Chem. Phys. 7, 3297 (2005).
   D. Rappoport and F. Furche, J. Chem. Phys. 133 134105 (2010).

----- AuxJ basis set information -----
Your calculation utilizes the auxiliary basis: def2/J
   F. Weigend, Phys. Chem. Chem. Phys. 8, 1057 (2006).

================================================================================
                                        WARNINGS
                       Please study these warnings very carefully!
================================================================================


INFO   : the flag for use of the SHARK integral package has been found!

================================================================================
                                       INPUT FILE
================================================================================
NAME = 28Oct_SVPD_CAMB3LYP_D6_wb97.com
|  1> !CAM-B3LYP RIJCOSX def2-SVPD def2/J TightSCF xyzfile                                                                                         
|  2> 
|  3> *xyzfile 0 1 D6.xyz
|  4> 
|  5> %MaxCore 64000
|  6> 
|  7> %pal nprocs 4                                                                                                                                                  
|  8> end  
|  9> 
| 10> %scf
| 11>   MaxIter 150
| 12> end
| 13> 
| 14> 
| 15>                          ****END OF INPUT****
================================================================================

                       ****************************
                       * Single Point Calculation *
                       ****************************

---------------------------------
CARTESIAN COORDINATES (ANGSTROEM)
---------------------------------
  C      5.558206   -1.992914   -6.215054
  C      4.930199   -7.375319   -2.649623
  C      3.841892   -6.951611   -3.632829
  H      3.458144   -5.954425   -3.407121
  H      2.988484   -7.643606   -3.567078
  S      4.318115   -6.915930   -5.368692
  C      4.181880   -2.589671   -6.298911
  N      3.145873   -1.768431   -6.486753
  C      4.019102   -3.864307   -6.227427
  H      4.768490   -4.591153   -5.990773
  H      3.122405   -4.333392   -6.314620
  H      3.281635   -0.777786   -6.566549
  H      2.212549   -2.134193   -6.562246
  O      5.406154   -5.899480   -5.512972
  O      3.111910   -6.445079   -6.043792
  C      6.419260   -2.542944   -5.077630
  C      5.872267   -5.002756   -2.427819
  C      6.173994   -6.485522   -2.606315
  H      6.734852   -6.613767   -3.534015
  H      6.821463   -6.831018   -1.793617
  H      4.469612   -7.406168   -1.655876
  H      5.230134   -8.398678   -2.885906
  C      5.896512   -2.169314   -3.694552
  H      7.428880   -2.143665   -5.208078
  H      6.505894   -3.627541   -5.175502
  C      6.807804   -2.623428   -2.551019
  H      4.894708   -2.589732   -3.557501
  H      5.778823   -1.081255   -3.635790
  C      7.111544   -4.122463   -2.520363
  H      7.751615   -2.071393   -2.614406
  H      6.345837   -2.326401   -1.604086
  H      5.362882   -4.828697   -1.471335
  H      5.174429   -4.702577   -3.211298
  H      7.778329   -4.329347   -1.677651
  H      7.673189   -4.402845   -3.417586
  F      4.763396   -8.239424   -5.698629
  H      6.036826   -2.198189   -7.176852
  H      5.467610   -0.907371   -6.127968

----------------------------
CARTESIAN COORDINATES (A.U.)
----------------------------
  NO LB      ZA    FRAG     MASS         X           Y           Z
   0 C     6.0000    0    12.011   10.503488   -3.766062  -11.744750
   1 C     6.0000    0    12.011    9.316726  -13.937333   -5.007061
   2 C     6.0000    0    12.011    7.260124  -13.136641   -6.865052
   3 H     1.0000    0     1.008    6.534945  -11.252232   -6.438525
   4 H     1.0000    0     1.008    5.647417  -14.444323   -6.740800
   5 S    16.0000    0    32.060    8.160056  -13.069213  -10.145357
   6 C     6.0000    0    12.011    7.902607   -4.893769  -11.903217
   7 N     7.0000    0    14.007    5.944839   -3.341850  -12.258188
   8 C     6.0000    0    12.011    7.595003   -7.302481  -11.768132
   9 H     1.0000    0     1.008    9.011140   -8.676022  -11.320921
  10 H     1.0000    0     1.008    5.900490   -8.188924  -11.932902
  11 H     1.0000    0     1.008    6.201392   -1.469802  -12.408980
  12 H     1.0000    0     1.008    4.181111   -4.033041  -12.400847
  13 O     8.0000    0    15.999   10.216150  -11.148401  -10.418007
  14 O     8.0000    0    15.999    5.880658  -12.179433  -11.421112
  15 C     6.0000    0    12.011   12.130644   -4.805467   -9.595331
  16 C     6.0000    0    12.011   11.096976   -9.453839   -4.587913
  17 C     6.0000    0    12.011   11.667157  -12.255860   -4.925221
  18 H     1.0000    0     1.008   12.727027  -12.498208   -6.678320
  19 H     1.0000    0     1.008   12.890697  -12.908753   -3.389444
  20 H     1.0000    0     1.008    8.446342  -13.995630   -3.129152
  21 H     1.0000    0     1.008    9.883521  -15.871201   -5.453572
  22 C     6.0000    0    12.011   11.142793   -4.099409   -6.981691
  23 H     1.0000    0     1.008   14.038548   -4.050941   -9.841842
  24 H     1.0000    0     1.008   12.294357   -6.855060   -9.780281
  25 C     6.0000    0    12.011   12.864885   -4.957561   -4.820727
  26 H     1.0000    0     1.008    9.249658   -4.893884   -6.722702
  27 H     1.0000    0     1.008   10.920393   -2.043276   -6.870647
  28 C     6.0000    0    12.011   13.438871   -7.790326   -4.762797
  29 H     1.0000    0     1.008   14.648429   -3.914365   -4.940511
  30 H     1.0000    0     1.008   11.991895   -4.396261   -3.031284
  31 H     1.0000    0     1.008   10.134377   -9.124915   -2.780420
  32 H     1.0000    0     1.008    9.778255   -8.886583   -6.068473
  33 H     1.0000    0     1.008   14.698912   -8.181281   -3.170302
  34 H     1.0000    0     1.008   14.500226   -8.320172   -6.458302
  35 F     9.0000    0    18.998    9.001515  -15.570255  -10.768848
  36 H     1.0000    0     1.008   11.407947   -4.153975  -13.562284
  37 H     1.0000    0     1.008   10.332286   -1.714682  -11.580182

--------------------------------
INTERNAL COORDINATES (ANGSTROEM)
--------------------------------
 C      0   0   0     0.000000000000     0.00000000     0.00000000
 C      1   0   0     6.486676991334     0.00000000     0.00000000
 C      2   1   0     1.526641676857    58.98431618     0.00000000
 H      3   2   1     1.092056719456   111.76657926   301.76291724
 H      3   2   1     1.100675257080   109.86252232   183.37509207
 S      3   2   1     1.800355913609   115.96964618    63.28433129
 C      1   2   3     1.502473091366    67.19621670     9.82950561
 N      7   1   2     1.335301347352   118.31340541   149.09843253
 C      7   1   2     1.286974259129   120.40681479   327.21744653
 H      9   7   1     1.070463621394   126.60018884     7.96837689
 H      9   7   1     1.015731265044   124.35252214   182.57998756
 H      8   7   1     1.003083391702   120.90245867   359.77551784
 H      8   7   1     1.005274113129   120.47231394   179.03064483
 O      6   3   2     1.495932471292   107.38856853   297.68915787
 O      6   3   2     1.460271114037   103.51186950   181.67727166
 C      1   2   3     1.528947328879    49.24078969   172.77851068
 C      2   1   7     2.562370365129    40.85970591   226.35299093
 C     17   2   1     1.523644630425    33.02671159   255.40808035
 H     18  17   2     1.091621223501   108.39902792   121.62547515
 H     18  17   2     1.095017103952   109.70622864   237.96127787
 H      2   1   7     1.095730250170   124.23256610   279.63708206
 H      2   1   7     1.092270007789   129.19229883    99.04052312
 C     16   1   2     1.525048166014   113.17227676   275.89147488
 H     16   1   2     1.093512939299   107.44934201   154.77668930
 H     16   1   2     1.092445288031   109.58301316    39.82866386
 C     23  16   1     1.531123874549   113.61923186   184.39820079
 H     23  16   1     1.095054699889   109.45275122    61.39371418
 H     23  16   1     1.095981364808   109.18727053   305.73194925
 C     17   2   1     1.522921594669   146.00953636   264.46588188
 H     26  23  16     1.095235050783   108.67352889    66.02747159
 H     26  23  16     1.094677843090   108.32516486   180.85641006
 H     17   2   1     1.097557381820    92.96033186   131.32387738
 H     17   2   1     1.091294020132    87.56109018    24.84306882
 H     29  17   2     1.094333898118   109.86175449   288.41192908
 H     29  17   2     1.095019659233   108.61241254    43.53892715
 F      6   3   2     1.434841640015   106.58974907    58.18895583
 H      1   2   3     1.093740711115   111.71451344   270.83870435
 H      1   2   3     1.092792888067   140.57257057   102.14735505

---------------------------
INTERNAL COORDINATES (A.U.)
---------------------------
 C      0   0   0     0.000000000000     0.00000000     0.00000000
 C      1   0   0    12.258043032829     0.00000000     0.00000000
 C      2   1   0     2.884934673891    58.98431618     0.00000000
 H      3   2   1     2.063688122481   111.76657926   301.76291724
 H      3   2   1     2.079974798266   109.86252232   183.37509207
 S      3   2   1     3.402179620307   115.96964618    63.28433129
 C      1   2   3     2.839262666268    67.19621670     9.82950561
 N      7   1   2     2.523353852751   118.31340541   149.09843253
 C      7   1   2     2.432028891161   120.40681479   327.21744653
 H      9   7   1     2.022883080760   126.60018884     7.96837689
 H      9   7   1     1.919453916594   124.35252214   182.57998756
 H      8   7   1     1.895552899801   120.90245867   359.77551784
 H      8   7   1     1.899692763334   120.47231394   179.03064483
 O      6   3   2     2.826902685582   107.38856853   297.68915787
 O      6   3   2     2.759512486805   103.51186950   181.67727166
 C      1   2   3     2.889291724773    49.24078969   172.77851068
 C      2   1   7     4.842178243770    40.85970591   226.35299093
 C     17   2   1     2.879271076922    33.02671159   255.40808035
 H     18  17   2     2.062865154392   108.39902792   121.62547515
 H     18  17   2     2.069282438429   109.70622864   237.96127787
 H      2   1   7     2.070630089473   124.23256610   279.63708206
 H      2   1   7     2.064091179017   129.19229883    99.04052312
 C     16   1   2     2.881923374806   113.17227676   275.89147488
 H     16   1   2     2.066439979174   107.44934201   154.77668930
 H     16   1   2     2.064422410672   109.58301316    39.82866386
 C     23  16   1     2.893404800005   113.61923186   184.39820079
 H     23  16   1     2.069353484453   109.45275122    61.39371418
 H     23  16   1     2.071104627368   109.18727053   305.73194925
 C     17   2   1     2.877904737359   146.00953636   264.46588188
 H     26  23  16     2.069694298250   108.67352889    66.02747159
 H     26  23  16     2.068641328312   108.32516486   180.85641006
 H     17   2   1     2.074082867903    92.96033186   131.32387738
 H     17   2   1     2.062246829636    87.56109018    24.84306882
 H     29  17   2     2.067991366509   109.86175449   288.41192908
 H     29  17   2     2.069287267211   108.61241254    43.53892715
 F      6   3   2     2.711457745175   106.58974907    58.18895583
 H      1   2   3     2.066870405528   111.71451344   270.83870435
 H      1   2   3     2.065079279544   140.57257057   102.14735505

---------------------
BASIS SET INFORMATION
---------------------
There are 6 groups of distinct atoms

 Group   1 Type C   : 8s4p2d contracted to 4s2p2d pattern {5111/31/11}
 Group   2 Type H   : 4s2p contracted to 2s2p pattern {31/11}
 Group   3 Type S   : 11s8p2d contracted to 5s4p2d pattern {53111/5111/11}
 Group   4 Type N   : 8s4p2d contracted to 4s2p2d pattern {5111/31/11}
 Group   5 Type O   : 8s5p2d contracted to 4s3p2d pattern {5111/311/11}
 Group   6 Type F   : 8s5p2d contracted to 4s3p2d pattern {5111/311/11}

Atom   0C    basis set group =>   1
Atom   1C    basis set group =>   1
Atom   2C    basis set group =>   1
Atom   3H    basis set group =>   2
Atom   4H    basis set group =>   2
Atom   5S    basis set group =>   3
Atom   6C    basis set group =>   1
Atom   7N    basis set group =>   4
Atom   8C    basis set group =>   1
Atom   9H    basis set group =>   2
Atom  10H    basis set group =>   2
Atom  11H    basis set group =>   2
Atom  12H    basis set group =>   2
Atom  13O    basis set group =>   5
Atom  14O    basis set group =>   5
Atom  15C    basis set group =>   1
Atom  16C    basis set group =>   1
Atom  17C    basis set group =>   1
Atom  18H    basis set group =>   2
Atom  19H    basis set group =>   2
Atom  20H    basis set group =>   2
Atom  21H    basis set group =>   2
Atom  22C    basis set group =>   1
Atom  23H    basis set group =>   2
Atom  24H    basis set group =>   2
Atom  25C    basis set group =>   1
Atom  26H    basis set group =>   2
Atom  27H    basis set group =>   2
Atom  28C    basis set group =>   1
Atom  29H    basis set group =>   2
Atom  30H    basis set group =>   2
Atom  31H    basis set group =>   2
Atom  32H    basis set group =>   2
Atom  33H    basis set group =>   2
Atom  34H    basis set group =>   2
Atom  35F    basis set group =>   6
Atom  36H    basis set group =>   2
Atom  37H    basis set group =>   2
---------------------------------
AUXILIARY/J BASIS SET INFORMATION
---------------------------------
There are 6 groups of distinct atoms

 Group   1 Type C   : 12s5p4d2f1g contracted to 6s4p3d1f1g pattern {711111/2111/211/2/1}
 Group   2 Type H   : 5s2p1d contracted to 3s1p1d pattern {311/2/1}
 Group   3 Type S   : 14s5p5d2f1g contracted to 8s4p3d1f1g pattern {71111111/2111/311/2/1}
 Group   4 Type N   : 12s5p4d2f1g contracted to 6s4p3d1f1g pattern {711111/2111/211/2/1}
 Group   5 Type O   : 12s5p4d2f1g contracted to 6s4p3d1f1g pattern {711111/2111/211/2/1}
 Group   6 Type F   : 12s5p4d2f1g contracted to 6s4p3d1f1g pattern {711111/2111/211/2/1}

Atom   0C    basis set group =>   1
Atom   1C    basis set group =>   1
Atom   2C    basis set group =>   1
Atom   3H    basis set group =>   2
Atom   4H    basis set group =>   2
Atom   5S    basis set group =>   3
Atom   6C    basis set group =>   1
Atom   7N    basis set group =>   4
Atom   8C    basis set group =>   1
Atom   9H    basis set group =>   2
Atom  10H    basis set group =>   2
Atom  11H    basis set group =>   2
Atom  12H    basis set group =>   2
Atom  13O    basis set group =>   5
Atom  14O    basis set group =>   5
Atom  15C    basis set group =>   1
Atom  16C    basis set group =>   1
Atom  17C    basis set group =>   1
Atom  18H    basis set group =>   2
Atom  19H    basis set group =>   2
Atom  20H    basis set group =>   2
Atom  21H    basis set group =>   2
Atom  22C    basis set group =>   1
Atom  23H    basis set group =>   2
Atom  24H    basis set group =>   2
Atom  25C    basis set group =>   1
Atom  26H    basis set group =>   2
Atom  27H    basis set group =>   2
Atom  28C    basis set group =>   1
Atom  29H    basis set group =>   2
Atom  30H    basis set group =>   2
Atom  31H    basis set group =>   2
Atom  32H    basis set group =>   2
Atom  33H    basis set group =>   2
Atom  34H    basis set group =>   2
Atom  35F    basis set group =>   6
Atom  36H    basis set group =>   2
Atom  37H    basis set group =>   2


           ************************************************************
           *        Program running with 4 parallel MPI-processes     *
           *              working on a common directory               *
           ************************************************************
------------------------------------------------------------------------------
                           ORCA GTO INTEGRAL CALCULATION
                           -- RI-GTO INTEGRALS CHOSEN --
------------------------------------------------------------------------------
------------------------------------------------------------------------------
                   ___                                                        
                  /   \      - P O W E R E D   B Y -                         
                 /     \                                                     
                 |  |  |   _    _      __       _____    __    __             
                 |  |  |  | |  | |    /  \     |  _  \  |  |  /  |          
                  \  \/   | |  | |   /    \    | | | |  |  | /  /          
                 / \  \   | |__| |  /  /\  \   | |_| |  |  |/  /          
                |  |  |   |  __  | /  /__\  \  |    /   |      \           
                |  |  |   | |  | | |   __   |  |    \   |  |\   \          
                \     /   | |  | | |  |  |  |  | |\  \  |  | \   \       
                 \___/    |_|  |_| |__|  |__|  |_| \__\ |__|  \__/        
                                                                              
                      - O R C A' S   B I G   F R I E N D -                    
                                      &                                       
                       - I N T E G R A L  F E E D E R -                       
                                                                              
 v1 FN, 2020, v2 2021                                                         
------------------------------------------------------------------------------


Reading SHARK input file 28Oct_SVPD_CAMB3LYP_D6_wb97.SHARKINP.tmp ... ok
----------------------
SHARK INTEGRAL PACKAGE
----------------------

Number of atoms                             ...     38
Number of basis functions                   ...    512
Number of shells                            ...    222
Maximum angular momentum                    ...      2
Integral batch strategy                     ... SHARK/LIBINT Hybrid
RI-J (if used) integral strategy            ... SPLIT-RIJ (Revised 2003 algorithm where possible)
Printlevel                                  ...      1
Contraction scheme used                     ... SEGMENTED contraction
Coulomb Range Separation                    ... NOT USED
Exchange Range Separation                   ... Long Range
   Mu parameter                             ...  0.330000
   Scaling (regular/separated)              ...  0.190000  0.460000
Finite Nucleus Model                        ... NOT USED
Auxiliary Coulomb fitting basis             ... AVAILABLE
   # of basis functions in Aux-J            ...   1028
   # of shells in Aux-J                     ...    352
   Maximum angular momentum in Aux-J        ...      4
Auxiliary J/K fitting basis                 ... NOT available
Auxiliary Correlation fitting basis         ... NOT available
Auxiliary 'external' fitting basis          ... NOT available
Integral threshold                          ...     2.500000e-11
Primitive cut-off                           ...     2.500000e-12
Primitive pair pre-selection threshold      ...     2.500000e-12

Calculating pre-screening integrals         ... done (  0.1 sec) Dimension = 222
Organizing shell pair data                  ... done (  0.2 sec)
Shell pair information
Total number of shell pairs                 ...     24753
Shell pairs after pre-screening             ...     22335
Total number of primitive shell pairs       ...     67445
Primitive shell pairs kept                  ...     45628
          la=0 lb=0:   5368 shell pairs
          la=1 lb=0:   7959 shell pairs
          la=1 lb=1:   3009 shell pairs
          la=2 lb=0:   3153 shell pairs
          la=2 lb=1:   2361 shell pairs
          la=2 lb=2:    485 shell pairs

Calculating one electron integrals          ... done (  0.1 sec)
Calculating RI/J V-Matrix + Cholesky decomp.... done (  0.1 sec)
Calculating Nuclear repulsion               ... done (  0.0 sec) ENN=   1427.285125582023 Eh

SHARK setup successfully completed in   0.6 seconds

Maximum memory used throughout the entire GTOINT-calculation: 33.0 MB


           ************************************************************
           *        Program running with 4 parallel MPI-processes     *
           *              working on a common directory               *
           ************************************************************
-------------------------------------------------------------------------------
                                 ORCA SCF
-------------------------------------------------------------------------------

------------
SCF SETTINGS
------------
Hamiltonian:
 Density Functional     Method          .... DFT(GTOs)
 Exchange Functional    Exchange        .... WB88
 Correlation Functional Correlation     .... LYP
 LDA part of GGA corr.  LDAOpt          .... VWN-5
 Gradients option       PostSCFGGA      .... off
 Hybrid DFT is turned on
   Fraction HF Exchange ScalHFX         ....  0.190000
   Scaling of DF-GGA-X  ScalDFX         ....  0.350000
   Scaling of DF-GGA-C  ScalDFC         ....  0.810000
   Scaling of DF-LDA-C  ScalLDAC        ....  1.000000
   Perturbative correction              ....  0.000000
   Density functional embedding theory  .... OFF
 Long-range corrected/Screened/Range-Separated Hybrid DFT is turned on
   Amount of maximum screened exact exchange              ....  0.460000
   Range separation parameter mu (erf(mu*r12)/r12)        ....  0.330000
 RI-approximation to the Coulomb term is turned on
   Number of AuxJ basis functions       .... 1028
   RIJ-COSX (HFX calculated with COS-X)).... on


General Settings:
 Integral files         IntName         .... 28Oct_SVPD_CAMB3LYP_D6_wb97
 Hartree-Fock type      HFTyp           .... RHF
 Total Charge           Charge          ....    0
 Multiplicity           Mult            ....    1
 Number of Electrons    NEL             ....  136
 Basis Dimension        Dim             ....  512
 Nuclear Repulsion      ENuc            ....   1427.2851255820 Eh

Convergence Acceleration:
 DIIS                   CNVDIIS         .... on
   Start iteration      DIISMaxIt       ....    12
   Startup error        DIISStart       ....  0.200000
   # of expansion vecs  DIISMaxEq       ....     5
   Bias factor          DIISBfac        ....   1.050
   Max. coefficient     DIISMaxC        ....  10.000
 Trust-Rad. Augm. Hess. CNVTRAH         .... auto
   Auto Start mean grad. ratio tolernc. ....  1.125000
   Auto Start start iteration           ....    20
   Auto Start num. interpolation iter.  ....    10
   Max. Number of Micro iterations      ....    16
   Max. Number of Macro iterations      .... Maxiter - #DIIS iter
   Number of Davidson start vectors     ....     2
   Converg. threshold I  (grad. norm)   ....   1.000e-05
   Converg. threshold II (energy diff.) ....   1.000e-08
   Grad. Scal. Fac. for Micro threshold ....   0.100
   Minimum threshold for Micro iter.    ....   0.010
   NR start threshold (gradient norm)   ....   0.001
   Initial trust radius                 ....   0.400
   Minimum AH scaling param. (alpha)    ....   1.000
   Maximum AH scaling param. (alpha)    .... 1000.000
   Orbital update algorithm             .... Taylor
   White noise on init. David. guess    .... on
   Maximum white noise                  ....   0.010
   Quad. conv. algorithm                .... NR
 SOSCF                  CNVSOSCF        .... on
   Start iteration      SOSCFMaxIt      ....   150
   Startup grad/error   SOSCFStart      ....  0.003300
 Level Shifting         CNVShift        .... on
   Level shift para.    LevelShift      ....    0.2500
   Turn off err/grad.   ShiftErr        ....    0.0010
 Zerner damping         CNVZerner       .... off
 Static damping         CNVDamp         .... on
   Fraction old density DampFac         ....    0.7000
   Max. Damping (<1)    DampMax         ....    0.9800
   Min. Damping (>=0)   DampMin         ....    0.0000
   Turn off err/grad.   DampErr         ....    0.1000
 Fernandez-Rico         CNVRico         .... off

SCF Procedure:
 Maximum # iterations   MaxIter         ....   150
 SCF integral mode      SCFMode         .... Direct
   Integral package                     .... SHARK and LIBINT hybrid scheme
 Reset frequency        DirectResetFreq ....    20
 Integral Threshold     Thresh          ....  2.500e-11 Eh
 Primitive CutOff       TCut            ....  2.500e-12 Eh

Convergence Tolerance:
 Convergence Check Mode ConvCheckMode   .... Total+1el-Energy
 Convergence forced     ConvForced      .... 0
 Energy Change          TolE            ....  1.000e-08 Eh
 1-El. energy change                    ....  1.000e-05 Eh
 Orbital Gradient       TolG            ....  1.000e-05
 Orbital Rotation angle TolX            ....  1.000e-05
 DIIS Error             TolErr          ....  5.000e-07


Diagonalization of the overlap matrix:
Smallest eigenvalue                        ... 1.569e-05
Time for diagonalization                   ...    0.060 sec
Threshold for overlap eigenvalues          ... 1.000e-08
Number of eigenvalues below threshold      ... 0
Time for construction of square roots      ...    0.066 sec
Total time needed                          ...    0.128 sec

Time for model grid setup =    0.460 sec

------------------------------
INITIAL GUESS: MODEL POTENTIAL
------------------------------
Loading Hartree-Fock densities                     ... done
Calculating cut-offs                               ... done
Initializing the effective Hamiltonian             ... done
Setting up the integral package (SHARK)            ... done
Starting the Coulomb interaction                   ... done (   0.6 sec)
Reading the grid                                   ... done
Mapping shells                                     ... done
Starting the XC term evaluation                    ... done (   0.7 sec)
  promolecular density results
     # of electrons  =    135.987753457
     EX              =   -120.774925454
     EC              =     -4.675385026
     EX+EC           =   -125.450310480
Transforming the Hamiltonian                       ... done (   0.0 sec)
Diagonalizing the Hamiltonian                      ... done (   0.1 sec)
Back transforming the eigenvectors                 ... done (   0.0 sec)
Now organizing SCF variables                       ... done
                      ------------------
                      INITIAL GUESS DONE (   1.8 sec)
                      ------------------
-------------------
DFT GRID GENERATION
-------------------

General Integration Accuracy     IntAcc      ... 4.388
Radial Grid Type                 RadialGrid  ... OptM3 with GC (2021)
Angular Grid (max. ang.)         AngularGrid ... 4 (Lebedev-302)
Angular grid pruning method      GridPruning ... 4 (adaptive)
Weight generation scheme         WeightScheme... Becke
Basis function cutoff            BFCut       ... 1.0000e-11
Integration weight cutoff        WCut        ... 1.0000e-14
Angular grids for H and He will be reduced by one unit
Partially contracted basis set               ... off
Rotationally invariant grid construction     ... off

Total number of grid points                  ...   170556
Total number of batches                      ...     2687
Average number of points per batch           ...       63
Average number of grid points per atom       ...     4488
Time for grid setup =    1.730 sec

--------------------
COSX GRID GENERATION
--------------------

GRIDX 1
-------
General Integration Accuracy     IntAcc      ... 3.816
Radial Grid Type                 RadialGrid  ... OptM3 with GC (2021)
Angular Grid (max. ang.)         AngularGrid ... 1 (Lebedev-50)
Angular grid pruning method      GridPruning ... 4 (adaptive)
Weight generation scheme         WeightScheme... Becke
Basis function cutoff            BFCut       ... 1.0000e-11
Integration weight cutoff        WCut        ... 1.0000e-14
Angular grids for H and He will be reduced by one unit
Partially contracted basis set               ... on
Rotationally invariant grid construction     ... off

Total number of grid points                  ...    21223
Total number of batches                      ...      355
Average number of points per batch           ...       59
Average number of grid points per atom       ...      558
UseSFitting                                  ... on

GRIDX 2
-------
General Integration Accuracy     IntAcc      ... 4.020
Radial Grid Type                 RadialGrid  ... OptM3 with GC (2021)
Angular Grid (max. ang.)         AngularGrid ... 2 (Lebedev-110)
Angular grid pruning method      GridPruning ... 4 (adaptive)
Weight generation scheme         WeightScheme... Becke
Basis function cutoff            BFCut       ... 1.0000e-11
Integration weight cutoff        WCut        ... 1.0000e-14
Angular grids for H and He will be reduced by one unit
Partially contracted basis set               ... on
Rotationally invariant grid construction     ... off

Total number of grid points                  ...    46663
Total number of batches                      ...      751
Average number of points per batch           ...       62
Average number of grid points per atom       ...     1228
UseSFitting                                  ... on

GRIDX 3
-------
General Integration Accuracy     IntAcc      ... 4.338
Radial Grid Type                 RadialGrid  ... OptM3 with GC (2021)
Angular Grid (max. ang.)         AngularGrid ... 3 (Lebedev-194)
Angular grid pruning method      GridPruning ... 4 (adaptive)
Weight generation scheme         WeightScheme... Becke
Basis function cutoff            BFCut       ... 1.0000e-11
Integration weight cutoff        WCut        ... 1.0000e-14
Angular grids for H and He will be reduced by one unit
Partially contracted basis set               ... on
Rotationally invariant grid construction     ... off

Total number of grid points                  ...   104904
Total number of batches                      ...     1657
Average number of points per batch           ...       63
Average number of grid points per atom       ...     2761
UseSFitting                                  ... on

Time for X-Grid setup             =    2.419 sec

--------------
SCF ITERATIONS
--------------
ITER       Energy         Delta-E        Max-DP      RMS-DP      [F,P]     Damp
               ***  Starting incremental Fock matrix formation  ***
  0  -1133.8701199389   0.000000000000 0.21894719  0.00287585  0.2550244 0.7000
  1  -1134.1727281875  -0.302608248639 0.11115721  0.00188821  0.1207982 0.7000
                               ***Turning on DIIS***
  2  -1134.2979961516  -0.125267964062 0.20242688  0.00347664  0.0569511 0.0000
  3  -1134.5012250848  -0.203228933187 0.09374815  0.00150497  0.0594620 0.0000
  4  -1134.5406220769  -0.039396992094 0.02170290  0.00037992  0.0155050 0.0000
  5  -1134.5422922644  -0.001670187539 0.03334262  0.00019822  0.0080497 0.0000
                      *** Initiating the SOSCF procedure ***
                           *** Shutting down DIIS ***
                      *** Re-Reading the Fockian *** 
                      *** Removing any level shift *** 
ITER      Energy       Delta-E        Grad      Rot      Max-DP    RMS-DP
  6  -1134.54251560  -0.0002233339  0.000410  0.000410  0.011343  0.000100
               *** Restarting incremental Fock matrix formation ***
  7  -1134.54238773   0.0001278730  0.000094  0.000237  0.008132  0.000170
  8  -1134.54238934  -0.0000016120  0.000120  0.000217  0.002238  0.000036
  9  -1134.54239090  -0.0000015670  0.000014  0.000022  0.001210  0.000024
 10  -1134.54239094  -0.0000000347  0.000013  0.000020  0.000688  0.000004
 11  -1134.54239099  -0.0000000481  0.000004  0.000008  0.000420  0.000004
 12  -1134.54239102  -0.0000000315  0.000004  0.000002  0.000144  0.000002
                  ***Gradient check signals convergence***
              ***Rediagonalizing the Fockian in SOSCF/NRSCF***

               *****************************************************
               *                     SUCCESS                       *
               *           SCF CONVERGED AFTER  13 CYCLES          *
               *****************************************************

Old exchange energy                            =    -34.079869147 Eh
New exchange energy                            =    -34.079851299 Eh
Exchange energy change after final integration =      0.000017848 Eh
Total energy after final integration           =  -1134.542373161 Eh
Final COS-X integration done in                =    73.363 sec

----------------
TOTAL SCF ENERGY
----------------

Total Energy       :        -1134.54237316 Eh          -30872.46750 eV

Components:
Nuclear Repulsion  :         1427.28512558 Eh           38838.40277 eV
Electronic Energy  :        -2561.82749874 Eh          -69710.87027 eV
One Electron Energy:        -4388.45579683 Eh         -119415.95322 eV
Two Electron Energy:         1826.62829809 Eh           49705.08295 eV
Max COSX asymmetry :            0.00001077 Eh               0.00029 eV

Virial components:
Potential Energy   :        -2260.98544425 Eh          -61524.54179 eV
Kinetic Energy     :         1126.44307109 Eh           30652.07429 eV
Virial Ratio       :            2.00719016


DFT components:
N(Alpha)           :       68.000333438703 electrons
N(Beta)            :       68.000333438703 electrons
N(Total)           :      136.000666877406 electrons
E(XC)              :      -93.964593488794 Eh       
DFET-embed. en.    :        0.000000000000 Eh       

---------------
SCF CONVERGENCE
---------------

  Last Energy change         ...    1.0044e-08  Tolerance :   1.0000e-08
  Last MAX-Density change    ...    5.7732e-15  Tolerance :   1.0000e-07
  Last RMS-Density change    ...    3.9529e-17  Tolerance :   5.0000e-09
  Last Orbital Gradient      ...    6.5171e-07  Tolerance :   1.0000e-05
  Last Orbital Rotation      ...    1.7871e-06  Tolerance :   1.0000e-05

             **** THE GBW FILE WAS UPDATED (28Oct_SVPD_CAMB3LYP_D6_wb97.gbw) ****
             **** DENSITY 28Oct_SVPD_CAMB3LYP_D6_wb97.scfp WAS UPDATED ****
             **** ENERGY FILE WAS UPDATED (28Oct_SVPD_CAMB3LYP_D6_wb97.en.tmp) ****
             **** THE GBW FILE WAS UPDATED (28Oct_SVPD_CAMB3LYP_D6_wb97.gbw) ****
             **** DENSITY 28Oct_SVPD_CAMB3LYP_D6_wb97.scfp WAS UPDATED ****
----------------
ORBITAL ENERGIES
----------------

  NO   OCC          E(Eh)            E(eV) 
   0   2.0000     -89.229083     -2428.0468 
   1   2.0000     -24.903149      -677.6491 
   2   2.0000     -19.227270      -523.2006 
   3   2.0000     -19.222293      -523.0652 
   4   2.0000     -14.379519      -391.2866 
   5   2.0000     -10.326166      -280.9893 
   6   2.0000     -10.289918      -280.0029 
   7   2.0000     -10.261219      -279.2220 
   8   2.0000     -10.250087      -278.9191 
   9   2.0000     -10.248326      -278.8711 
  10   2.0000     -10.245515      -278.7946 
  11   2.0000     -10.242633      -278.7162 
  12   2.0000     -10.236872      -278.5594 
  13   2.0000     -10.235670      -278.5267 
  14   2.0000     -10.234533      -278.4958 
  15   2.0000     -10.145205      -276.0651 
  16   2.0000      -8.281348      -225.3469 
  17   2.0000      -6.255687      -170.2259 
  18   2.0000      -6.249013      -170.0443 
  19   2.0000      -6.247593      -170.0057 
  20   2.0000      -1.472745       -40.0754 
  21   2.0000      -1.192258       -32.4430 
  22   2.0000      -1.086340       -29.5608 
  23   2.0000      -0.974795       -26.5255 
  24   2.0000      -0.923164       -25.1206 
  25   2.0000      -0.884995       -24.0819 
  26   2.0000      -0.856367       -23.3029 
  27   2.0000      -0.832875       -22.6637 
  28   2.0000      -0.804652       -21.8957 
  29   2.0000      -0.780433       -21.2367 
  30   2.0000      -0.754458       -20.5298 
  31   2.0000      -0.723981       -19.7005 
  32   2.0000      -0.695396       -18.9227 
  33   2.0000      -0.680361       -18.5136 
  34   2.0000      -0.678327       -18.4582 
  35   2.0000      -0.658463       -17.9177 
  36   2.0000      -0.631434       -17.1822 
  37   2.0000      -0.621677       -16.9167 
  38   2.0000      -0.601369       -16.3641 
  39   2.0000      -0.576082       -15.6760 
  40   2.0000      -0.571447       -15.5499 
  41   2.0000      -0.563944       -15.3457 
  42   2.0000      -0.545725       -14.8499 
  43   2.0000      -0.540596       -14.7104 
  44   2.0000      -0.532665       -14.4946 
  45   2.0000      -0.520611       -14.1666 
  46   2.0000      -0.515788       -14.0353 
  47   2.0000      -0.491199       -13.3662 
  48   2.0000      -0.486945       -13.2505 
  49   2.0000      -0.480935       -13.0869 
  50   2.0000      -0.480371       -13.0716 
  51   2.0000      -0.460436       -12.5291 
  52   2.0000      -0.442145       -12.0314 
  53   2.0000      -0.435151       -11.8411 
  54   2.0000      -0.423742       -11.5306 
  55   2.0000      -0.416215       -11.3258 
  56   2.0000      -0.413811       -11.2604 
  57   2.0000      -0.406769       -11.0688 
  58   2.0000      -0.398393       -10.8408 
  59   2.0000      -0.394123       -10.7246 
  60   2.0000      -0.387280       -10.5384 
  61   2.0000      -0.384160       -10.4535 
  62   2.0000      -0.381607       -10.3841 
  63   2.0000      -0.369642       -10.0585 
  64   2.0000      -0.364137        -9.9087 
  65   2.0000      -0.358105        -9.7445 
  66   2.0000      -0.332200        -9.0396 
  67   2.0000      -0.223538        -6.0828 
  68   0.0000       0.023363         0.6357 
  69   0.0000       0.048757         1.3267 
  70   0.0000       0.054649         1.4871 
  71   0.0000       0.060069         1.6346 
  72   0.0000       0.067331         1.8322 
  73   0.0000       0.072173         1.9639 
  74   0.0000       0.075565         2.0562 
  75   0.0000       0.080627         2.1940 
  76   0.0000       0.082204         2.2369 
  77   0.0000       0.093960         2.5568 
  78   0.0000       0.099850         2.7171 
  79   0.0000       0.105669         2.8754 
  80   0.0000       0.106741         2.9046 
  81   0.0000       0.108319         2.9475 
  82   0.0000       0.118679         3.2294 
  83   0.0000       0.123888         3.3712 
  84   0.0000       0.126924         3.4538 
  85   0.0000       0.133888         3.6433 
  86   0.0000       0.136023         3.7014 
  87   0.0000       0.141546         3.8517 
  88   0.0000       0.147408         4.0112 
  89   0.0000       0.151373         4.1191 
  90   0.0000       0.154816         4.2128 
  91   0.0000       0.158317         4.3080 
  92   0.0000       0.166649         4.5348 
  93   0.0000       0.169921         4.6238 
  94   0.0000       0.173181         4.7125 
  95   0.0000       0.175046         4.7633 
  96   0.0000       0.180395         4.9088 
  97   0.0000       0.187226         5.0947 
  98   0.0000       0.189985         5.1697 
  99   0.0000       0.199786         5.4365 
 100   0.0000       0.204343         5.5605 
 101   0.0000       0.209583         5.7030 
 102   0.0000       0.212146         5.7728 
 103   0.0000       0.213494         5.8095 
 104   0.0000       0.220628         6.0036 
 105   0.0000       0.221667         6.0319 
 106   0.0000       0.227493         6.1904 
 107   0.0000       0.232220         6.3190 
 108   0.0000       0.237402         6.4600 
 109   0.0000       0.245378         6.6771 
 110   0.0000       0.249471         6.7885 
 111   0.0000       0.250417         6.8142 
 112   0.0000       0.255193         6.9442 
 113   0.0000       0.259738         7.0678 
 114   0.0000       0.262808         7.1514 
 115   0.0000       0.264685         7.2024 
 116   0.0000       0.269280         7.3275 
 117   0.0000       0.271866         7.3978 
 118   0.0000       0.275338         7.4923 
 119   0.0000       0.280496         7.6327 
 120   0.0000       0.281064         7.6481 
 121   0.0000       0.289119         7.8673 
 122   0.0000       0.297524         8.0960 
 123   0.0000       0.297972         8.1082 
 124   0.0000       0.301796         8.2123 
 125   0.0000       0.306437         8.3386 
 126   0.0000       0.314758         8.5650 
 127   0.0000       0.317581         8.6418 
 128   0.0000       0.320383         8.7181 
 129   0.0000       0.325977         8.8703 
 130   0.0000       0.329246         8.9592 
 131   0.0000       0.331283         9.0147 
 132   0.0000       0.340311         9.2603 
 133   0.0000       0.341154         9.2833 
 134   0.0000       0.345282         9.3956 
 135   0.0000       0.350422         9.5355 
 136   0.0000       0.356498         9.7008 
 137   0.0000       0.358088         9.7441 
 138   0.0000       0.361317         9.8319 
 139   0.0000       0.364322         9.9137 
 140   0.0000       0.367917        10.0115 
 141   0.0000       0.371096        10.0980 
 142   0.0000       0.374352        10.1866 
 143   0.0000       0.377061        10.2603 
 144   0.0000       0.382466        10.4074 
 145   0.0000       0.385136        10.4801 
 146   0.0000       0.389780        10.6065 
 147   0.0000       0.390794        10.6340 
 148   0.0000       0.392374        10.6771 
 149   0.0000       0.394128        10.7248 
 150   0.0000       0.403312        10.9747 
 151   0.0000       0.405643        11.0381 
 152   0.0000       0.406674        11.0662 
 153   0.0000       0.408636        11.1196 
 154   0.0000       0.413528        11.2527 
 155   0.0000       0.415541        11.3075 
 156   0.0000       0.416856        11.3432 
 157   0.0000       0.417881        11.3711 
 158   0.0000       0.426205        11.5976 
 159   0.0000       0.428662        11.6645 
 160   0.0000       0.430607        11.7174 
 161   0.0000       0.435252        11.8438 
 162   0.0000       0.441295        12.0082 
 163   0.0000       0.445672        12.1274 
 164   0.0000       0.448604        12.2071 
 165   0.0000       0.452408        12.3106 
 166   0.0000       0.454961        12.3801 
 167   0.0000       0.460730        12.5371 
 168   0.0000       0.462775        12.5927 
 169   0.0000       0.466589        12.6965 
 170   0.0000       0.470170        12.7940 
 171   0.0000       0.474323        12.9070 
 172   0.0000       0.476261        12.9597 
 173   0.0000       0.488557        13.2943 
 174   0.0000       0.491308        13.3692 
 175   0.0000       0.493808        13.4372 
 176   0.0000       0.496566        13.5122 
 177   0.0000       0.499494        13.5919 
 178   0.0000       0.499706        13.5977 
 179   0.0000       0.501746        13.6532 
 180   0.0000       0.510878        13.9017 
 181   0.0000       0.513711        13.9788 
 182   0.0000       0.515469        14.0266 
 183   0.0000       0.519975        14.1492 
 184   0.0000       0.522393        14.2150 
 185   0.0000       0.529392        14.4055 
 186   0.0000       0.530505        14.4358 
 187   0.0000       0.535164        14.5626 
 188   0.0000       0.537905        14.6371 
 189   0.0000       0.542132        14.7521 
 190   0.0000       0.545368        14.8402 
 191   0.0000       0.547006        14.8848 
 192   0.0000       0.549843        14.9620 
 193   0.0000       0.554716        15.0946 
 194   0.0000       0.556585        15.1454 
 195   0.0000       0.561438        15.2775 
 196   0.0000       0.563423        15.3315 
 197   0.0000       0.565556        15.3896 
 198   0.0000       0.571716        15.5572 
 199   0.0000       0.580180        15.7875 
 200   0.0000       0.586171        15.9505 
 201   0.0000       0.589115        16.0306 
 202   0.0000       0.591817        16.1042 
 203   0.0000       0.594450        16.1758 
 204   0.0000       0.602704        16.4004 
 205   0.0000       0.604479        16.4487 
 206   0.0000       0.606035        16.4911 
 207   0.0000       0.613416        16.6919 
 208   0.0000       0.616042        16.7633 
 209   0.0000       0.622706        16.9447 
 210   0.0000       0.622873        16.9492 
 211   0.0000       0.630095        17.1458 
 212   0.0000       0.633305        17.2331 
 213   0.0000       0.636240        17.3130 
 214   0.0000       0.638854        17.3841 
 215   0.0000       0.642240        17.4762 
 216   0.0000       0.647819        17.6281 
 217   0.0000       0.653802        17.7908 
 218   0.0000       0.657711        17.8972 
 219   0.0000       0.661442        17.9988 
 220   0.0000       0.663569        18.0566 
 221   0.0000       0.667683        18.1686 
 222   0.0000       0.676998        18.4220 
 223   0.0000       0.678247        18.4560 
 224   0.0000       0.682826        18.5806 
 225   0.0000       0.685356        18.6495 
 226   0.0000       0.690872        18.7996 
 227   0.0000       0.692205        18.8359 
 228   0.0000       0.696794        18.9607 
 229   0.0000       0.706447        19.2234 
 230   0.0000       0.710223        19.3261 
 231   0.0000       0.710781        19.3413 
 232   0.0000       0.719656        19.5828 
 233   0.0000       0.725485        19.7414 
 234   0.0000       0.728749        19.8303 
 235   0.0000       0.731897        19.9159 
 236   0.0000       0.735964        20.0266 
 237   0.0000       0.743537        20.2327 
 238   0.0000       0.744737        20.2653 
 239   0.0000       0.751984        20.4625 
 240   0.0000       0.754956        20.5434 
 241   0.0000       0.761638        20.7252 
 242   0.0000       0.766870        20.8676 
 243   0.0000       0.768960        20.9245 
 244   0.0000       0.771475        20.9929 
 245   0.0000       0.778575        21.1861 
 246   0.0000       0.789407        21.4809 
 247   0.0000       0.791184        21.5292 
 248   0.0000       0.795447        21.6452 
 249   0.0000       0.797556        21.7026 
 250   0.0000       0.800960        21.7952 
 251   0.0000       0.808542        22.0016 
 252   0.0000       0.815502        22.1909 
 253   0.0000       0.817239        22.2382 
 254   0.0000       0.835783        22.7428 
 255   0.0000       0.838327        22.8120 
 256   0.0000       0.844148        22.9704 
 257   0.0000       0.854443        23.2506 
 258   0.0000       0.858710        23.3667 
 259   0.0000       0.860153        23.4060 
 260   0.0000       0.868861        23.6429 
 261   0.0000       0.878495        23.9051 
 262   0.0000       0.880102        23.9488 
 263   0.0000       0.884268        24.0622 
 264   0.0000       0.890600        24.2345 
 265   0.0000       0.899395        24.4738 
 266   0.0000       0.905852        24.6495 
 267   0.0000       0.915154        24.9026 
 268   0.0000       0.925310        25.1790 
 269   0.0000       0.930302        25.3148 
 270   0.0000       0.936134        25.4735 
 271   0.0000       0.948766        25.8172 
 272   0.0000       0.955331        25.9959 
 273   0.0000       0.958086        26.0708 
 274   0.0000       0.977101        26.5883 
 275   0.0000       0.981862        26.7178 
 276   0.0000       0.987639        26.8750 
 277   0.0000       1.000229        27.2176 
 278   0.0000       1.001236        27.2450 
 279   0.0000       1.016032        27.6476 
 280   0.0000       1.023097        27.8399 
 281   0.0000       1.024869        27.8881 
 282   0.0000       1.032778        28.1033 
 283   0.0000       1.053254        28.6605 
 284   0.0000       1.059940        28.8424 
 285   0.0000       1.064460        28.9654 
 286   0.0000       1.069975        29.1155 
 287   0.0000       1.082803        29.4646 
 288   0.0000       1.091548        29.7025 
 289   0.0000       1.096903        29.8483 
 290   0.0000       1.099233        29.9117 
 291   0.0000       1.105907        30.0933 
 292   0.0000       1.110748        30.2250 
 293   0.0000       1.118257        30.4293 
 294   0.0000       1.125335        30.6219 
 295   0.0000       1.128628        30.7115 
 296   0.0000       1.134595        30.8739 
 297   0.0000       1.143088        31.1050 
 298   0.0000       1.153432        31.3865 
 299   0.0000       1.159776        31.5591 
 300   0.0000       1.164918        31.6990 
 301   0.0000       1.171545        31.8794 
 302   0.0000       1.175499        31.9870 
 303   0.0000       1.188161        32.3315 
 304   0.0000       1.195013        32.5180 
 305   0.0000       1.195849        32.5407 
 306   0.0000       1.202130        32.7116 
 307   0.0000       1.208274        32.8788 
 308   0.0000       1.213501        33.0210 
 309   0.0000       1.222478        33.2653 
 310   0.0000       1.229285        33.4505 
 311   0.0000       1.232849        33.5475 
 312   0.0000       1.248938        33.9853 
 313   0.0000       1.258865        34.2555 
 314   0.0000       1.259562        34.2744 
 315   0.0000       1.270361        34.5683 
 316   0.0000       1.281230        34.8640 
 317   0.0000       1.289537        35.0901 
 318   0.0000       1.298290        35.3283 
 319   0.0000       1.306125        35.5415 
 320   0.0000       1.309482        35.6328 
 321   0.0000       1.323194        36.0059 
 322   0.0000       1.332201        36.2510 
 323   0.0000       1.336667        36.3726 
 324   0.0000       1.352253        36.7967 
 325   0.0000       1.355875        36.8952 
 326   0.0000       1.375911        37.4404 
 327   0.0000       1.377181        37.4750 
 328   0.0000       1.392962        37.9044 
 329   0.0000       1.406359        38.2690 
 330   0.0000       1.414727        38.4967 
 331   0.0000       1.422195        38.6999 
 332   0.0000       1.426986        38.8303 
 333   0.0000       1.435330        39.0573 
 334   0.0000       1.443963        39.2922 
 335   0.0000       1.471241        40.0345 
 336   0.0000       1.479026        40.2463 
 337   0.0000       1.482781        40.3485 
 338   0.0000       1.489839        40.5406 
 339   0.0000       1.509486        41.0752 
 340   0.0000       1.521385        41.3990 
 341   0.0000       1.526685        41.5432 
 342   0.0000       1.533026        41.7158 
 343   0.0000       1.542104        41.9628 
 344   0.0000       1.559311        42.4310 
 345   0.0000       1.575272        42.8653 
 346   0.0000       1.590002        43.2661 
 347   0.0000       1.597889        43.4808 
 348   0.0000       1.612088        43.8671 
 349   0.0000       1.617723        44.0205 
 350   0.0000       1.628071        44.3021 
 351   0.0000       1.651883        44.9500 
 352   0.0000       1.660362        45.1808 
 353   0.0000       1.672450        45.5097 
 354   0.0000       1.676920        45.6313 
 355   0.0000       1.685759        45.8718 
 356   0.0000       1.695735        46.1433 
 357   0.0000       1.721124        46.8342 
 358   0.0000       1.732692        47.1489 
 359   0.0000       1.745301        47.4921 
 360   0.0000       1.760788        47.9135 
 361   0.0000       1.766645        48.0729 
 362   0.0000       1.779417        48.4204 
 363   0.0000       1.787628        48.6438 
 364   0.0000       1.794376        48.8275 
 365   0.0000       1.817783        49.4644 
 366   0.0000       1.838623        50.0315 
 367   0.0000       1.840805        50.0909 
 368   0.0000       1.855285        50.4849 
 369   0.0000       1.867581        50.8194 
 370   0.0000       1.868779        50.8521 
 371   0.0000       1.880331        51.1664 
 372   0.0000       1.895075        51.5676 
 373   0.0000       1.897008        51.6202 
 374   0.0000       1.908948        51.9451 
 375   0.0000       1.912394        52.0389 
 376   0.0000       1.922526        52.3146 
 377   0.0000       1.928216        52.4694 
 378   0.0000       1.936852        52.7044 
 379   0.0000       1.945352        52.9357 
 380   0.0000       1.969730        53.5991 
 381   0.0000       1.971213        53.6394 
 382   0.0000       1.978288        53.8320 
 383   0.0000       1.991196        54.1832 
 384   0.0000       1.999588        54.4116 
 385   0.0000       2.006941        54.6116 
 386   0.0000       2.010367        54.7049 
 387   0.0000       2.022257        55.0284 
 388   0.0000       2.028514        55.1987 
 389   0.0000       2.032991        55.3205 
 390   0.0000       2.037755        55.4501 
 391   0.0000       2.042796        55.5873 
 392   0.0000       2.051609        55.8271 
 393   0.0000       2.055056        55.9209 
 394   0.0000       2.058605        56.0175 
 395   0.0000       2.075326        56.4725 
 396   0.0000       2.078968        56.5716 
 397   0.0000       2.090843        56.8947 
 398   0.0000       2.102348        57.2078 
 399   0.0000       2.105506        57.2937 
 400   0.0000       2.109200        57.3943 
 401   0.0000       2.119256        57.6679 
 402   0.0000       2.119925        57.6861 
 403   0.0000       2.126881        57.8754 
 404   0.0000       2.140207        58.2380 
 405   0.0000       2.142894        58.3111 
 406   0.0000       2.153063        58.5878 
 407   0.0000       2.164246        58.8921 
 408   0.0000       2.170053        59.0501 
 409   0.0000       2.174796        59.1792 
 410   0.0000       2.180744        59.3411 
 411   0.0000       2.185448        59.4691 
 412   0.0000       2.194795        59.7234 
 413   0.0000       2.203799        59.9684 
 414   0.0000       2.207021        60.0561 
 415   0.0000       2.224595        60.5343 
 416   0.0000       2.237377        60.8821 
 417   0.0000       2.247422        61.1555 
 418   0.0000       2.260988        61.5246 
 419   0.0000       2.268563        61.7307 
 420   0.0000       2.276803        61.9550 
 421   0.0000       2.285401        62.1889 
 422   0.0000       2.296660        62.4953 
 423   0.0000       2.309205        62.8367 
 424   0.0000       2.317279        63.0564 
 425   0.0000       2.331171        63.4344 
 426   0.0000       2.338978        63.6468 
 427   0.0000       2.351827        63.9965 
 428   0.0000       2.361137        64.2498 
 429   0.0000       2.374336        64.6090 
 430   0.0000       2.383638        64.8621 
 431   0.0000       2.395495        65.1847 
 432   0.0000       2.435448        66.2719 
 433   0.0000       2.440025        66.3965 
 434   0.0000       2.468710        67.1770 
 435   0.0000       2.485704        67.6395 
 436   0.0000       2.495167        67.8969 
 437   0.0000       2.502538        68.0975 
 438   0.0000       2.521772        68.6209 
 439   0.0000       2.530338        68.8540 
 440   0.0000       2.535427        68.9925 
 441   0.0000       2.562536        69.7301 
 442   0.0000       2.565879        69.8211 
 443   0.0000       2.573065        70.0167 
 444   0.0000       2.580033        70.2063 
 445   0.0000       2.594384        70.5968 
 446   0.0000       2.620793        71.3154 
 447   0.0000       2.628191        71.5167 
 448   0.0000       2.644009        71.9471 
 449   0.0000       2.656269        72.2807 
 450   0.0000       2.661359        72.4193 
 451   0.0000       2.675532        72.8049 
 452   0.0000       2.676931        72.8430 
 453   0.0000       2.701249        73.5047 
 454   0.0000       2.706395        73.6447 
 455   0.0000       2.729606        74.2764 
 456   0.0000       2.745583        74.7111 
 457   0.0000       2.754048        74.9415 
 458   0.0000       2.758416        75.0603 
 459   0.0000       2.770977        75.4021 
 460   0.0000       2.781397        75.6857 
 461   0.0000       2.788970        75.8917 
 462   0.0000       2.803868        76.2971 
 463   0.0000       2.820483        76.7492 
 464   0.0000       2.842366        77.3447 
 465   0.0000       2.865717        77.9801 
 466   0.0000       2.871190        78.1291 
 467   0.0000       2.890380        78.6512 
 468   0.0000       2.898944        78.8843 
 469   0.0000       2.921405        79.4955 
 470   0.0000       2.951464        80.3134 
 471   0.0000       2.960282        80.5534 
 472   0.0000       2.980866        81.1135 
 473   0.0000       2.998812        81.6018 
 474   0.0000       3.015512        82.0563 
 475   0.0000       3.021261        82.2127 
 476   0.0000       3.031704        82.4969 
 477   0.0000       3.069701        83.5308 
 478   0.0000       3.100121        84.3586 
 479   0.0000       3.107688        84.5645 
 480   0.0000       3.123922        85.0062 
 481   0.0000       3.152160        85.7746 
 482   0.0000       3.154065        85.8265 
 483   0.0000       3.165730        86.1439 
 484   0.0000       3.178828        86.5003 
 485   0.0000       3.193081        86.8881 
 486   0.0000       3.195426        86.9520 
 487   0.0000       3.217173        87.5437 
 488   0.0000       3.234402        88.0126 
 489   0.0000       3.249610        88.4264 
 490   0.0000       3.260699        88.7281 
 491   0.0000       3.271372        89.0186 
 492   0.0000       3.280978        89.2800 
 493   0.0000       3.287355        89.4535 
 494   0.0000       3.308978        90.0419 
 495   0.0000       3.310445        90.0818 
 496   0.0000       3.349666        91.1490 
 497   0.0000       3.359725        91.4228 
 498   0.0000       3.370946        91.7281 
 499   0.0000       3.380332        91.9835 
 500   0.0000       3.383643        92.0736 
 501   0.0000       3.398528        92.4787 
 502   0.0000       3.408555        92.7515 
 503   0.0000       3.424219        93.1777 
 504   0.0000       3.428581        93.2964 
 505   0.0000       3.450423        93.8908 
 506   0.0000       3.487028        94.8869 
 507   0.0000       3.563326        96.9630 
 508   0.0000       3.655593        99.4738 
 509   0.0000       3.716388       101.1280 
 510   0.0000       3.855040       104.9010 
 511   0.0000       3.899817       106.1194 

                    ********************************
                    * MULLIKEN POPULATION ANALYSIS *
                    ********************************

-----------------------
MULLIKEN ATOMIC CHARGES
-----------------------
   0 C :    1.009648
   1 C :    0.652582
   2 C :    0.101089
   3 H :    0.174710
   4 H :   -0.285896
   5 S :    1.617706
   6 C :    0.037476
   7 N :    0.287960
   8 C :    1.410599
   9 H :   -0.337756
  10 H :   -1.251341
  11 H :   -0.191214
  12 H :   -0.235176
  13 O :   -0.898236
  14 O :   -0.716805
  15 C :    0.526546
  16 C :    0.145634
  17 C :    0.435416
  18 H :    0.014475
  19 H :   -0.401064
  20 H :   -0.010405
  21 H :   -0.101038
  22 C :    0.045639
  23 H :   -0.187389
  24 H :   -0.714426
  25 C :    0.779371
  26 H :    0.105302
  27 H :   -0.410889
  28 C :    0.254420
  29 H :   -0.044352
  30 H :   -0.126024
  31 H :   -0.038034
  32 H :   -0.459646
  33 H :   -0.394866
  34 H :    0.028546
  35 F :   -0.562888
  36 H :   -0.214282
  37 H :   -0.045390
Sum of atomic charges:    0.0000000

--------------------------------
MULLIKEN REDUCED ORBITAL CHARGES
--------------------------------
  0 C s       :     2.214861  s :     2.214861
      pz      :     0.903696  p :     2.653711
      px      :     0.956803
      py      :     0.793212
      dz2     :     0.065194  d :     0.121780
      dxz     :     0.056599
      dyz     :     0.021960
      dx2y2   :     0.025834
      dxy     :    -0.047806
  1 C s       :     2.435065  s :     2.435065
      pz      :     0.797236  p :     2.586518
      px      :     0.885443
      py      :     0.903839
      dz2     :    -0.015384  d :     0.325834
      dxz     :     0.082600
      dyz     :     0.010672
      dx2y2   :     0.184882
      dxy     :     0.063065
  2 C s       :     2.767179  s :     2.767179
      pz      :     0.873947  p :     2.777228
      px      :     0.968496
      py      :     0.934785
      dz2     :     0.111291  d :     0.354504
      dxz     :     0.008315
      dyz     :     0.051082
      dx2y2   :     0.025189
      dxy     :     0.158627
  3 H s       :     0.761272  s :     0.761272
      pz      :    -0.008922  p :     0.064018
      px      :     0.038174
      py      :     0.034765
  4 H s       :     1.260203  s :     1.260203
      pz      :    -0.007725  p :     0.025694
      px      :     0.038792
      py      :    -0.005373
  5 S s       :     4.968997  s :     4.968997
      pz      :     3.095203  p :     8.696013
      px      :     2.857002
      py      :     2.743807
      dz2     :     0.166138  d :     0.717285
      dxz     :     0.166161
      dyz     :     0.056028
      dx2y2   :     0.166266
      dxy     :     0.162692
  6 C s       :     3.127157  s :     3.127157
      pz      :     0.844494  p :     2.390208
      px      :     0.644470
      py      :     0.901243
      dz2     :     0.086066  d :     0.445160
      dxz     :     0.049762
      dyz     :     0.035928
      dx2y2   :    -0.080329
      dxy     :     0.353732
  7 N s       :     3.105910  s :     3.105910
      pz      :     1.653449  p :     3.580878
      px      :     0.969149
      py      :     0.958280
      dz2     :    -0.001457  d :     0.025252
      dxz     :     0.011552
      dyz     :     0.012295
      dx2y2   :     0.004302
      dxy     :    -0.001440
  8 C s       :     2.472513  s :     2.472513
      pz      :     1.055759  p :     1.908298
      px      :     0.454934
      py      :     0.397605
      dz2     :     0.019676  d :     0.208589
      dxz     :    -0.026188
      dyz     :     0.041387
      dx2y2   :     0.015420
      dxy     :     0.158295
  9 H s       :     1.503989  s :     1.503989
      pz      :     0.055237  p :    -0.166232
      px      :    -0.094707
      py      :    -0.126762
 10 H s       :     2.228384  s :     2.228384
      pz      :     0.025703  p :     0.022956
      px      :    -0.011523
      py      :     0.008776
 11 H s       :     1.132250  s :     1.132250
      pz      :     0.087702  p :     0.058964
      px      :    -0.037943
      py      :     0.009206
 12 H s       :     1.197563  s :     1.197563
      pz      :     0.079323  p :     0.037612
      px      :     0.011850
      py      :    -0.053561
 13 O s       :     4.149557  s :     4.149557
      pz      :     1.764198  p :     4.714367
      px      :     1.488718
      py      :     1.461450
      dz2     :     0.004683  d :     0.034312
      dxz     :     0.001346
      dyz     :     0.006826
      dx2y2   :     0.012283
      dxy     :     0.009174
 14 O s       :     3.967650  s :     3.967650
      pz      :     1.651500  p :     4.717756
      px      :     1.370326
      py      :     1.695930
      dz2     :     0.010969  d :     0.031399
      dxz     :     0.003662
      dyz     :     0.002840
      dx2y2   :     0.006980
      dxy     :     0.006948
 15 C s       :     2.303284  s :     2.303284
      pz      :     0.954164  p :     2.533192
      px      :     0.756519
      py      :     0.822509
      dz2     :     0.281851  d :     0.636978
      dxz     :     0.054506
      dyz     :     0.101796
      dx2y2   :     0.097821
      dxy     :     0.101003
 16 C s       :     2.535790  s :     2.535790
      pz      :     0.916979  p :     2.672195
      px      :     0.889662
      py      :     0.865554
      dz2     :     0.030256  d :     0.646381
      dxz     :     0.244329
      dyz     :     0.089479
      dx2y2   :     0.153561
      dxy     :     0.128757
 17 C s       :     2.633460  s :     2.633460
      pz      :     0.766756  p :     2.554160
      px      :     0.798520
      py      :     0.988884
      dz2     :     0.008761  d :     0.376964
      dxz     :     0.026662
      dyz     :     0.057089
      dx2y2   :     0.137306
      dxy     :     0.147146
 18 H s       :     0.941737  s :     0.941737
      pz      :     0.033330  p :     0.043789
      px      :     0.011828
      py      :    -0.001370
 19 H s       :     1.415322  s :     1.415322
      pz      :     0.002828  p :    -0.014258
      px      :    -0.001026
      py      :    -0.016061
 20 H s       :     1.058009  s :     1.058009
      pz      :     0.024698  p :    -0.047604
      px      :    -0.033733
      py      :    -0.038569
 21 H s       :     1.115789  s :     1.115789
      pz      :    -0.035842  p :    -0.014751
      px      :    -0.025355
      py      :     0.046446
 22 C s       :     2.847892  s :     2.847892
      pz      :     0.961273  p :     2.570281
      px      :     0.942673
      py      :     0.666334
      dz2     :     0.224421  d :     0.536188
      dxz     :     0.090398
      dyz     :    -0.008438
      dx2y2   :     0.215012
      dxy     :     0.014796
 23 H s       :     1.179104  s :     1.179104
      pz      :    -0.012488  p :     0.008285
      px      :     0.050196
      py      :    -0.029423
 24 H s       :     1.507397  s :     1.507397
      pz      :    -0.007596  p :     0.207028
      px      :     0.074127
      py      :     0.140497
 25 C s       :     2.412600  s :     2.412600
      pz      :     0.857693  p :     2.578177
      px      :     0.792018
      py      :     0.928466
      dz2     :     0.047921  d :     0.229852
      dxz     :    -0.022393
      dyz     :     0.062545
      dx2y2   :     0.009638
      dxy     :     0.132142
 26 H s       :     0.888294  s :     0.888294
      pz      :    -0.023196  p :     0.006404
      px      :     0.077578
      py      :    -0.047978
 27 H s       :     1.378737  s :     1.378737
      pz      :    -0.012881  p :     0.032152
      px      :    -0.028551
      py      :     0.073584
 28 C s       :     2.691883  s :     2.691883
      pz      :     0.734484  p :     2.549911
      px      :     0.884511
      py      :     0.930916
      dz2     :     0.019698  d :     0.503786
      dxz     :     0.160828
      dyz     :     0.044117
      dx2y2   :     0.155131
      dxy     :     0.124011
 29 H s       :     1.067482  s :     1.067482
      pz      :    -0.034796  p :    -0.023130
      px      :     0.015900
      py      :    -0.004234
 30 H s       :     1.158698  s :     1.158698
      pz      :     0.031881  p :    -0.032673
      px      :    -0.044876
      py      :    -0.019679
 31 H s       :     1.029732  s :     1.029732
      pz      :     0.020542  p :     0.008302
      px      :    -0.001714
      py      :    -0.010526
 32 H s       :     1.217495  s :     1.217495
      pz      :     0.143030  p :     0.242151
      px      :     0.009289
      py      :     0.089832
 33 H s       :     1.396055  s :     1.396055
      pz      :     0.011211  p :    -0.001189
      px      :     0.004513
      py      :    -0.016912
 34 H s       :     0.980224  s :     0.980224
      pz      :    -0.011741  p :    -0.008771
      px      :     0.018920
      py      :    -0.015949
 35 F s       :     4.054771  s :     4.054771
      pz      :     1.954834  p :     5.489464
      px      :     1.923582
      py      :     1.611048
      dz2     :     0.002505  d :     0.018653
      dxz     :     0.001518
      dyz     :     0.005957
      dx2y2   :     0.005152
      dxy     :     0.003521
 36 H s       :     1.222049  s :     1.222049
      pz      :     0.026011  p :    -0.007767
      px      :    -0.002812
      py      :    -0.030966
 37 H s       :     1.017624  s :     1.017624
      pz      :    -0.030710  p :     0.027766
      px      :     0.018178
      py      :     0.040298


                     *******************************
                     * LOEWDIN POPULATION ANALYSIS *
                     *******************************

----------------------
LOEWDIN ATOMIC CHARGES
----------------------
   0 C :    0.013782
   1 C :   -0.030983
   2 C :   -0.034560
   3 H :    0.032223
   4 H :    0.032039
   5 S :    1.183848
   6 C :   -0.240706
   7 N :    0.173588
   8 C :    0.182854
   9 H :   -0.159654
  10 H :   -0.098332
  11 H :   -0.022932
  12 H :   -0.004010
  13 O :   -0.465970
  14 O :   -0.453318
  15 C :   -0.018640
  16 C :   -0.031067
  17 C :   -0.030404
  18 H :    0.010911
  19 H :    0.029679
  20 H :    0.035887
  21 H :    0.025020
  22 C :   -0.031942
  23 H :    0.026979
  24 H :   -0.003850
  25 C :   -0.032688
  26 H :    0.013274
  27 H :    0.021766
  28 C :   -0.030997
  29 H :    0.020784
  30 H :    0.019642
  31 H :    0.037660
  32 H :   -0.012939
  33 H :    0.022657
  34 H :    0.020477
  35 F :   -0.241207
  36 H :    0.030099
  37 H :    0.011031

-------------------------------
LOEWDIN REDUCED ORBITAL CHARGES
-------------------------------
  0 C s       :     2.679731  s :     2.679731
      pz      :     0.901171  p :     2.673541
      px      :     0.884469
      py      :     0.887901
      dz2     :     0.143203  d :     0.632946
      dxz     :     0.151985
      dyz     :     0.070533
      dx2y2   :     0.161336
      dxy     :     0.105888
  1 C s       :     2.675403  s :     2.675403
      pz      :     0.890969  p :     2.697216
      px      :     0.897818
      py      :     0.908429
      dz2     :     0.120328  d :     0.658364
      dxz     :     0.173930
      dyz     :     0.062833
      dx2y2   :     0.171034
      dxy     :     0.130239
  2 C s       :     2.710478  s :     2.710478
      pz      :     0.819138  p :     2.708571
      px      :     0.931118
      py      :     0.958314
      dz2     :     0.198894  d :     0.615511
      dxz     :     0.129967
      dyz     :     0.085446
      dx2y2   :     0.070148
      dxy     :     0.131056
  3 H s       :     0.693037  s :     0.693037
      pz      :     0.063558  p :     0.274740
      px      :     0.079606
      py      :     0.131577
  4 H s       :     0.715533  s :     0.715533
      pz      :     0.061014  p :     0.252429
      px      :     0.099474
      py      :     0.091941
  5 S s       :     4.660849  s :     4.660849
      pz      :     2.833858  p :     8.363914
      px      :     2.811292
      py      :     2.718764
      dz2     :     0.379579  d :     1.791390
      dxz     :     0.335245
      dyz     :     0.256172
      dx2y2   :     0.402156
      dxy     :     0.418238
  6 C s       :     2.655412  s :     2.655412
      pz      :     0.740430  p :     2.571020
      px      :     0.863157
      py      :     0.967433
      dz2     :     0.093147  d :     1.014274
      dxz     :     0.149575
      dyz     :     0.213139
      dx2y2   :     0.256607
      dxy     :     0.301806
  7 N s       :     2.920093  s :     2.920093
      pz      :     1.402454  p :     3.538290
      px      :     1.071735
      py      :     1.064100
      dz2     :     0.036972  d :     0.368029
      dxz     :     0.042508
      dyz     :     0.047832
      dx2y2   :     0.157718
      dxy     :     0.082999
  8 C s       :     2.693853  s :     2.693853
      pz      :     0.856055  p :     2.705554
      px      :     0.916264
      py      :     0.933234
      dz2     :     0.051129  d :     0.417740
      dxz     :     0.017118
      dyz     :     0.076241
      dx2y2   :     0.107853
      dxy     :     0.165399
  9 H s       :     0.648548  s :     0.648548
      pz      :     0.124521  p :     0.511107
      px      :     0.172871
      py      :     0.213715
 10 H s       :     0.736466  s :     0.736466
      pz      :     0.101090  p :     0.361866
      px      :     0.130234
      py      :     0.130542
 11 H s       :     0.663820  s :     0.663820
      pz      :     0.133203  p :     0.359111
      px      :     0.082126
      py      :     0.143782
 12 H s       :     0.660021  s :     0.660021
      pz      :     0.122614  p :     0.343989
      px      :     0.133588
      py      :     0.087787
 13 O s       :     3.509736  s :     3.509736
      pz      :     1.637676  p :     4.623058
      px      :     1.547256
      py      :     1.438126
      dz2     :     0.045339  d :     0.333175
      dxz     :     0.047022
      dyz     :     0.050729
      dx2y2   :     0.084956
      dxy     :     0.105130
 14 O s       :     3.541616  s :     3.541616
      pz      :     1.605919  p :     4.636490
      px      :     1.471971
      py      :     1.558600
      dz2     :     0.056648  d :     0.275212
      dxz     :     0.060709
      dyz     :     0.026145
      dx2y2   :     0.074868
      dxy     :     0.056841
 15 C s       :     2.672689  s :     2.672689
      pz      :     0.873885  p :     2.665450
      px      :     0.886052
      py      :     0.905513
      dz2     :     0.198640  d :     0.680500
      dxz     :     0.143570
      dyz     :     0.130466
      dx2y2   :     0.130006
      dxy     :     0.077818
 16 C s       :     2.671544  s :     2.671544
      pz      :     0.900281  p :     2.667579
      px      :     0.897915
      py      :     0.869383
      dz2     :     0.082952  d :     0.691944
      dxz     :     0.156464
      dyz     :     0.117637
      dx2y2   :     0.169343
      dxy     :     0.165548
 17 C s       :     2.673760  s :     2.673760
      pz      :     0.911538  p :     2.679983
      px      :     0.880741
      py      :     0.887703
      dz2     :     0.085418  d :     0.676661
      dxz     :     0.144283
      dyz     :     0.120437
      dx2y2   :     0.151553
      dxy     :     0.174970
 18 H s       :     0.705631  s :     0.705631
      pz      :     0.134766  p :     0.283459
      px      :     0.082904
      py      :     0.065790
 19 H s       :     0.728216  s :     0.728216
      pz      :     0.097828  p :     0.242104
      px      :     0.080848
      py      :     0.063428
 20 H s       :     0.717920  s :     0.717920
      pz      :     0.110496  p :     0.246194
      px      :     0.070133
      py      :     0.065564
 21 H s       :     0.721836  s :     0.721836
      pz      :     0.073943  p :     0.253144
      px      :     0.065199
      py      :     0.114002
 22 C s       :     2.680391  s :     2.680391
      pz      :     0.879571  p :     2.676755
      px      :     0.904307
      py      :     0.892877
      dz2     :     0.200791  d :     0.674796
      dxz     :     0.156023
      dyz     :     0.112781
      dx2y2   :     0.137674
      dxy     :     0.067526
 23 H s       :     0.727112  s :     0.727112
      pz      :     0.061259  p :     0.245909
      px      :     0.111925
      py      :     0.072725
 24 H s       :     0.698679  s :     0.698679
      pz      :     0.071332  p :     0.305171
      px      :     0.084923
      py      :     0.148916
 25 C s       :     2.684050  s :     2.684050
      pz      :     0.896262  p :     2.684942
      px      :     0.901552
      py      :     0.887128
      dz2     :     0.137236  d :     0.663696
      dxz     :     0.100773
      dyz     :     0.141186
      dx2y2   :     0.122458
      dxy     :     0.162043
 26 H s       :     0.712098  s :     0.712098
      pz      :     0.066463  p :     0.274628
      px      :     0.111389
      py      :     0.096777
 27 H s       :     0.729586  s :     0.729586
      pz      :     0.061410  p :     0.248648
      px      :     0.065078
      py      :     0.122160
 28 C s       :     2.679263  s :     2.679263
      pz      :     0.901430  p :     2.676904
      px      :     0.894061
      py      :     0.881414
      dz2     :     0.078858  d :     0.674829
      dxz     :     0.151612
      dyz     :     0.114637
      dx2y2   :     0.169330
      dxy     :     0.160392
 29 H s       :     0.728956  s :     0.728956
      pz      :     0.068124  p :     0.250261
      px      :     0.107838
      py      :     0.074299
 30 H s       :     0.730680  s :     0.730680
      pz      :     0.106394  p :     0.249677
      px      :     0.078525
      py      :     0.064758
 31 H s       :     0.726379  s :     0.726379
      pz      :     0.105944  p :     0.235961
      px      :     0.071696
      py      :     0.058321
 32 H s       :     0.693171  s :     0.693171
      pz      :     0.124703  p :     0.319767
      px      :     0.098909
      py      :     0.096155
 33 H s       :     0.731475  s :     0.731475
      pz      :     0.102052  p :     0.245868
      px      :     0.081135
      py      :     0.062682
 34 H s       :     0.712316  s :     0.712316
      pz      :     0.120799  p :     0.267208
      px      :     0.077244
      py      :     0.069164
 35 F s       :     3.693350  s :     3.693350
      pz      :     1.831638  p :     5.312485
      px      :     1.827776
      py      :     1.653070
      dz2     :     0.034404  d :     0.235372
      dxz     :     0.015831
      dyz     :     0.057167
      dx2y2   :     0.059114
      dxy     :     0.068856
 36 H s       :     0.722441  s :     0.722441
      pz      :     0.104517  p :     0.247460
      px      :     0.074377
      py      :     0.068566
 37 H s       :     0.727851  s :     0.727851
      pz      :     0.071316  p :     0.261119
      px      :     0.068422
      py      :     0.121380


                      *****************************
                      * MAYER POPULATION ANALYSIS *
                      *****************************

  NA   - Mulliken gross atomic population
  ZA   - Total nuclear charge
  QA   - Mulliken gross atomic charge
  VA   - Mayer's total valence
  BVA  - Mayer's bonded valence
  FA   - Mayer's free valence

  ATOM       NA         ZA         QA         VA         BVA        FA
  0 C      4.9904     6.0000     1.0096     3.4317     3.4317     0.0000
  1 C      5.3474     6.0000     0.6526     4.0364     4.0364     0.0000
  2 C      5.8989     6.0000     0.1011     4.4735     4.4735    -0.0000
  3 H      0.8253     1.0000     0.1747     1.0665     1.0665     0.0000
  4 H      1.2859     1.0000    -0.2859     1.0805     1.0805    -0.0000
  5 S     14.3823    16.0000     1.6177     4.6727     4.6727     0.0000
  6 C      5.9625     6.0000     0.0375     4.0538     4.0538    -0.0000
  7 N      6.7120     7.0000     0.2880     3.9088     3.9088     0.0000
  8 C      4.5894     6.0000     1.4106     2.3788     2.3788     0.0000
  9 H      1.3378     1.0000    -0.3378    -0.0742    -0.0742     0.0000
 10 H      2.2513     1.0000    -1.2513    -0.4429    -0.4429     0.0000
 11 H      1.1912     1.0000    -0.1912     1.0067     1.0067     0.0000
 12 H      1.2352     1.0000    -0.2352     0.9431     0.9431     0.0000
 13 O      8.8982     8.0000    -0.8982     1.8986     1.8986    -0.0000
 14 O      8.7168     8.0000    -0.7168     1.7460     1.7460     0.0000
 15 C      5.4735     6.0000     0.5265     4.5904     4.5904    -0.0000
 16 C      5.8544     6.0000     0.1456     5.0945     5.0945    -0.0000
 17 C      5.5646     6.0000     0.4354     4.6728     4.6728    -0.0000
 18 H      0.9855     1.0000     0.0145     1.0462     1.0462    -0.0000
 19 H      1.4011     1.0000    -0.4011     0.8812     0.8812    -0.0000
 20 H      1.0104     1.0000    -0.0104     0.8539     0.8539    -0.0000
 21 H      1.1010     1.0000    -0.1010     1.0031     1.0031    -0.0000
 22 C      5.9544     6.0000     0.0456     5.0249     5.0249     0.0000
 23 H      1.1874     1.0000    -0.1874     1.0383     1.0383     0.0000
 24 H      1.7144     1.0000    -0.7144     1.1935     1.1935     0.0000
 25 C      5.2206     6.0000     0.7794     3.8016     3.8016    -0.0000
 26 H      0.8947     1.0000     0.1053     1.0539     1.0539    -0.0000
 27 H      1.4109     1.0000    -0.4109     1.0972     1.0972     0.0000
 28 C      5.7456     6.0000     0.2544     4.8209     4.8209     0.0000
 29 H      1.0444     1.0000    -0.0444     0.9330     0.9330     0.0000
 30 H      1.1260     1.0000    -0.1260     0.9203     0.9203     0.0000
 31 H      1.0380     1.0000    -0.0380     0.9803     0.9803    -0.0000
 32 H      1.4596     1.0000    -0.4596     1.4572     1.4572    -0.0000
 33 H      1.3949     1.0000    -0.3949     0.9689     0.9689     0.0000
 34 H      0.9715     1.0000     0.0285     1.0300     1.0300    -0.0000
 35 F      9.5629     9.0000    -0.5629     0.7496     0.7496     0.0000
 36 H      1.2143     1.0000    -0.2143     0.9561     0.9561     0.0000
 37 H      1.0454     1.0000    -0.0454     0.9396     0.9396    -0.0000

  Mayer bond orders larger than 0.100000
B(  0-C ,  6-C ) :   0.9447 B(  0-C ,  8-C ) :   0.1761 B(  0-C ,  9-H ) :  -0.1573 
B(  0-C , 15-C ) :   1.1772 B(  0-C , 24-H ) :   0.1267 B(  0-C , 36-H ) :   0.4803 
B(  0-C , 37-H ) :   0.6310 B(  1-C ,  2-C ) :   1.2020 B(  1-C ,  4-H ) :   0.1681 
B(  1-C , 17-C ) :   1.1851 B(  1-C , 20-H ) :   0.6744 B(  1-C , 21-H ) :   0.6039 
B(  2-C ,  3-H ) :   0.8317 B(  2-C ,  4-H ) :   0.7929 B(  2-C ,  5-S ) :   0.9951 
B(  2-C , 20-H ) :   0.1995 B(  2-C , 21-H ) :   0.1177 B(  2-C , 35-F ) :   0.1287 
B(  4-H ,  5-S ) :   0.1277 B(  5-S , 13-O ) :   1.2817 B(  5-S , 14-O ) :   1.4766 
B(  5-S , 35-F ) :   0.5314 B(  6-C ,  7-N ) :   0.8831 B(  6-C ,  8-C ) :   2.0151 
B(  6-C ,  9-H ) :  -0.2339 B(  6-C , 10-H ) :   0.1813 B(  6-C , 12-H ) :  -0.1480 
B(  6-C , 36-H ) :   0.3008 B(  6-C , 37-H ) :   0.1355 B(  7-N ,  8-C ) :   0.4896 
B(  7-N ,  9-H ) :   0.1161 B(  7-N , 10-H ) :  -0.1223 B(  7-N , 11-H ) :   1.1332 
B(  7-N , 12-H ) :   1.2980 B(  8-C ,  9-H ) :   0.2652 B(  8-C , 10-H ) :  -0.5657 
B(  8-C , 14-O ) :  -0.2331 B(  8-C , 24-H ) :   0.1731 B(  9-H , 10-H ) :  -0.2184 
B(  9-H , 24-H ) :   0.1376 B( 10-H , 14-O ) :   0.3617 B( 10-H , 24-H ) :  -0.1550 
B( 11-H , 12-H ) :  -0.1622 B( 13-O , 14-O ) :   0.1507 B( 13-O , 24-H ) :   0.1821 
B( 15-C , 22-C ) :   1.1659 B( 15-C , 23-H ) :   0.6793 B( 15-C , 24-H ) :   0.5036 
B( 15-C , 26-H ) :   0.1455 B( 15-C , 27-H ) :   0.1982 B( 15-C , 36-H ) :   0.3457 
B( 15-C , 37-H ) :   0.1932 B( 16-C , 17-C ) :   1.1844 B( 16-C , 18-H ) :   0.1473 
B( 16-C , 19-H ) :   0.1670 B( 16-C , 28-C ) :   1.2103 B( 16-C , 31-H ) :   0.7276 
B( 16-C , 32-H ) :   0.9238 B( 16-C , 33-H ) :   0.2210 B( 16-C , 34-H ) :   0.1613 
B( 17-C , 18-H ) :   0.8176 B( 17-C , 19-H ) :   0.7790 B( 17-C , 20-H ) :   0.1068 
B( 17-C , 21-H ) :   0.2826 B( 17-C , 28-C ) :   0.1608 B( 17-C , 31-H ) :   0.1036 
B( 20-H , 21-H ) :  -0.1249 B( 22-C , 23-H ) :   0.1681 B( 22-C , 24-H ) :   0.2227 
B( 22-C , 25-C ) :   1.0665 B( 22-C , 26-H ) :   0.8290 B( 22-C , 27-H ) :   1.0098 
B( 22-C , 28-C ) :   0.1484 B( 22-C , 29-H ) :   0.1691 B( 22-C , 30-H ) :   0.2782 
B( 25-C , 28-C ) :   1.1036 B( 25-C , 29-H ) :   0.6109 B( 25-C , 30-H ) :   0.6363 
B( 26-H , 32-H ) :   0.1733 B( 28-C , 29-H ) :   0.2521 B( 28-C , 30-H ) :   0.1234 
B( 28-C , 31-H ) :   0.1202 B( 28-C , 33-H ) :   0.8983 B( 28-C , 34-H ) :   0.7950 
B( 29-H , 30-H ) :  -0.1268 B( 31-H , 32-H ) :   0.1243 B( 36-H , 37-H ) :  -0.1458 


-------
TIMINGS
-------

Total SCF time: 0 days 0 hours 7 min 11 sec 

Total time                  ....     431.754 sec
Sum of individual times     ....     429.934 sec  ( 99.6%)

Fock matrix formation       ....     422.150 sec  ( 97.8%)
  Split-RI-J                ....      16.906 sec  (  4.0% of F)
  Chain of spheres X        ....     375.416 sec  ( 88.9% of F)
  XC integration            ....      29.512 sec  (  7.0% of F)
    Basis function eval.    ....       7.716 sec  ( 26.1% of XC)
    Density eval.           ....      10.160 sec  ( 34.4% of XC)
    XC-Functional eval.     ....       1.771 sec  (  6.0% of XC)
    XC-Potential eval.      ....       8.938 sec  ( 30.3% of XC)
Diagonalization             ....       0.708 sec  (  0.2%)
Density matrix formation    ....       0.057 sec  (  0.0%)
Population analysis         ....       0.095 sec  (  0.0%)
Initial guess               ....       1.376 sec  (  0.3%)
Orbital Transformation      ....       0.000 sec  (  0.0%)
Orbital Orthonormalization  ....       0.000 sec  (  0.0%)
DIIS solution               ....       0.412 sec  (  0.1%)
SOSCF solution              ....       0.528 sec  (  0.1%)
Grid generation             ....       4.608 sec  (  1.1%)

Maximum memory used throughout the entire SCF-calculation: 106.5 MB

-------------------------   --------------------
FINAL SINGLE POINT ENERGY     -1134.542373160644
-------------------------   --------------------


                            ***************************************
                            *     ORCA property calculations      *
                            ***************************************

                                    ---------------------
                                    Active property flags
                                    ---------------------
   (+) Dipole Moment


------------------------------------------------------------------------------
                       ORCA ELECTRIC PROPERTIES CALCULATION
------------------------------------------------------------------------------

Dipole Moment Calculation                       ... on
Quadrupole Moment Calculation                   ... off
Polarizability Calculation                      ... off
GBWName                                         ... 28Oct_SVPD_CAMB3LYP_D6_wb97.gbw
Electron density file                           ... 28Oct_SVPD_CAMB3LYP_D6_wb97.scfp
The origin for moment calculation is the CENTER OF MASS  = ( 9.472241, -9.324482 -8.805796)

-------------
DIPOLE MOMENT
-------------
                                X             Y             Z
Electronic contribution:     -8.83531     -21.52468     -13.96650
Nuclear contribution   :      8.67311      20.60825      15.35056
                        -----------------------------------------
Total Dipole Moment    :     -0.16220      -0.91643       1.38406
                        -----------------------------------------
Magnitude (a.u.)       :      1.66787
Magnitude (Debye)      :      4.23939



--------------------
Rotational spectrum 
--------------------
 
Rotational constants in cm-1:     0.017976     0.012151     0.008188 
Rotational constants in MHz :   538.898457   364.286417   245.482451 

 Dipole components along the rotational axes: 
x,y,z [a.u.] :    -1.038233    -1.067689     0.750935 
x,y,z [Debye]:    -2.638978    -2.713851     1.908724 

 

Timings for individual modules:

Sum of individual times         ...      433.047 sec (=   7.217 min)
GTO integral calculation        ...        0.917 sec (=   0.015 min)   0.2 %
SCF iterations                  ...      432.129 sec (=   7.202 min)  99.8 %
                             ****ORCA TERMINATED NORMALLY****
TOTAL RUN TIME: 0 days 0 hours 7 minutes 13 seconds 645 msec
