
                                        *****************
                                        * O   R   C   A *
                                        *****************

                                            #,                                       
                                            ###                                      
                                            ####                                     
                                            #####                                    
                                            ######                                   
                                           ########,                                 
                                     ,,################,,,,,                         
                               ,,#################################,,                 
                          ,,##########################################,,             
                       ,#########################################, ''#####,          
                    ,#############################################,,   '####,        
                  ,##################################################,,,,####,       
                ,###########''''           ''''###############################       
              ,#####''   ,,,,##########,,,,          '''####'''          '####       
            ,##' ,,,,###########################,,,                        '##       
           ' ,,###''''                  '''############,,,                           
         ,,##''                                '''############,,,,        ,,,,,,###''
      ,#''                                            '''#######################'''  
     '                                                          ''''####''''         
             ,#######,   #######,   ,#######,      ##                                
            ,#'     '#,  ##    ##  ,#'     '#,    #''#        ######   ,####,        
            ##       ##  ##   ,#'  ##            #'  '#       #        #'  '#        
            ##       ##  #######   ##           ,######,      #####,   #    #        
            '#,     ,#'  ##    ##  '#,     ,#' ,#      #,         ##   #,  ,#        
             '#######'   ##     ##  '#######'  #'      '#     #####' # '####'        



                  #######################################################
                  #                        -***-                        #
                  #          Department of theory and spectroscopy      #
                  #    Directorship and core code : Frank Neese         #
                  #        Max Planck Institute fuer Kohlenforschung    #
                  #                Kaiser Wilhelm Platz 1               #
                  #                 D-45470 Muelheim/Ruhr               #
                  #                      Germany                        #
                  #                                                     #
                  #                  All rights reserved                #
                  #                        -***-                        #
                  #######################################################


                         Program Version 5.0.0 -  RELEASE  -
                                (SVN: $Rev: 19529$)
                ($Date: 2021-06-28 11:36:33 +0200 (Mo, 28 Jun 2021) $)


 With contributions from (in alphabetic order):
   Daniel Aravena         : Magnetic Suceptibility
   Michael Atanasov       : Ab Initio Ligand Field Theory (pilot matlab implementation)
   Alexander A. Auer      : GIAO ZORA, VPT2 properties, NMR spectrum
   Ute Becker             : Parallelization
   Giovanni Bistoni       : ED, misc. LED, open-shell LED, HFLD
   Martin Brehm           : Molecular dynamics
   Dmytro Bykov           : SCF Hessian
   Vijay G. Chilkuri      : MRCI spin determinant printing, contributions to CSF-ICE
   Dipayan Datta          : RHF DLPNO-CCSD density
   Achintya Kumar Dutta   : EOM-CC, STEOM-CC
   Dmitry Ganyushin       : Spin-Orbit,Spin-Spin,Magnetic field MRCI
   Miquel Garcia          : C-PCM Hessian, Gaussian charge scheme
   Yang Guo               : DLPNO-NEVPT2, F12-NEVPT2, CIM, IAO-localization
   Andreas Hansen         : Spin unrestricted coupled pair/coupled cluster methods
   Benjamin Helmich-Paris : MC-RPA, TRAH-SCF, COSX integrals
   Lee Huntington         : MR-EOM, pCC
   Robert Izsak           : Overlap fitted RIJCOSX, COSX-SCS-MP3, EOM
   Marcus Kettner         : VPT2
   Christian Kollmar      : KDIIS, OOCD, Brueckner-CCSD(T), CCSD density, CASPT2, CASPT2-K
   Simone Kossmann        : Meta GGA functionals, TD-DFT gradient, OOMP2, MP2 Hessian
   Martin Krupicka        : Initial AUTO-CI
   Lucas Lang             : DCDCAS
   Marvin Lechner         : AUTO-CI (C++ implementation), FIC-MRCC
   Dagmar Lenk            : GEPOL surface, SMD
   Dimitrios Liakos       : Extrapolation schemes; Compound Job, initial MDCI parallelization
   Dimitrios Manganas     : Further ROCIS development; embedding schemes
   Dimitrios Pantazis     : SARC Basis sets
   Anastasios Papadopoulos: AUTO-CI, single reference methods and gradients
   Taras Petrenko         : DFT Hessian,TD-DFT gradient, ASA, ECA, R-Raman, ABS, FL, XAS/XES, NRVS
   Peter Pinski           : DLPNO-MP2, DLPNO-MP2 Gradient
   Christoph Reimann      : Effective Core Potentials
   Marius Retegan         : Local ZFS, SOC
   Christoph Riplinger    : Optimizer, TS searches, QM/MM, DLPNO-CCSD(T), (RO)-DLPNO pert. Triples
   Tobias Risthaus        : Range-separated hybrids, TD-DFT gradient, RPA, STAB
   Michael Roemelt        : Original ROCIS implementation
   Masaaki Saitow         : Open-shell DLPNO-CCSD energy and density
   Barbara Sandhoefer     : DKH picture change effects
   Avijit Sen             : IP-ROCIS
   Kantharuban Sivalingam : CASSCF convergence, NEVPT2, FIC-MRCI
   Bernardo de Souza      : ESD, SOC TD-DFT
   Georgi Stoychev        : AutoAux, RI-MP2 NMR
   Willem Van den Heuvel  : Paramagnetic NMR
   Boris Wezisla          : Elementary symmetry handling
   Frank Wennmohs         : Technical directorship


 We gratefully acknowledge several colleagues who have allowed us to
 interface, adapt or use parts of their codes:
   Stefan Grimme, W. Hujo, H. Kruse, P. Pracht,  : VdW corrections, initial TS optimization,
                  C. Bannwarth, S. Ehlert          DFT functionals, gCP, sTDA/sTD-DF
   Ed Valeev, F. Pavosevic, A. Kumar             : LibInt (2-el integral package), F12 methods
   Garnet Chan, S. Sharma, J. Yang, R. Olivares  : DMRG
   Ulf Ekstrom                                   : XCFun DFT Library
   Mihaly Kallay                                 : mrcc  (arbitrary order and MRCC methods)
   Jiri Pittner, Ondrej Demel                    : Mk-CCSD
   Frank Weinhold                                : gennbo (NPA and NBO analysis)
   Christopher J. Cramer and Donald G. Truhlar   : smd solvation model
   Lars Goerigk                                  : TD-DFT with DH, B97 family of functionals
   V. Asgeirsson, H. Jonsson                     : NEB implementation
   FAccTs GmbH                                   : IRC, NEB, NEB-TS, DLPNO-Multilevel, CI-OPT
                                                   MM, QMMM, 2- and 3-layer-ONIOM, Crystal-QMMM,
                                                   LR-CPCM, SF, NACMEs, symmetry and pop. for TD-DFT,
                                                   nearIR, NL-DFT gradient (VV10), updates on ESD,
                                                   ML-optimized integration grids
   S Lehtola, MJT Oliveira, MAL Marques          : LibXC Library
   Liviu Ungur et al                             : ANISO software


 Your calculation uses the libint2 library for the computation of 2-el integrals
 For citations please refer to: http://libint.valeyev.net

 Your ORCA version has been built with support for libXC version: 5.1.0
 For citations please refer to: https://tddft.org/programs/libxc/

 This ORCA versions uses:
   CBLAS   interface :  Fast vector & matrix operations
   LAPACKE interface :  Fast linear algebra routines
   SCALAPACK package :  Parallel linear algebra routines
   Shared memory     :  Shared parallel matrices
   BLAS/LAPACK       :  OpenBLAS 0.3.15  USE64BITINT DYNAMIC_ARCH NO_AFFINITY Haswell SINGLE_THREADED
        Core in use  :  Haswell
   Copyright (c) 2011-2014, The OpenBLAS Project


Your calculation utilizes the atom-pairwise dispersion correction
with the zero-damping scheme (D30)
Cite in your paper:
S.Grimme, J.Antony, S.Ehrlich and H.Krieg, J.Chem.Phys., 132, (2010), 154104 
   

XCFun DFT library Copyright 2009-2010 Ulf Ekstrom and contributors.
See http://admol.org/xcfun for more information.
This is free software; see the source code for copying conditions.
There is ABSOLUTELY NO WARRANTY; not even for MERCHANTABILITY or FITNESS FOR A PARTICULAR PURPOSE.
For details see the documentation.
Scientific users of this library should cite U. Ekstrom, L. Visscher, R. Bast, A. J. Thorvaldsen and K. Ruud;
J.Chem.Theor.Comp. 2010, DOI: 10.1021/ct100117s
XCFun Version 0.99 

================================================================================

----- Orbital basis set information -----
Your calculation utilizes the basis: def2-SVP
   F. Weigend and R. Ahlrichs, Phys. Chem. Chem. Phys. 7, 3297 (2005).

----- AuxJ basis set information -----
Your calculation utilizes the auxiliary basis: def2/J
   F. Weigend, Phys. Chem. Chem. Phys. 8, 1057 (2006).

================================================================================
                                        WARNINGS
                       Please study these warnings very carefully!
================================================================================


INFO   : the flag for use of the SHARK integral package has been found!

================================================================================
                                       INPUT FILE
================================================================================
NAME = C1_neg.com
|  1> !wB97X-D3 RIJCOSX def2-SVP def2/J TightSCF 
|  2> *xyz 0 1
|  3> C          1.69499        1.54179       -5.57045
|  4> S          1.78029       -0.03313       -6.42874
|  5> F          2.56929        0.21366       -7.60736
|  6> O          0.41688       -0.46297       -6.61859
|  7> O          2.50513       -0.93326       -5.48257
|  8> H          1.18489        2.25500       -6.18367
|  9> H          2.68564        1.89081       -5.36624
| 10> H          1.16361        1.41804       -4.65000
| 11> *
| 12> %MaxCore 64000
| 13> 
| 14> %pal nprocs 8
| 15> end  
| 16> 
| 17> %scf
| 18>   MaxIter 150
| 19> end
| 20> 
| 21> 
| 22>                          ****END OF INPUT****
================================================================================

                       ****************************
                       * Single Point Calculation *
                       ****************************

---------------------------------
CARTESIAN COORDINATES (ANGSTROEM)
---------------------------------
  C      1.694990    1.541790   -5.570450
  S      1.780290   -0.033130   -6.428740
  F      2.569290    0.213660   -7.607360
  O      0.416880   -0.462970   -6.618590
  O      2.505130   -0.933260   -5.482570
  H      1.184890    2.255000   -6.183670
  H      2.685640    1.890810   -5.366240
  H      1.163610    1.418040   -4.650000

----------------------------
CARTESIAN COORDINATES (A.U.)
----------------------------
  NO LB      ZA    FRAG     MASS         X           Y           Z
   0 C     6.0000    0    12.011    3.203067    2.913561  -10.526625
   1 S    16.0000    0    32.060    3.364261   -0.062607  -12.148558
   2 F     9.0000    0    18.998    4.855254    0.403759  -14.375827
   3 O     8.0000    0    15.999    0.787789   -0.874887  -12.507322
   4 O     8.0000    0    15.999    4.734010   -1.763606  -10.360556
   5 H     1.0000    0     1.008    2.239118    4.261332  -11.685443
   6 H     1.0000    0     1.008    5.075124    3.573113  -10.140724
   7 H     1.0000    0     1.008    2.198904    2.679707   -8.787227

--------------------------------
INTERNAL COORDINATES (ANGSTROEM)
--------------------------------
 C      0   0   0     0.000000000000     0.00000000     0.00000000
 S      1   0   0     1.795636605914     0.00000000     0.00000000
 F      2   1   0     1.439642805872   105.48605342     0.00000000
 O      2   1   3     1.442113822207   106.22673339   234.59550751
 O      2   1   3     1.493607951037   104.40866289   116.90763824
 H      1   2   3     1.070004337608   109.47100904    63.09231103
 H      1   2   3     1.070001919157   109.47130486   303.09264242
 H      1   2   3     1.070003256724   109.47114860   183.09246931

---------------------------
INTERNAL COORDINATES (A.U.)
---------------------------
 C      0   0   0     0.000000000000     0.00000000     0.00000000
 S      1   0   0     3.393261421222     0.00000000     0.00000000
 F      2   1   0     2.720530633769   105.48605342     0.00000000
 O      2   1   3     2.725200177913   106.22673339   234.59550751
 O      2   1   3     2.822509978907   104.40866289   116.90763824
 H      1   2   3     2.022015160187   109.47100904    63.09231103
 H      1   2   3     2.022010589977   109.47130486   303.09264242
 H      1   2   3     2.022013117612   109.47114860   183.09246931

---------------------
BASIS SET INFORMATION
---------------------
There are 5 groups of distinct atoms

 Group   1 Type C   : 7s4p1d contracted to 3s2p1d pattern {511/31/1}
 Group   2 Type S   : 10s7p1d contracted to 4s3p1d pattern {5311/511/1}
 Group   3 Type F   : 7s4p1d contracted to 3s2p1d pattern {511/31/1}
 Group   4 Type O   : 7s4p1d contracted to 3s2p1d pattern {511/31/1}
 Group   5 Type H   : 4s1p contracted to 2s1p pattern {31/1}

Atom   0C    basis set group =>   1
Atom   1S    basis set group =>   2
Atom   2F    basis set group =>   3
Atom   3O    basis set group =>   4
Atom   4O    basis set group =>   4
Atom   5H    basis set group =>   5
Atom   6H    basis set group =>   5
Atom   7H    basis set group =>   5
---------------------------------
AUXILIARY/J BASIS SET INFORMATION
---------------------------------
There are 5 groups of distinct atoms

 Group   1 Type C   : 12s5p4d2f1g contracted to 6s4p3d1f1g pattern {711111/2111/211/2/1}
 Group   2 Type S   : 14s5p5d2f1g contracted to 8s4p3d1f1g pattern {71111111/2111/311/2/1}
 Group   3 Type F   : 12s5p4d2f1g contracted to 6s4p3d1f1g pattern {711111/2111/211/2/1}
 Group   4 Type O   : 12s5p4d2f1g contracted to 6s4p3d1f1g pattern {711111/2111/211/2/1}
 Group   5 Type H   : 5s2p1d contracted to 3s1p1d pattern {311/2/1}

Atom   0C    basis set group =>   1
Atom   1S    basis set group =>   2
Atom   2F    basis set group =>   3
Atom   3O    basis set group =>   4
Atom   4O    basis set group =>   4
Atom   5H    basis set group =>   5
Atom   6H    basis set group =>   5
Atom   7H    basis set group =>   5


           ************************************************************
           *        Program running with 8 parallel MPI-processes     *
           *              working on a common directory               *
           ************************************************************
------------------------------------------------------------------------------
                           ORCA GTO INTEGRAL CALCULATION
                           -- RI-GTO INTEGRALS CHOSEN --
------------------------------------------------------------------------------
------------------------------------------------------------------------------
                   ___                                                        
                  /   \      - P O W E R E D   B Y -                         
                 /     \                                                     
                 |  |  |   _    _      __       _____    __    __             
                 |  |  |  | |  | |    /  \     |  _  \  |  |  /  |          
                  \  \/   | |  | |   /    \    | | | |  |  | /  /          
                 / \  \   | |__| |  /  /\  \   | |_| |  |  |/  /          
                |  |  |   |  __  | /  /__\  \  |    /   |      \           
                |  |  |   | |  | | |   __   |  |    \   |  |\   \          
                \     /   | |  | | |  |  |  |  | |\  \  |  | \   \       
                 \___/    |_|  |_| |__|  |__|  |_| \__\ |__|  \__/        
                                                                              
                      - O R C A' S   B I G   F R I E N D -                    
                                      &                                       
                       - I N T E G R A L  F E E D E R -                       
                                                                              
 v1 FN, 2020, v2 2021                                                         
------------------------------------------------------------------------------


Reading SHARK input file C1_neg.SHARKINP.tmp ... ok
----------------------
SHARK INTEGRAL PACKAGE
----------------------

Number of atoms                             ...      8
Number of basis functions                   ...     89
Number of shells                            ...     41
Maximum angular momentum                    ...      2
Integral batch strategy                     ... SHARK/LIBINT Hybrid
RI-J (if used) integral strategy            ... SPLIT-RIJ (Revised 2003 algorithm where possible)
Printlevel                                  ...      1
Contraction scheme used                     ... SEGMENTED contraction
Coulomb Range Separation                    ... NOT USED
Exchange Range Separation                   ... Long Range
   Mu parameter                             ...  0.250000
   Scaling (regular/separated)              ...  0.195728  0.804272
Finite Nucleus Model                        ... NOT USED
Auxiliary Coulomb fitting basis             ... AVAILABLE
   # of basis functions in Aux-J            ...    280
   # of shells in Aux-J                     ...     92
   Maximum angular momentum in Aux-J        ...      4
Auxiliary J/K fitting basis                 ... NOT available
Auxiliary Correlation fitting basis         ... NOT available
Auxiliary 'external' fitting basis          ... NOT available
Integral threshold                          ...     2.500000e-11
Primitive cut-off                           ...     2.500000e-12
Primitive pair pre-selection threshold      ...     2.500000e-12

Calculating pre-screening integrals         ... done (  0.0 sec) Dimension = 41
Organizing shell pair data                  ... done (  0.0 sec)
Shell pair information
Total number of shell pairs                 ...       861
Shell pairs after pre-screening             ...       848
Total number of primitive shell pairs       ...      3405
Primitive shell pairs kept                  ...      2587
          la=0 lb=0:    243 shell pairs
          la=1 lb=0:    305 shell pairs
          la=1 lb=1:    105 shell pairs
          la=2 lb=0:    110 shell pairs
          la=2 lb=1:     70 shell pairs
          la=2 lb=2:     15 shell pairs

Calculating one electron integrals          ... done (  0.0 sec)
Calculating RI/J V-Matrix + Cholesky decomp.... done (  0.0 sec)
Calculating Nuclear repulsion               ... done (  0.0 sec) ENN=    282.954950644830 Eh

SHARK setup successfully completed in   0.1 seconds

Maximum memory used throughout the entire GTOINT-calculation: 8.8 MB


           ************************************************************
           *        Program running with 8 parallel MPI-processes     *
           *              working on a common directory               *
           ************************************************************
-------------------------------------------------------------------------------
                                 ORCA SCF
-------------------------------------------------------------------------------

------------
SCF SETTINGS
------------
Hamiltonian:
 Density Functional     Method          .... DFT(GTOs)
 Exchange Functional    Exchange        .... WB97X-D3
 Correlation Functional Correlation     .... WB97X-D3
 Gradients option       PostSCFGGA      .... off
 Hybrid DFT is turned on
   Fraction HF Exchange ScalHFX         ....  0.195728
   Scaling of DF-GGA-X  ScalDFX         ....  0.000000
   Scaling of DF-GGA-C  ScalDFC         ....  1.000000
   Scaling of DF-LDA-C  ScalLDAC        ....  1.000000
   Perturbative correction              ....  0.000000
   Density functional embedding theory  .... OFF
 Long-range corrected/Screened/Range-Separated Hybrid DFT is turned on
   Amount of maximum screened exact exchange              ....  0.804272
   Range separation parameter mu (erf(mu*r12)/r12)        ....  0.250000
 RI-approximation to the Coulomb term is turned on
   Number of AuxJ basis functions       .... 280
   RIJ-COSX (HFX calculated with COS-X)).... on


General Settings:
 Integral files         IntName         .... C1_neg
 Hartree-Fock type      HFTyp           .... RHF
 Total Charge           Charge          ....    0
 Multiplicity           Mult            ....    1
 Number of Electrons    NEL             ....   50
 Basis Dimension        Dim             ....   89
 Nuclear Repulsion      ENuc            ....    282.9549506448 Eh

Convergence Acceleration:
 DIIS                   CNVDIIS         .... on
   Start iteration      DIISMaxIt       ....    12
   Startup error        DIISStart       ....  0.200000
   # of expansion vecs  DIISMaxEq       ....     5
   Bias factor          DIISBfac        ....   1.050
   Max. coefficient     DIISMaxC        ....  10.000
 Trust-Rad. Augm. Hess. CNVTRAH         .... auto
   Auto Start mean grad. ratio tolernc. ....  1.125000
   Auto Start start iteration           ....    20
   Auto Start num. interpolation iter.  ....    10
   Max. Number of Micro iterations      ....    16
   Max. Number of Macro iterations      .... Maxiter - #DIIS iter
   Number of Davidson start vectors     ....     2
   Converg. threshold I  (grad. norm)   ....   1.000e-05
   Converg. threshold II (energy diff.) ....   1.000e-08
   Grad. Scal. Fac. for Micro threshold ....   0.100
   Minimum threshold for Micro iter.    ....   0.010
   NR start threshold (gradient norm)   ....   0.001
   Initial trust radius                 ....   0.400
   Minimum AH scaling param. (alpha)    ....   1.000
   Maximum AH scaling param. (alpha)    .... 1000.000
   Orbital update algorithm             .... Taylor
   White noise on init. David. guess    .... on
   Maximum white noise                  ....   0.010
   Quad. conv. algorithm                .... NR
 SOSCF                  CNVSOSCF        .... on
   Start iteration      SOSCFMaxIt      ....   150
   Startup grad/error   SOSCFStart      ....  0.003300
 Level Shifting         CNVShift        .... on
   Level shift para.    LevelShift      ....    0.2500
   Turn off err/grad.   ShiftErr        ....    0.0010
 Zerner damping         CNVZerner       .... off
 Static damping         CNVDamp         .... on
   Fraction old density DampFac         ....    0.7000
   Max. Damping (<1)    DampMax         ....    0.9800
   Min. Damping (>=0)   DampMin         ....    0.0000
   Turn off err/grad.   DampErr         ....    0.1000
 Fernandez-Rico         CNVRico         .... off

SCF Procedure:
 Maximum # iterations   MaxIter         ....   150
 SCF integral mode      SCFMode         .... Direct
   Integral package                     .... SHARK and LIBINT hybrid scheme
 Reset frequency        DirectResetFreq ....    20
 Integral Threshold     Thresh          ....  2.500e-11 Eh
 Primitive CutOff       TCut            ....  2.500e-12 Eh

Convergence Tolerance:
 Convergence Check Mode ConvCheckMode   .... Total+1el-Energy
 Convergence forced     ConvForced      .... 0
 Energy Change          TolE            ....  1.000e-08 Eh
 1-El. energy change                    ....  1.000e-05 Eh
 Orbital Gradient       TolG            ....  1.000e-05
 Orbital Rotation angle TolX            ....  1.000e-05
 DIIS Error             TolErr          ....  5.000e-07


Diagonalization of the overlap matrix:
Smallest eigenvalue                        ... 5.788e-03
Time for diagonalization                   ...    0.003 sec
Threshold for overlap eigenvalues          ... 1.000e-08
Number of eigenvalues below threshold      ... 0
Time for construction of square roots      ...    0.003 sec
Total time needed                          ...    0.006 sec

Time for model grid setup =    0.038 sec

------------------------------
INITIAL GUESS: MODEL POTENTIAL
------------------------------
Loading Hartree-Fock densities                     ... done
Calculating cut-offs                               ... done
Initializing the effective Hamiltonian             ... done
Setting up the integral package (SHARK)            ... done
Starting the Coulomb interaction                   ... done (   0.0 sec)
Reading the grid                                   ... done
Mapping shells                                     ... done
Starting the XC term evaluation                    ... done (   0.0 sec)
  promolecular density results
     # of electrons  =     49.998430691
     EX              =    -57.339444541
     EC              =     -1.799777148
     EX+EC           =    -59.139221690
Transforming the Hamiltonian                       ... done (   0.0 sec)
Diagonalizing the Hamiltonian                      ... done (   0.0 sec)
Back transforming the eigenvectors                 ... done (   0.0 sec)
Now organizing SCF variables                       ... done
                      ------------------
                      INITIAL GUESS DONE (   0.1 sec)
                      ------------------
-------------------
DFT GRID GENERATION
-------------------

General Integration Accuracy     IntAcc      ... 4.388
Radial Grid Type                 RadialGrid  ... OptM3 with GC (2021)
Angular Grid (max. ang.)         AngularGrid ... 4 (Lebedev-302)
Angular grid pruning method      GridPruning ... 4 (adaptive)
Weight generation scheme         WeightScheme... Becke
Basis function cutoff            BFCut       ... 1.0000e-11
Integration weight cutoff        WCut        ... 1.0000e-14
Angular grids for H and He will be reduced by one unit
Partially contracted basis set               ... off
Rotationally invariant grid construction     ... off

Total number of grid points                  ...    41517
Total number of batches                      ...      651
Average number of points per batch           ...       63
Average number of grid points per atom       ...     5190
Time for grid setup =    0.239 sec

--------------------
COSX GRID GENERATION
--------------------

GRIDX 1
-------
General Integration Accuracy     IntAcc      ... 3.816
Radial Grid Type                 RadialGrid  ... OptM3 with GC (2021)
Angular Grid (max. ang.)         AngularGrid ... 1 (Lebedev-50)
Angular grid pruning method      GridPruning ... 4 (adaptive)
Weight generation scheme         WeightScheme... Becke
Basis function cutoff            BFCut       ... 1.0000e-11
Integration weight cutoff        WCut        ... 1.0000e-14
Angular grids for H and He will be reduced by one unit
Partially contracted basis set               ... on
Rotationally invariant grid construction     ... off

Total number of grid points                  ...     5214
Total number of batches                      ...       86
Average number of points per batch           ...       60
Average number of grid points per atom       ...      652
UseSFitting                                  ... on

GRIDX 2
-------
General Integration Accuracy     IntAcc      ... 4.020
Radial Grid Type                 RadialGrid  ... OptM3 with GC (2021)
Angular Grid (max. ang.)         AngularGrid ... 2 (Lebedev-110)
Angular grid pruning method      GridPruning ... 4 (adaptive)
Weight generation scheme         WeightScheme... Becke
Basis function cutoff            BFCut       ... 1.0000e-11
Integration weight cutoff        WCut        ... 1.0000e-14
Angular grids for H and He will be reduced by one unit
Partially contracted basis set               ... on
Rotationally invariant grid construction     ... off

Total number of grid points                  ...    11728
Total number of batches                      ...      185
Average number of points per batch           ...       63
Average number of grid points per atom       ...     1466
UseSFitting                                  ... on

GRIDX 3
-------
General Integration Accuracy     IntAcc      ... 4.338
Radial Grid Type                 RadialGrid  ... OptM3 with GC (2021)
Angular Grid (max. ang.)         AngularGrid ... 3 (Lebedev-194)
Angular grid pruning method      GridPruning ... 4 (adaptive)
Weight generation scheme         WeightScheme... Becke
Basis function cutoff            BFCut       ... 1.0000e-11
Integration weight cutoff        WCut        ... 1.0000e-14
Angular grids for H and He will be reduced by one unit
Partially contracted basis set               ... on
Rotationally invariant grid construction     ... off

Total number of grid points                  ...    26541
Total number of batches                      ...      420
Average number of points per batch           ...       63
Average number of grid points per atom       ...     3318
UseSFitting                                  ... on

Time for X-Grid setup             =    0.167 sec

--------------
SCF ITERATIONS
--------------
ITER       Energy         Delta-E        Max-DP      RMS-DP      [F,P]     Damp
               ***  Starting incremental Fock matrix formation  ***
  0   -687.5419916248   0.000000000000 0.17764878  0.00502983  0.2992324 0.7000
  1   -687.6863182982  -0.144326673417 0.09775347  0.00304991  0.1317436 0.7000
                               ***Turning on DIIS***
  2   -687.7418623377  -0.055544039513 0.09610723  0.00419670  0.0463782 0.0000
  3   -687.8359816704  -0.094119332666 0.08183599  0.00220059  0.0667865 0.0000
  4   -687.8527647601  -0.016783089768 0.01355888  0.00037789  0.0126828 0.0000
                      *** Initiating the SOSCF procedure ***
                           *** Shutting down DIIS ***
                      *** Re-Reading the Fockian *** 
                      *** Removing any level shift *** 
ITER      Energy       Delta-E        Grad      Rot      Max-DP    RMS-DP
  5   -687.85318147  -0.0004167086  0.000583  0.000583  0.001729  0.000093
               *** Restarting incremental Fock matrix formation ***
  6   -687.85314448   0.0000369912  0.000328  0.000377  0.000933  0.000051
  7   -687.85314641  -0.0000019332  0.000294  0.000256  0.000490  0.000025
  8   -687.85314801  -0.0000015961  0.000038  0.000049  0.000372  0.000008
  9   -687.85314803  -0.0000000220  0.000035  0.000030  0.000135  0.000003
 10   -687.85314807  -0.0000000380  0.000007  0.000006  0.000035  0.000001
 11   -687.85314807  -0.0000000031  0.000004  0.000003  0.000021  0.000000
                  ***Gradient check signals convergence***
              ***Rediagonalizing the Fockian in SOSCF/NRSCF***

               *****************************************************
               *                     SUCCESS                       *
               *           SCF CONVERGED AFTER  12 CYCLES          *
               *****************************************************

Old exchange energy                            =    -16.776987143 Eh
New exchange energy                            =    -16.777031131 Eh
Exchange energy change after final integration =     -0.000043987 Eh
Total energy after final integration           =   -687.853192056 Eh
Final COS-X integration done in                =     0.558 sec

----------------
TOTAL SCF ENERGY
----------------

Total Energy       :         -687.85319206 Eh          -18717.43693 eV

Components:
Nuclear Repulsion  :          282.95495064 Eh            7699.59565 eV
Electronic Energy  :         -970.80814270 Eh          -26417.03258 eV
One Electron Energy:        -1509.14236700 Eh          -41065.85155 eV
Two Electron Energy:          538.33422430 Eh           14648.81897 eV
Max COSX asymmetry :            0.00001340 Eh               0.00036 eV

Virial components:
Potential Energy   :        -1373.02209990 Eh          -37361.83078 eV
Kinetic Energy     :          685.16890784 Eh           18644.39385 eV
Virial Ratio       :            2.00391770


DFT components:
N(Alpha)           :       24.999991428756 electrons
N(Beta)            :       24.999991428756 electrons
N(Total)           :       49.999982857513 electrons
E(XC)              :      -43.180127532092 Eh       
DFET-embed. en.    :        0.000000000000 Eh       

---------------
SCF CONVERGENCE
---------------

  Last Energy change         ...    1.1489e-09  Tolerance :   1.0000e-08
  Last MAX-Density change    ...    2.6645e-15  Tolerance :   1.0000e-07
  Last RMS-Density change    ...    1.0401e-16  Tolerance :   5.0000e-09
  Last Orbital Gradient      ...    9.9600e-07  Tolerance :   1.0000e-05
  Last Orbital Rotation      ...    1.7805e-06  Tolerance :   1.0000e-05

             **** THE GBW FILE WAS UPDATED (C1_neg.gbw) ****
             **** DENSITY C1_neg.scfp WAS UPDATED ****
             **** ENERGY FILE WAS UPDATED (C1_neg.en.tmp) ****
             **** THE GBW FILE WAS UPDATED (C1_neg.gbw) ****
             **** DENSITY C1_neg.scfp WAS UPDATED ****
----------------
ORBITAL ENERGIES
----------------

  NO   OCC          E(Eh)            E(eV) 
   0   2.0000     -89.218900     -2427.7697 
   1   2.0000     -24.911765      -677.8836 
   2   2.0000     -19.246670      -523.7285 
   3   2.0000     -19.225671      -523.1571 
   4   2.0000     -10.345699      -281.5208 
   5   2.0000      -8.301489      -225.8950 
   6   2.0000      -6.264686      -170.4708 
   7   2.0000      -6.257847      -170.2847 
   8   2.0000      -6.257062      -170.2633 
   9   2.0000      -1.493468       -40.6393 
  10   2.0000      -1.216445       -33.1011 
  11   2.0000      -1.103621       -30.0310 
  12   2.0000      -0.914122       -24.8745 
  13   2.0000      -0.823691       -22.4138 
  14   2.0000      -0.710616       -19.3369 
  15   2.0000      -0.693192       -18.8627 
  16   2.0000      -0.654403       -17.8072 
  17   2.0000      -0.578099       -15.7309 
  18   2.0000      -0.573012       -15.5924 
  19   2.0000      -0.564393       -15.3579 
  20   2.0000      -0.525763       -14.3068 
  21   2.0000      -0.476917       -12.9776 
  22   2.0000      -0.426832       -11.6147 
  23   2.0000      -0.407411       -11.0862 
  24   2.0000      -0.389105       -10.5881 
  25   0.0000       0.116426         3.1681 
  26   0.0000       0.149865         4.0780 
  27   0.0000       0.159299         4.3347 
  28   0.0000       0.171657         4.6710 
  29   0.0000       0.187369         5.0986 
  30   0.0000       0.210584         5.7303 
  31   0.0000       0.247475         6.7341 
  32   0.0000       0.454912        12.3788 
  33   0.0000       0.496973        13.5233 
  34   0.0000       0.502976        13.6867 
  35   0.0000       0.506596        13.7852 
  36   0.0000       0.702460        19.1149 
  37   0.0000       0.713158        19.4060 
  38   0.0000       0.718187        19.5429 
  39   0.0000       0.725189        19.7334 
  40   0.0000       0.732092        19.9212 
  41   0.0000       0.766657        20.8618 
  42   0.0000       0.770818        20.9750 
  43   0.0000       0.800710        21.7884 
  44   0.0000       0.820977        22.3399 
  45   0.0000       0.941308        25.6143 
  46   0.0000       0.958139        26.0723 
  47   0.0000       1.060497        28.8576 
  48   0.0000       1.087370        29.5888 
  49   0.0000       1.108012        30.1505 
  50   0.0000       1.144176        31.1346 
  51   0.0000       1.175646        31.9910 
  52   0.0000       1.186054        32.2742 
  53   0.0000       1.212004        32.9803 
  54   0.0000       1.251855        34.0647 
  55   0.0000       1.258316        34.2405 
  56   0.0000       1.369100        37.2551 
  57   0.0000       1.381399        37.5898 
  58   0.0000       1.397955        38.0403 
  59   0.0000       1.588712        43.2311 
  60   0.0000       1.596328        43.4383 
  61   0.0000       1.622202        44.1424 
  62   0.0000       1.829420        49.7811 
  63   0.0000       1.838258        50.0215 
  64   0.0000       1.871303        50.9207 
  65   0.0000       1.917397        52.1750 
  66   0.0000       2.030962        55.2653 
  67   0.0000       2.033738        55.3408 
  68   0.0000       2.312247        62.9194 
  69   0.0000       2.494785        67.8866 
  70   0.0000       2.499796        68.0229 
  71   0.0000       2.712104        73.8001 
  72   0.0000       2.718491        73.9739 
  73   0.0000       2.727832        74.2281 
  74   0.0000       2.739228        74.5382 
  75   0.0000       2.755207        74.9730 
  76   0.0000       2.807204        76.3879 
  77   0.0000       2.844578        77.4049 
  78   0.0000       2.899967        78.9121 
  79   0.0000       2.984913        81.2236 
  80   0.0000       3.007867        81.8482 
  81   0.0000       3.020461        82.1909 
  82   0.0000       3.054035        83.1045 
  83   0.0000       3.087494        84.0150 
  84   0.0000       3.234840        88.0245 
  85   0.0000       3.283402        89.3459 
  86   0.0000       3.339304        90.8671 
  87   0.0000       3.514045        95.6220 
  88   0.0000       3.759818       102.3098 

                    ********************************
                    * MULLIKEN POPULATION ANALYSIS *
                    ********************************

-----------------------
MULLIKEN ATOMIC CHARGES
-----------------------
   0 C :   -0.096193
   1 S :    0.930367
   2 F :   -0.172309
   3 O :   -0.441655
   4 O :   -0.500270
   5 H :    0.080973
   6 H :    0.085466
   7 H :    0.113620
Sum of atomic charges:   -0.0000000

--------------------------------
MULLIKEN REDUCED ORBITAL CHARGES
--------------------------------
  0 C s       :     3.045159  s :     3.045159
      pz      :     1.042813  p :     3.025816
      px      :     1.076558
      py      :     0.906445
      dz2     :     0.003185  d :     0.025218
      dxz     :     0.004555
      dyz     :     0.007557
      dx2y2   :     0.006228
      dxy     :     0.003693
  1 S s       :     5.321533  s :     5.321533
      pz      :     2.923409  p :     8.922773
      px      :     2.924738
      py      :     3.074626
      dz2     :     0.148309  d :     0.825327
      dxz     :     0.203036
      dyz     :     0.134295
      dx2y2   :     0.190589
      dxy     :     0.149097
  2 F s       :     3.896831  s :     3.896831
      pz      :     1.641265  p :     5.263240
      px      :     1.757140
      py      :     1.864835
      dz2     :     0.003462  d :     0.012237
      dxz     :     0.004236
      dyz     :     0.002274
      dx2y2   :     0.001155
      dxy     :     0.001109
  3 O s       :     3.841212  s :     3.841212
      pz      :     1.649271  p :     4.581184
      px      :     1.277069
      py      :     1.654844
      dz2     :     0.002170  d :     0.019259
      dxz     :     0.004931
      dyz     :     0.000696
      dx2y2   :     0.005924
      dxy     :     0.005538
  4 O s       :     3.864598  s :     3.864598
      pz      :     1.446672  p :     4.618669
      px      :     1.628401
      py      :     1.543596
      dz2     :     0.003536  d :     0.017003
      dxz     :     0.003258
      dyz     :     0.004441
      dx2y2   :     0.002622
      dxy     :     0.003146
  5 H s       :     0.893434  s :     0.893434
      pz      :     0.008246  p :     0.025593
      px      :     0.007804
      py      :     0.009543
  6 H s       :     0.889079  s :     0.889079
      pz      :     0.005242  p :     0.025455
      px      :     0.014483
      py      :     0.005730
  7 H s       :     0.860899  s :     0.860899
      pz      :     0.013301  p :     0.025482
      px      :     0.007928
      py      :     0.004253


                     *******************************
                     * LOEWDIN POPULATION ANALYSIS *
                     *******************************

----------------------
LOEWDIN ATOMIC CHARGES
----------------------
   0 C :   -0.156164
   1 S :    1.162488
   2 F :   -0.115964
   3 O :   -0.482761
   4 O :   -0.542596
   5 H :    0.037001
   6 H :    0.040350
   7 H :    0.057647

-------------------------------
LOEWDIN REDUCED ORBITAL CHARGES
-------------------------------
  0 C s       :     2.882930  s :     2.882930
      pz      :     1.085461  p :     3.208826
      px      :     1.113029
      py      :     1.010336
      dz2     :     0.008401  d :     0.064409
      dxz     :     0.011922
      dyz     :     0.018546
      dx2y2   :     0.015795
      dxy     :     0.009746
  1 S s       :     5.031687  s :     5.031687
      pz      :     2.861294  p :     8.732060
      px      :     2.892205
      py      :     2.978561
      dz2     :     0.191151  d :     1.073766
      dxz     :     0.268783
      dyz     :     0.180656
      dx2y2   :     0.247664
      dxy     :     0.185511
  2 F s       :     3.758622  s :     3.758622
      pz      :     1.693162  p :     5.338961
      px      :     1.783697
      py      :     1.862102
      dz2     :     0.005149  d :     0.018381
      dxz     :     0.007271
      dyz     :     0.002935
      dx2y2   :     0.001633
      dxy     :     0.001393
  3 O s       :     3.680066  s :     3.680066
      pz      :     1.667759  p :     4.772163
      px      :     1.425563
      py      :     1.678842
      dz2     :     0.004430  d :     0.030532
      dxz     :     0.006095
      dyz     :     0.000805
      dx2y2   :     0.010737
      dxy     :     0.008465
  4 O s       :     3.712882  s :     3.712882
      pz      :     1.524566  p :     4.802811
      px      :     1.676723
      py      :     1.601522
      dz2     :     0.004201  d :     0.026903
      dxz     :     0.005803
      dyz     :     0.008360
      dx2y2   :     0.003236
      dxy     :     0.005304
  5 H s       :     0.888025  s :     0.888025
      pz      :     0.022838  p :     0.074974
      px      :     0.021856
      py      :     0.030280
  6 H s       :     0.884796  s :     0.884796
      pz      :     0.016099  p :     0.074854
      px      :     0.040414
      py      :     0.018341
  7 H s       :     0.867826  s :     0.867826
      pz      :     0.039293  p :     0.074527
      px      :     0.022101
      py      :     0.013134


                      *****************************
                      * MAYER POPULATION ANALYSIS *
                      *****************************

  NA   - Mulliken gross atomic population
  ZA   - Total nuclear charge
  QA   - Mulliken gross atomic charge
  VA   - Mayer's total valence
  BVA  - Mayer's bonded valence
  FA   - Mayer's free valence

  ATOM       NA         ZA         QA         VA         BVA        FA
  0 C      6.0962     6.0000    -0.0962     3.9191     3.9191     0.0000
  1 S     15.0696    16.0000     0.9304     5.5441     5.5441    -0.0000
  2 F      9.1723     9.0000    -0.1723     1.1399     1.1399    -0.0000
  3 O      8.4417     8.0000    -0.4417     1.9576     1.9576     0.0000
  4 O      8.5003     8.0000    -0.5003     1.8957     1.8957    -0.0000
  5 H      0.9190     1.0000     0.0810     0.9947     0.9947     0.0000
  6 H      0.9145     1.0000     0.0855     0.9979     0.9979    -0.0000
  7 H      0.8864     1.0000     0.1136     1.0029     1.0029     0.0000

  Mayer bond orders larger than 0.100000
B(  0-C ,  1-S ) :   0.9397 B(  0-C ,  5-H ) :   0.9534 B(  0-C ,  6-H ) :   0.9547 
B(  0-C ,  7-H ) :   0.9584 B(  1-S ,  2-F ) :   1.0270 B(  1-S ,  3-O ) :   1.7898 
B(  1-S ,  4-O ) :   1.7310 

-------
TIMINGS
-------

Total SCF time: 0 days 0 hours 0 min 4 sec 

Total time                  ....       4.635 sec
Sum of individual times     ....       4.508 sec  ( 97.2%)

Fock matrix formation       ....       3.989 sec  ( 86.1%)
  Split-RI-J                ....       0.311 sec  (  7.8% of F)
  Chain of spheres X        ....       3.126 sec  ( 78.4% of F)
  XC integration            ....       0.530 sec  ( 13.3% of F)
    Basis function eval.    ....       0.189 sec  ( 35.7% of XC)
    Density eval.           ....       0.087 sec  ( 16.4% of XC)
    XC-Functional eval.     ....       0.109 sec  ( 20.6% of XC)
    XC-Potential eval.      ....       0.078 sec  ( 14.7% of XC)
Diagonalization             ....       0.016 sec  (  0.3%)
Density matrix formation    ....       0.002 sec  (  0.0%)
Population analysis         ....       0.004 sec  (  0.1%)
Initial guess               ....       0.025 sec  (  0.5%)
Orbital Transformation      ....       0.000 sec  (  0.0%)
Orbital Orthonormalization  ....       0.000 sec  (  0.0%)
DIIS solution               ....       0.013 sec  (  0.3%)
SOSCF solution              ....       0.015 sec  (  0.3%)
Grid generation             ....       0.443 sec  (  9.6%)

Maximum memory used throughout the entire SCF-calculation: 46.3 MB


-------------------------------------------------------------------------------
                          DFT DISPERSION CORRECTION                            
                                                                               
                              DFTD3 V3.1  Rev 1                                
                              USING zero damping                               
-------------------------------------------------------------------------------
The omegaB97X-D3 functional is recognized. Fit by Chai et al.
Active option DFTDOPT                   ...         3   

molecular C6(AA) [au] = 915.023948 


            DFT-D V3
 parameters
 s6 scaling factor         :     1.0000 
 rs6 scaling factor        :     1.2810 
 s8 scaling factor         :     1.0000 
 rs8 scaling factor        :     1.0940 
 Damping factor alpha6     :    14.0000 
 Damping factor alpha8     :    16.0000 
 ad hoc parameters k1-k3   :    16.0000     1.3333    -4.0000 

 Edisp/kcal,au: -0.961171109371  -0.001531723498 
 E6   /kcal   :  -0.317840996 
 E8   /kcal   :  -0.643330113 
 % E8         :  66.931902857 

-------------------------   ----------------
Dispersion correction           -0.001531723
-------------------------   ----------------


-------------------------   --------------------
FINAL SINGLE POINT ENERGY      -687.854723779801
-------------------------   --------------------


                            ***************************************
                            *     ORCA property calculations      *
                            ***************************************

                                    ---------------------
                                    Active property flags
                                    ---------------------
   (+) Dipole Moment


------------------------------------------------------------------------------
                       ORCA ELECTRIC PROPERTIES CALCULATION
------------------------------------------------------------------------------

Dipole Moment Calculation                       ... on
Quadrupole Moment Calculation                   ... off
Polarizability Calculation                      ... off
GBWName                                         ... C1_neg.gbw
Electron density file                           ... C1_neg.scfp
The origin for moment calculation is the CENTER OF MASS  = ( 3.430517,  0.092192 -12.088280)

-------------
DIPOLE MOMENT
-------------
                                X             Y             Z
Electronic contribution:      1.41264      -3.23313      -4.18661
Nuclear contribution   :     -1.09446       4.91008       3.93848
                        -----------------------------------------
Total Dipole Moment    :      0.31818       1.67695      -0.24814
                        -----------------------------------------
Magnitude (a.u.)       :      1.72481
Magnitude (Debye)      :      4.38413



--------------------
Rotational spectrum 
--------------------
 
Rotational constants in cm-1:     0.163326     0.155515     0.146672 
Rotational constants in MHz :  4896.387829  4662.220576  4397.127261 

 Dipole components along the rotational axes: 
x,y,z [a.u.] :    -1.010863    -1.359403    -0.324289 
x,y,z [Debye]:    -2.569411    -3.455328    -0.824278 

 

Timings for individual modules:

Sum of individual times         ...        5.500 sec (=   0.092 min)
GTO integral calculation        ...        0.489 sec (=   0.008 min)   8.9 %
SCF iterations                  ...        5.010 sec (=   0.084 min)  91.1 %
                             ****ORCA TERMINATED NORMALLY****
TOTAL RUN TIME: 0 days 0 hours 0 minutes 6 seconds 32 msec
