
                                        *****************
                                        * O   R   C   A *
                                        *****************

                                            #,                                       
                                            ###                                      
                                            ####                                     
                                            #####                                    
                                            ######                                   
                                           ########,                                 
                                     ,,################,,,,,                         
                               ,,#################################,,                 
                          ,,##########################################,,             
                       ,#########################################, ''#####,          
                    ,#############################################,,   '####,        
                  ,##################################################,,,,####,       
                ,###########''''           ''''###############################       
              ,#####''   ,,,,##########,,,,          '''####'''          '####       
            ,##' ,,,,###########################,,,                        '##       
           ' ,,###''''                  '''############,,,                           
         ,,##''                                '''############,,,,        ,,,,,,###''
      ,#''                                            '''#######################'''  
     '                                                          ''''####''''         
             ,#######,   #######,   ,#######,      ##                                
            ,#'     '#,  ##    ##  ,#'     '#,    #''#        ######   ,####,        
            ##       ##  ##   ,#'  ##            #'  '#       #        #'  '#        
            ##       ##  #######   ##           ,######,      #####,   #    #        
            '#,     ,#'  ##    ##  '#,     ,#' ,#      #,         ##   #,  ,#        
             '#######'   ##     ##  '#######'  #'      '#     #####' # '####'        



                  #######################################################
                  #                        -***-                        #
                  #          Department of theory and spectroscopy      #
                  #    Directorship and core code : Frank Neese         #
                  #        Max Planck Institute fuer Kohlenforschung    #
                  #                Kaiser Wilhelm Platz 1               #
                  #                 D-45470 Muelheim/Ruhr               #
                  #                      Germany                        #
                  #                                                     #
                  #                  All rights reserved                #
                  #                        -***-                        #
                  #######################################################


                         Program Version 5.0.0 -  RELEASE  -
                                (SVN: $Rev: 19529$)
                ($Date: 2021-06-28 11:36:33 +0200 (Mo, 28 Jun 2021) $)


 With contributions from (in alphabetic order):
   Daniel Aravena         : Magnetic Suceptibility
   Michael Atanasov       : Ab Initio Ligand Field Theory (pilot matlab implementation)
   Alexander A. Auer      : GIAO ZORA, VPT2 properties, NMR spectrum
   Ute Becker             : Parallelization
   Giovanni Bistoni       : ED, misc. LED, open-shell LED, HFLD
   Martin Brehm           : Molecular dynamics
   Dmytro Bykov           : SCF Hessian
   Vijay G. Chilkuri      : MRCI spin determinant printing, contributions to CSF-ICE
   Dipayan Datta          : RHF DLPNO-CCSD density
   Achintya Kumar Dutta   : EOM-CC, STEOM-CC
   Dmitry Ganyushin       : Spin-Orbit,Spin-Spin,Magnetic field MRCI
   Miquel Garcia          : C-PCM Hessian, Gaussian charge scheme
   Yang Guo               : DLPNO-NEVPT2, F12-NEVPT2, CIM, IAO-localization
   Andreas Hansen         : Spin unrestricted coupled pair/coupled cluster methods
   Benjamin Helmich-Paris : MC-RPA, TRAH-SCF, COSX integrals
   Lee Huntington         : MR-EOM, pCC
   Robert Izsak           : Overlap fitted RIJCOSX, COSX-SCS-MP3, EOM
   Marcus Kettner         : VPT2
   Christian Kollmar      : KDIIS, OOCD, Brueckner-CCSD(T), CCSD density, CASPT2, CASPT2-K
   Simone Kossmann        : Meta GGA functionals, TD-DFT gradient, OOMP2, MP2 Hessian
   Martin Krupicka        : Initial AUTO-CI
   Lucas Lang             : DCDCAS
   Marvin Lechner         : AUTO-CI (C++ implementation), FIC-MRCC
   Dagmar Lenk            : GEPOL surface, SMD
   Dimitrios Liakos       : Extrapolation schemes; Compound Job, initial MDCI parallelization
   Dimitrios Manganas     : Further ROCIS development; embedding schemes
   Dimitrios Pantazis     : SARC Basis sets
   Anastasios Papadopoulos: AUTO-CI, single reference methods and gradients
   Taras Petrenko         : DFT Hessian,TD-DFT gradient, ASA, ECA, R-Raman, ABS, FL, XAS/XES, NRVS
   Peter Pinski           : DLPNO-MP2, DLPNO-MP2 Gradient
   Christoph Reimann      : Effective Core Potentials
   Marius Retegan         : Local ZFS, SOC
   Christoph Riplinger    : Optimizer, TS searches, QM/MM, DLPNO-CCSD(T), (RO)-DLPNO pert. Triples
   Tobias Risthaus        : Range-separated hybrids, TD-DFT gradient, RPA, STAB
   Michael Roemelt        : Original ROCIS implementation
   Masaaki Saitow         : Open-shell DLPNO-CCSD energy and density
   Barbara Sandhoefer     : DKH picture change effects
   Avijit Sen             : IP-ROCIS
   Kantharuban Sivalingam : CASSCF convergence, NEVPT2, FIC-MRCI
   Bernardo de Souza      : ESD, SOC TD-DFT
   Georgi Stoychev        : AutoAux, RI-MP2 NMR
   Willem Van den Heuvel  : Paramagnetic NMR
   Boris Wezisla          : Elementary symmetry handling
   Frank Wennmohs         : Technical directorship


 We gratefully acknowledge several colleagues who have allowed us to
 interface, adapt or use parts of their codes:
   Stefan Grimme, W. Hujo, H. Kruse, P. Pracht,  : VdW corrections, initial TS optimization,
                  C. Bannwarth, S. Ehlert          DFT functionals, gCP, sTDA/sTD-DF
   Ed Valeev, F. Pavosevic, A. Kumar             : LibInt (2-el integral package), F12 methods
   Garnet Chan, S. Sharma, J. Yang, R. Olivares  : DMRG
   Ulf Ekstrom                                   : XCFun DFT Library
   Mihaly Kallay                                 : mrcc  (arbitrary order and MRCC methods)
   Jiri Pittner, Ondrej Demel                    : Mk-CCSD
   Frank Weinhold                                : gennbo (NPA and NBO analysis)
   Christopher J. Cramer and Donald G. Truhlar   : smd solvation model
   Lars Goerigk                                  : TD-DFT with DH, B97 family of functionals
   V. Asgeirsson, H. Jonsson                     : NEB implementation
   FAccTs GmbH                                   : IRC, NEB, NEB-TS, DLPNO-Multilevel, CI-OPT
                                                   MM, QMMM, 2- and 3-layer-ONIOM, Crystal-QMMM,
                                                   LR-CPCM, SF, NACMEs, symmetry and pop. for TD-DFT,
                                                   nearIR, NL-DFT gradient (VV10), updates on ESD,
                                                   ML-optimized integration grids
   S Lehtola, MJT Oliveira, MAL Marques          : LibXC Library
   Liviu Ungur et al                             : ANISO software


 Your calculation uses the libint2 library for the computation of 2-el integrals
 For citations please refer to: http://libint.valeyev.net

 Your ORCA version has been built with support for libXC version: 5.1.0
 For citations please refer to: https://tddft.org/programs/libxc/

 This ORCA versions uses:
   CBLAS   interface :  Fast vector & matrix operations
   LAPACKE interface :  Fast linear algebra routines
   SCALAPACK package :  Parallel linear algebra routines
   Shared memory     :  Shared parallel matrices
   BLAS/LAPACK       :  OpenBLAS 0.3.15  USE64BITINT DYNAMIC_ARCH NO_AFFINITY Haswell SINGLE_THREADED
        Core in use  :  Haswell
   Copyright (c) 2011-2014, The OpenBLAS Project




***************************************
The coordinates will be read from file: D2.xyz
***************************************


Your calculation utilizes the atom-pairwise dispersion correction
with the zero-damping scheme (D30)
Cite in your paper:
S.Grimme, J.Antony, S.Ehrlich and H.Krieg, J.Chem.Phys., 132, (2010), 154104 
   

XCFun DFT library Copyright 2009-2010 Ulf Ekstrom and contributors.
See http://admol.org/xcfun for more information.
This is free software; see the source code for copying conditions.
There is ABSOLUTELY NO WARRANTY; not even for MERCHANTABILITY or FITNESS FOR A PARTICULAR PURPOSE.
For details see the documentation.
Scientific users of this library should cite U. Ekstrom, L. Visscher, R. Bast, A. J. Thorvaldsen and K. Ruud;
J.Chem.Theor.Comp. 2010, DOI: 10.1021/ct100117s
XCFun Version 0.99 

================================================================================

----- Orbital basis set information -----
Your calculation utilizes the basis: def2-TZVPD
   F. Weigend and R. Ahlrichs, Phys. Chem. Chem. Phys. 7, 3297 (2005).
   D. Rappoport and F. Furche, J. Chem. Phys. 133 134105 (2010).

----- AuxJ basis set information -----
Your calculation utilizes the auxiliary basis: def2/J
   F. Weigend, Phys. Chem. Chem. Phys. 8, 1057 (2006).

================================================================================
                                        WARNINGS
                       Please study these warnings very carefully!
================================================================================


WARNING: Minnesota functionals are quite sensitive to the integration grid.
         see SE Wheeler, KN Houk, JCTC 2010, 6, 395,
             N Mardirossian, M Head-Gordon, JCTC 2016, 12, 4303.
         DEFGRID3 seems to be a minimum grid for reliable results with these functionals!
  ===> : Please increase the integration grid!


INFO   : the flag for use of the SHARK integral package has been found!

================================================================================
                                       INPUT FILE
================================================================================
NAME = 28Oct_TZVPD_M062X_D2_wb97.com
|  1> !M062X D3Zero RIJCOSX def2-TZVPD def2/J TightSCF xyzfile                                                                                         
|  2> 
|  3> *xyzfile 0 1 D2.xyz
|  4> 
|  5> %MaxCore 64000
|  6> 
|  7> %pal nprocs 4                                                                                                                                                  
|  8> end  
|  9> 
| 10> %scf
| 11>   MaxIter 150
| 12> end
| 13> 
| 14> 
| 15>                          ****END OF INPUT****
================================================================================

                       ****************************
                       * Single Point Calculation *
                       ****************************

---------------------------------
CARTESIAN COORDINATES (ANGSTROEM)
---------------------------------
  C      2.486452   -2.677121   -2.563447
  C     -0.870963    0.248043   -2.662804
  C     -0.477492    0.608191   -4.101052
  H      0.206773    1.458299   -4.118748
  H     -1.368442    0.929419   -4.647855
  C      0.184673   -0.506640   -4.916760
  C      3.037640   -2.366715   -3.923509
  N      2.280360   -2.454408   -4.967692
  C      4.321736   -2.017932   -4.016641
  H      4.879940   -1.911668   -3.173823
  H      4.710148   -1.670882   -4.883561
  H      1.270423   -2.412650   -4.866143
  H      2.581829   -2.055282   -5.846878
  F     -0.158685   -1.701088   -4.657981
  O      1.055938   -0.174410   -5.740373
  C      2.497991   -1.469464   -1.610303
  C      1.582841   -0.321986   -2.042619
  H      2.193083   -1.833912   -0.625420
  H      3.523356   -1.103982   -1.490392
  C      0.100160   -0.673551   -1.915815
  H      1.822311   -0.040361   -3.072834
  H      1.813180    0.557019   -1.433266
  H     -0.063284   -1.679120   -2.301112
  H     -0.168820   -0.691680   -0.853831
  H     -1.001048    1.181040   -2.104071
  H     -1.844645   -0.246592   -2.663281
  H      1.472592   -3.051527   -2.694366
  H      3.083201   -3.490638   -2.141472

----------------------------
CARTESIAN COORDINATES (A.U.)
----------------------------
  NO LB      ZA    FRAG     MASS         X           Y           Z
   0 C     6.0000    0    12.011    4.698713   -5.059026   -4.844214
   1 C     6.0000    0    12.011   -1.645881    0.468734   -5.031970
   2 C     6.0000    0    12.011   -0.902329    1.149314   -7.749864
   3 H     1.0000    0     1.008    0.390744    2.755786   -7.783305
   4 H     1.0000    0     1.008   -2.585980    1.756347   -8.783173
   5 C     6.0000    0    12.011    0.348982   -0.957411   -9.291330
   6 C     6.0000    0    12.011    5.740308   -4.472444   -7.414358
   7 N     7.0000    0    14.007    4.309256   -4.638160   -9.387577
   8 C     6.0000    0    12.011    8.166898   -3.813339   -7.590352
   9 H     1.0000    0     1.008    9.221751   -3.612530   -5.997657
  10 H     1.0000    0     1.008    8.900891   -3.157510   -9.228594
  11 H     1.0000    0     1.008    2.400752   -4.559248   -9.195678
  12 H     1.0000    0     1.008    4.878950   -3.883920  -11.048997
  13 F     9.0000    0    18.998   -0.299872   -3.214590   -8.802309
  14 O     8.0000    0    15.999    1.995434   -0.329587  -10.847733
  15 C     6.0000    0    12.011    4.720518   -2.776884   -3.043032
  16 C     6.0000    0    12.011    2.991136   -0.608465   -3.859991
  17 H     1.0000    0     1.008    4.144326   -3.465591   -1.181872
  18 H     1.0000    0     1.008    6.658177   -2.086223   -2.816433
  19 C     6.0000    0    12.011    0.189274   -1.272828   -3.620365
  20 H     1.0000    0     1.008    3.443670   -0.076270   -5.806816
  21 H     1.0000    0     1.008    3.426413    1.052613   -2.708480
  22 H     1.0000    0     1.008   -0.119590   -3.173077   -4.348471
  23 H     1.0000    0     1.008   -0.319023   -1.307086   -1.613507
  24 H     1.0000    0     1.008   -1.891707    2.231842   -3.976118
  25 H     1.0000    0     1.008   -3.485874   -0.465991   -5.032871
  26 H     1.0000    0     1.008    2.782796   -5.766551   -5.091613
  27 H     1.0000    0     1.008    5.826406   -6.596350   -4.046796

--------------------------------
INTERNAL COORDINATES (ANGSTROEM)
--------------------------------
 C      0   0   0     0.000000000000     0.00000000     0.00000000
 C      1   0   0     4.454064584838     0.00000000     0.00000000
 C      2   1   0     1.533976128106    88.95459771     0.00000000
 H      3   2   1     1.091428365082   111.03171716   267.18333495
 H      3   2   1     1.093605109075   109.19532305   150.78855748
 C      3   2   1     1.531891446481   116.05722258    29.22456704
 C      1   2   3     1.499976287048    96.94160158     3.38330059
 N      7   1   2     1.292857194550   120.20153047   303.68195089
 C      7   1   2     1.333876682499   118.11023474   124.45999682
 H      9   7   1     1.016476835198   119.87469438   356.11519397
 H      9   7   1     1.011364586483   121.28466771   188.91527382
 H      8   7   1     1.015888226098   119.91986722    21.20577831
 H      8   7   1     1.011510284844   120.04373343   166.48528981
 F      6   3   2     1.269474918861   117.34059584    31.12063894
 O      6   3   2     1.244113151722   117.44399281   214.04914813
 C      1   2   3     1.538522864266    60.26212524   116.36906125
 C     16   1   2     1.530066108002   114.15104694   340.47209586
 H     16   1   2     1.093520442632   107.11405723   102.15692623
 H     16   1   2     1.095138864356   109.68305791   216.63029446
 C     17  16   1     1.529059344857   112.58830136    69.60978898
 H     17  16   1     1.094532649112   109.15039882   306.58294366
 H     17  16   1     1.094082501574   108.61687115   191.73619769
 H     20  17  16     1.089190578302   109.17429135   316.14372051
 H     20  17  16     1.095667243895   108.79798208    72.47390166
 H      2   1   3     1.095256859472   129.61268061   247.30838146
 H      2   1   3     1.092117796530   111.99987238   110.70635839
 H      1   2   3     1.088683249565    61.39264096   256.95470119
 H      1   2   3     1.093610044098   155.29380908   188.74897233

---------------------------
INTERNAL COORDINATES (A.U.)
---------------------------
 C      0   0   0     0.000000000000     0.00000000     0.00000000
 C      1   0   0     8.416962248141     0.00000000     0.00000000
 C      2   1   0     2.898794778093    88.95459771     0.00000000
 H      3   2   1     2.062500704798   111.03171716   267.18333495
 H      3   2   1     2.066614154809   109.19532305   150.78855748
 C      3   2   1     2.894855300746   116.05722258    29.22456704
 C      1   2   3     2.834544389897    96.94160158     3.38330059
 N      7   1   2     2.443146027969   120.20153047   303.68195089
 C      7   1   2     2.520661626346   118.11023474   124.45999682
 H      9   7   1     1.920862840000   119.87469438   356.11519397
 H      9   7   1     1.911202090000   121.28466771   188.91527382
 H      8   7   1     1.919750530000   119.91986722    21.20577831
 H      8   7   1     1.911477420000   120.04373343   166.48528981
 F      6   3   2     2.398959930530   117.34059584    31.12063894
 O      6   3   2     2.351033136364   117.44399281   214.04914813
 C      1   2   3     2.907386864238    60.26212524   116.36906125
 C     16   1   2     2.891405910918   114.15104694   340.47209586
 H     16   1   2     2.066454158419   107.11405723   102.15692623
 H     16   1   2     2.069512532246   109.68305791   216.63029446
 C     17  16   1     2.889503404292   112.58830136    69.60978898
 H     17  16   1     2.068366951457   109.15039882   306.58294366
 H     17  16   1     2.067516295890   108.61687115   191.73619769
 H     20  17  16     2.058271900637   109.17429135   316.14372051
 H     20  17  16     2.070511024871   108.79798208    72.47390166
 H      2   1   3     2.069735510701   129.61268061   247.30838146
 H      2   1   3     2.063803541424   111.99987238   110.70635839
 H      1   2   3     2.057313188266    61.39264096   256.95470119
 H      1   2   3     2.066623480650   155.29380908   188.74897233

---------------------
BASIS SET INFORMATION
---------------------
There are 5 groups of distinct atoms

 Group   1 Type C   : 12s6p3d1f contracted to 6s3p3d1f pattern {621111/411/111/1}
 Group   2 Type H   : 5s2p contracted to 3s2p pattern {311/11}
 Group   3 Type N   : 12s6p3d1f contracted to 6s3p3d1f pattern {621111/411/111/1}
 Group   4 Type F   : 12s7p3d1f contracted to 6s4p3d1f pattern {621111/4111/111/1}
 Group   5 Type O   : 12s7p3d1f contracted to 6s4p3d1f pattern {621111/4111/111/1}

Atom   0C    basis set group =>   1
Atom   1C    basis set group =>   1
Atom   2C    basis set group =>   1
Atom   3H    basis set group =>   2
Atom   4H    basis set group =>   2
Atom   5C    basis set group =>   1
Atom   6C    basis set group =>   1
Atom   7N    basis set group =>   3
Atom   8C    basis set group =>   1
Atom   9H    basis set group =>   2
Atom  10H    basis set group =>   2
Atom  11H    basis set group =>   2
Atom  12H    basis set group =>   2
Atom  13F    basis set group =>   4
Atom  14O    basis set group =>   5
Atom  15C    basis set group =>   1
Atom  16C    basis set group =>   1
Atom  17H    basis set group =>   2
Atom  18H    basis set group =>   2
Atom  19C    basis set group =>   1
Atom  20H    basis set group =>   2
Atom  21H    basis set group =>   2
Atom  22H    basis set group =>   2
Atom  23H    basis set group =>   2
Atom  24H    basis set group =>   2
Atom  25H    basis set group =>   2
Atom  26H    basis set group =>   2
Atom  27H    basis set group =>   2
---------------------------------
AUXILIARY/J BASIS SET INFORMATION
---------------------------------
There are 5 groups of distinct atoms

 Group   1 Type C   : 12s5p4d2f1g contracted to 6s4p3d1f1g pattern {711111/2111/211/2/1}
 Group   2 Type H   : 5s2p1d contracted to 3s1p1d pattern {311/2/1}
 Group   3 Type N   : 12s5p4d2f1g contracted to 6s4p3d1f1g pattern {711111/2111/211/2/1}
 Group   4 Type F   : 12s5p4d2f1g contracted to 6s4p3d1f1g pattern {711111/2111/211/2/1}
 Group   5 Type O   : 12s5p4d2f1g contracted to 6s4p3d1f1g pattern {711111/2111/211/2/1}

Atom   0C    basis set group =>   1
Atom   1C    basis set group =>   1
Atom   2C    basis set group =>   1
Atom   3H    basis set group =>   2
Atom   4H    basis set group =>   2
Atom   5C    basis set group =>   1
Atom   6C    basis set group =>   1
Atom   7N    basis set group =>   3
Atom   8C    basis set group =>   1
Atom   9H    basis set group =>   2
Atom  10H    basis set group =>   2
Atom  11H    basis set group =>   2
Atom  12H    basis set group =>   2
Atom  13F    basis set group =>   4
Atom  14O    basis set group =>   5
Atom  15C    basis set group =>   1
Atom  16C    basis set group =>   1
Atom  17H    basis set group =>   2
Atom  18H    basis set group =>   2
Atom  19C    basis set group =>   1
Atom  20H    basis set group =>   2
Atom  21H    basis set group =>   2
Atom  22H    basis set group =>   2
Atom  23H    basis set group =>   2
Atom  24H    basis set group =>   2
Atom  25H    basis set group =>   2
Atom  26H    basis set group =>   2
Atom  27H    basis set group =>   2


           ************************************************************
           *        Program running with 4 parallel MPI-processes     *
           *              working on a common directory               *
           ************************************************************
------------------------------------------------------------------------------
                           ORCA GTO INTEGRAL CALCULATION
                           -- RI-GTO INTEGRALS CHOSEN --
------------------------------------------------------------------------------
------------------------------------------------------------------------------
                   ___                                                        
                  /   \      - P O W E R E D   B Y -                         
                 /     \                                                     
                 |  |  |   _    _      __       _____    __    __             
                 |  |  |  | |  | |    /  \     |  _  \  |  |  /  |          
                  \  \/   | |  | |   /    \    | | | |  |  | /  /          
                 / \  \   | |__| |  /  /\  \   | |_| |  |  |/  /          
                |  |  |   |  __  | /  /__\  \  |    /   |      \           
                |  |  |   | |  | | |   __   |  |    \   |  |\   \          
                \     /   | |  | | |  |  |  |  | |\  \  |  | \   \       
                 \___/    |_|  |_| |__|  |__|  |_| \__\ |__|  \__/        
                                                                              
                      - O R C A' S   B I G   F R I E N D -                    
                                      &                                       
                       - I N T E G R A L  F E E D E R -                       
                                                                              
 v1 FN, 2020, v2 2021                                                         
------------------------------------------------------------------------------


Reading SHARK input file 28Oct_TZVPD_M062X_D2_wb97.SHARKINP.tmp ... ok
----------------------
SHARK INTEGRAL PACKAGE
----------------------

Number of atoms                             ...     28
Number of basis functions                   ...    594
Number of shells                            ...    238
Maximum angular momentum                    ...      3
Integral batch strategy                     ... SHARK/LIBINT Hybrid
RI-J (if used) integral strategy            ... SPLIT-RIJ (Revised 2003 algorithm where possible)
Printlevel                                  ...      1
Contraction scheme used                     ... SEGMENTED contraction
Coulomb Range Separation                    ... NOT USED
Exchange Range Separation                   ... NOT USED
Finite Nucleus Model                        ... NOT USED
Auxiliary Coulomb fitting basis             ... AVAILABLE
   # of basis functions in Aux-J            ...    764
   # of shells in Aux-J                     ...    260
   Maximum angular momentum in Aux-J        ...      4
Auxiliary J/K fitting basis                 ... NOT available
Auxiliary Correlation fitting basis         ... NOT available
Auxiliary 'external' fitting basis          ... NOT available
Integral threshold                          ...     2.500000e-11
Primitive cut-off                           ...     2.500000e-12
Primitive pair pre-selection threshold      ...     2.500000e-12

Calculating pre-screening integrals         ... done (  0.2 sec) Dimension = 238
Organizing shell pair data                  ... done (  0.2 sec)
Shell pair information
Total number of shell pairs                 ...     28441
Shell pairs after pre-screening             ...     25965
Total number of primitive shell pairs       ...     71943
Primitive shell pairs kept                  ...     50471
          la=0 lb=0:   6336 shell pairs
          la=1 lb=0:   7730 shell pairs
          la=1 lb=1:   2366 shell pairs
          la=2 lb=0:   3993 shell pairs
          la=2 lb=1:   2406 shell pairs
          la=2 lb=2:    642 shell pairs
          la=3 lb=0:   1233 shell pairs
          la=3 lb=1:    776 shell pairs
          la=3 lb=2:    410 shell pairs
          la=3 lb=3:     73 shell pairs

Calculating one electron integrals          ... done (  0.1 sec)
Calculating RI/J V-Matrix + Cholesky decomp.... done (  0.1 sec)
Calculating Nuclear repulsion               ... done (  0.0 sec) ENN=    785.809208951580 Eh

SHARK setup successfully completed in   0.6 seconds

Maximum memory used throughout the entire GTOINT-calculation: 38.1 MB


           ************************************************************
           *        Program running with 4 parallel MPI-processes     *
           *              working on a common directory               *
           ************************************************************
-------------------------------------------------------------------------------
                                 ORCA SCF
-------------------------------------------------------------------------------

------------
SCF SETTINGS
------------
Hamiltonian:
 Density Functional     Method          .... DFT(GTOs)
 Exchange Functional    Exchange        .... M062X
 Correlation Functional Correlation     .... M062X
 Gradients option       PostSCFGGA      .... off
 Hybrid DFT is turned on
   Fraction HF Exchange ScalHFX         ....  0.540000
   Scaling of DF-GGA-X  ScalDFX         ....  0.460000
   Scaling of DF-GGA-C  ScalDFC         ....  1.000000
   Scaling of DF-LDA-C  ScalLDAC        ....  1.000000
   Perturbative correction              ....  0.000000
   Density functional embedding theory  .... OFF
 RI-approximation to the Coulomb term is turned on
   Number of AuxJ basis functions       .... 764
   RIJ-COSX (HFX calculated with COS-X)).... on


General Settings:
 Integral files         IntName         .... 28Oct_TZVPD_M062X_D2_wb97
 Hartree-Fock type      HFTyp           .... RHF
 Total Charge           Charge          ....    0
 Multiplicity           Mult            ....    1
 Number of Electrons    NEL             ....   94
 Basis Dimension        Dim             ....  594
 Nuclear Repulsion      ENuc            ....    785.8092089516 Eh

Convergence Acceleration:
 DIIS                   CNVDIIS         .... on
   Start iteration      DIISMaxIt       ....    12
   Startup error        DIISStart       ....  0.200000
   # of expansion vecs  DIISMaxEq       ....     5
   Bias factor          DIISBfac        ....   1.050
   Max. coefficient     DIISMaxC        ....  10.000
 Trust-Rad. Augm. Hess. CNVTRAH         .... auto
   Auto Start mean grad. ratio tolernc. ....  1.125000
   Auto Start start iteration           ....    20
   Auto Start num. interpolation iter.  ....    10
   Max. Number of Micro iterations      ....    16
   Max. Number of Macro iterations      .... Maxiter - #DIIS iter
   Number of Davidson start vectors     ....     2
   Converg. threshold I  (grad. norm)   ....   1.000e-05
   Converg. threshold II (energy diff.) ....   1.000e-08
   Grad. Scal. Fac. for Micro threshold ....   0.100
   Minimum threshold for Micro iter.    ....   0.010
   NR start threshold (gradient norm)   ....   0.001
   Initial trust radius                 ....   0.400
   Minimum AH scaling param. (alpha)    ....   1.000
   Maximum AH scaling param. (alpha)    .... 1000.000
   Orbital update algorithm             .... Taylor
   White noise on init. David. guess    .... on
   Maximum white noise                  ....   0.010
   Quad. conv. algorithm                .... NR
 SOSCF                  CNVSOSCF        .... on
   Start iteration      SOSCFMaxIt      ....   150
   Startup grad/error   SOSCFStart      ....  0.003300
 Level Shifting         CNVShift        .... on
   Level shift para.    LevelShift      ....    0.2500
   Turn off err/grad.   ShiftErr        ....    0.0010
 Zerner damping         CNVZerner       .... off
 Static damping         CNVDamp         .... on
   Fraction old density DampFac         ....    0.7000
   Max. Damping (<1)    DampMax         ....    0.9800
   Min. Damping (>=0)   DampMin         ....    0.0000
   Turn off err/grad.   DampErr         ....    0.1000
 Fernandez-Rico         CNVRico         .... off

SCF Procedure:
 Maximum # iterations   MaxIter         ....   150
 SCF integral mode      SCFMode         .... Direct
   Integral package                     .... SHARK and LIBINT hybrid scheme
 Reset frequency        DirectResetFreq ....    20
 Integral Threshold     Thresh          ....  2.500e-11 Eh
 Primitive CutOff       TCut            ....  2.500e-12 Eh

Convergence Tolerance:
 Convergence Check Mode ConvCheckMode   .... Total+1el-Energy
 Convergence forced     ConvForced      .... 0
 Energy Change          TolE            ....  1.000e-08 Eh
 1-El. energy change                    ....  1.000e-05 Eh
 Orbital Gradient       TolG            ....  1.000e-05
 Orbital Rotation angle TolX            ....  1.000e-05
 DIIS Error             TolErr          ....  5.000e-07


Diagonalization of the overlap matrix:
Smallest eigenvalue                        ... 1.897e-06
Time for diagonalization                   ...    0.077 sec
Threshold for overlap eigenvalues          ... 1.000e-08
Number of eigenvalues below threshold      ... 0
Time for construction of square roots      ...    0.100 sec
Total time needed                          ...    0.180 sec

Time for model grid setup =    0.334 sec

------------------------------
INITIAL GUESS: MODEL POTENTIAL
------------------------------
Loading Hartree-Fock densities                     ... done
Calculating cut-offs                               ... done
Initializing the effective Hamiltonian             ... done
Setting up the integral package (SHARK)            ... done
Starting the Coulomb interaction                   ... done (   0.6 sec)
Reading the grid                                   ... done
Mapping shells                                     ... done
Starting the XC term evaluation                    ... done (   0.8 sec)
  promolecular density results
     # of electrons  =     93.988849545
     EX              =    -75.545225181
     EC              =     -3.145969350
     EX+EC           =    -78.691194531
Transforming the Hamiltonian                       ... done (   0.0 sec)
Diagonalizing the Hamiltonian                      ... done (   0.1 sec)
Back transforming the eigenvectors                 ... done (   0.0 sec)
Now organizing SCF variables                       ... done
                      ------------------
                      INITIAL GUESS DONE (   1.9 sec)
                      ------------------
-------------------
DFT GRID GENERATION
-------------------

General Integration Accuracy     IntAcc      ... 4.388
Radial Grid Type                 RadialGrid  ... OptM3 with GC (2021)
Angular Grid (max. ang.)         AngularGrid ... 4 (Lebedev-302)
Angular grid pruning method      GridPruning ... 4 (adaptive)
Weight generation scheme         WeightScheme... Becke
Basis function cutoff            BFCut       ... 1.0000e-11
Integration weight cutoff        WCut        ... 1.0000e-14
Angular grids for H and He will be reduced by one unit
Partially contracted basis set               ... off
Rotationally invariant grid construction     ... off

Total number of grid points                  ...   127925
Total number of batches                      ...     2013
Average number of points per batch           ...       63
Average number of grid points per atom       ...     4569
Time for grid setup =    1.285 sec

--------------------
COSX GRID GENERATION
--------------------

GRIDX 1
-------
General Integration Accuracy     IntAcc      ... 3.816
Radial Grid Type                 RadialGrid  ... OptM3 with GC (2021)
Angular Grid (max. ang.)         AngularGrid ... 1 (Lebedev-50)
Angular grid pruning method      GridPruning ... 4 (adaptive)
Weight generation scheme         WeightScheme... Becke
Basis function cutoff            BFCut       ... 1.0000e-11
Integration weight cutoff        WCut        ... 1.0000e-14
Angular grids for H and He will be reduced by one unit
Partially contracted basis set               ... on
Rotationally invariant grid construction     ... off

Total number of grid points                  ...    15996
Total number of batches                      ...      267
Average number of points per batch           ...       59
Average number of grid points per atom       ...      571
UseSFitting                                  ... on

GRIDX 2
-------
General Integration Accuracy     IntAcc      ... 4.020
Radial Grid Type                 RadialGrid  ... OptM3 with GC (2021)
Angular Grid (max. ang.)         AngularGrid ... 2 (Lebedev-110)
Angular grid pruning method      GridPruning ... 4 (adaptive)
Weight generation scheme         WeightScheme... Becke
Basis function cutoff            BFCut       ... 1.0000e-11
Integration weight cutoff        WCut        ... 1.0000e-14
Angular grids for H and He will be reduced by one unit
Partially contracted basis set               ... on
Rotationally invariant grid construction     ... off

Total number of grid points                  ...    37112
Total number of batches                      ...      593
Average number of points per batch           ...       62
Average number of grid points per atom       ...     1325
UseSFitting                                  ... on

GRIDX 3
-------
General Integration Accuracy     IntAcc      ... 4.338
Radial Grid Type                 RadialGrid  ... OptM3 with GC (2021)
Angular Grid (max. ang.)         AngularGrid ... 3 (Lebedev-194)
Angular grid pruning method      GridPruning ... 4 (adaptive)
Weight generation scheme         WeightScheme... Becke
Basis function cutoff            BFCut       ... 1.0000e-11
Integration weight cutoff        WCut        ... 1.0000e-14
Angular grids for H and He will be reduced by one unit
Partially contracted basis set               ... on
Rotationally invariant grid construction     ... off

Total number of grid points                  ...    82514
Total number of batches                      ...     1301
Average number of points per batch           ...       63
Average number of grid points per atom       ...     2947
UseSFitting                                  ... on

Time for X-Grid setup             =    2.140 sec

--------------
SCF ITERATIONS
--------------
ITER       Energy         Delta-E        Max-DP      RMS-DP      [F,P]     Damp
               ***  Starting incremental Fock matrix formation  ***
  0   -581.8245293214   0.000000000000 0.26658075  0.00307715  0.2739781 0.7000
  1   -582.0497821768  -0.225252855434 0.30391190  0.00277882  0.1356105 0.7000
                               ***Turning on DIIS***
  2   -582.1497528027  -0.099970625845 0.63120486  0.00606678  0.0635689 0.0000
  3   -582.3054764948  -0.155723692129 0.24408741  0.00186450  0.0694396 0.0000
  4   -582.3366901149  -0.031213620088 0.09628848  0.00067441  0.0180309 0.0000
  5   -582.3377678250  -0.001077710070 0.03398233  0.00028301  0.0133709 0.0000
                      *** Initiating the SOSCF procedure ***
                           *** Shutting down DIIS ***
                      *** Re-Reading the Fockian *** 
                      *** Removing any level shift *** 
ITER      Energy       Delta-E        Grad      Rot      Max-DP    RMS-DP
  6   -582.33801932  -0.0002514910  0.000431  0.000431  0.017961  0.000142
               *** Restarting incremental Fock matrix formation ***
  7   -582.33803046  -0.0000111460  0.000198  0.000647  0.016876  0.000188
  8   -582.33803404  -0.0000035771  0.000144  0.000565  0.009704  0.000095
  9   -582.33803449  -0.0000004503  0.000104  0.000210  0.004656  0.000060
 10   -582.33803499  -0.0000004990  0.000021  0.000053  0.000943  0.000012
 11   -582.33803499  -0.0000000025  0.000020  0.000041  0.000634  0.000007
                  ***Gradient check signals convergence***
              ***Rediagonalizing the Fockian in SOSCF/NRSCF***

               *****************************************************
               *                     SUCCESS                       *
               *           SCF CONVERGED AFTER  12 CYCLES          *
               *****************************************************

Old exchange energy                            =    -41.810831274 Eh
New exchange energy                            =    -41.810831761 Eh
Exchange energy change after final integration =     -0.000000487 Eh
Total energy after final integration           =   -582.338035495 Eh
Final COS-X integration done in                =    38.581 sec

----------------
TOTAL SCF ENERGY
----------------

Total Energy       :         -582.33803550 Eh          -15846.22355 eV

Components:
Nuclear Repulsion  :          785.80920895 Eh           21382.95566 eV
Electronic Energy  :        -1368.14724445 Eh          -37229.17922 eV
One Electron Energy:        -2351.40315529 Eh          -63984.93279 eV
Two Electron Energy:          983.25591085 Eh           26755.75357 eV
Max COSX asymmetry :            0.00000675 Eh               0.00018 eV

Virial components:
Potential Energy   :        -1162.45156977 Eh          -31631.91535 eV
Kinetic Energy     :          580.11353427 Eh           15785.69180 eV
Virial Ratio       :            2.00383460


DFT components:
N(Alpha)           :       46.999941461019 electrons
N(Beta)            :       46.999941461019 electrons
N(Total)           :       93.999882922038 electrons
E(XC)              :      -38.974566490014 Eh       
DFET-embed. en.    :        0.000000000000 Eh       

---------------
SCF CONVERGENCE
---------------

  Last Energy change         ...   -1.7432e-08  Tolerance :   1.0000e-08
  Last MAX-Density change    ...    1.5543e-15  Tolerance :   1.0000e-07
  Last RMS-Density change    ...    1.5767e-17  Tolerance :   5.0000e-09
  Last Orbital Gradient      ...    2.4206e-06  Tolerance :   1.0000e-05
  Last Orbital Rotation      ...    4.6900e-06  Tolerance :   1.0000e-05

             **** THE GBW FILE WAS UPDATED (28Oct_TZVPD_M062X_D2_wb97.gbw) ****
             **** DENSITY 28Oct_TZVPD_M062X_D2_wb97.scfp WAS UPDATED ****
             **** ENERGY FILE WAS UPDATED (28Oct_TZVPD_M062X_D2_wb97.en.tmp) ****
             **** THE GBW FILE WAS UPDATED (28Oct_TZVPD_M062X_D2_wb97.gbw) ****
             **** DENSITY 28Oct_TZVPD_M062X_D2_wb97.scfp WAS UPDATED ****
----------------
ORBITAL ENERGIES
----------------

  NO   OCC          E(Eh)            E(eV) 
   0   2.0000     -25.340576      -689.5521 
   1   2.0000     -19.652894      -534.7824 
   2   2.0000     -14.725134      -400.6913 
   3   2.0000     -10.737849      -292.1917 
   4   2.0000     -10.575929      -287.7857 
   5   2.0000     -10.556641      -287.2608 
   6   2.0000     -10.546262      -286.9784 
   7   2.0000     -10.542244      -286.8690 
   8   2.0000     -10.535197      -286.6773 
   9   2.0000     -10.532014      -286.5907 
  10   2.0000     -10.529327      -286.5176 
  11   2.0000     -10.454117      -284.4710 
  12   2.0000      -1.490267       -40.5522 
  13   2.0000      -1.182548       -32.1788 
  14   2.0000      -1.033548       -28.1243 
  15   2.0000      -0.935809       -25.4647 
  16   2.0000      -0.893855       -24.3230 
  17   2.0000      -0.851150       -23.1610 
  18   2.0000      -0.804964       -21.9042 
  19   2.0000      -0.785454       -21.3733 
  20   2.0000      -0.758872       -20.6500 
  21   2.0000      -0.713682       -19.4203 
  22   2.0000      -0.686175       -18.6718 
  23   2.0000      -0.672509       -18.2999 
  24   2.0000      -0.659890       -17.9565 
  25   2.0000      -0.621430       -16.9100 
  26   2.0000      -0.593777       -16.1575 
  27   2.0000      -0.572763       -15.5857 
  28   2.0000      -0.555721       -15.1219 
  29   2.0000      -0.550326       -14.9751 
  30   2.0000      -0.543781       -14.7970 
  31   2.0000      -0.516687       -14.0598 
  32   2.0000      -0.499822       -13.6008 
  33   2.0000      -0.489837       -13.3292 
  34   2.0000      -0.476055       -12.9541 
  35   2.0000      -0.461902       -12.5690 
  36   2.0000      -0.453189       -12.3319 
  37   2.0000      -0.444168       -12.0864 
  38   2.0000      -0.431443       -11.7402 
  39   2.0000      -0.419727       -11.4214 
  40   2.0000      -0.407592       -11.0911 
  41   2.0000      -0.403447       -10.9784 
  42   2.0000      -0.391782       -10.6609 
  43   2.0000      -0.382378       -10.4050 
  44   2.0000      -0.374766       -10.1979 
  45   2.0000      -0.370597       -10.0845 
  46   2.0000      -0.226745        -6.1700 
  47   0.0000      -0.003709        -0.1009 
  48   0.0000       0.004413         0.1201 
  49   0.0000       0.021823         0.5938 
  50   0.0000       0.023373         0.6360 
  51   0.0000       0.028421         0.7734 
  52   0.0000       0.047357         1.2886 
  53   0.0000       0.048536         1.3207 
  54   0.0000       0.050579         1.3763 
  55   0.0000       0.054417         1.4808 
  56   0.0000       0.059928         1.6307 
  57   0.0000       0.077964         2.1215 
  58   0.0000       0.078823         2.1449 
  59   0.0000       0.085829         2.3355 
  60   0.0000       0.089096         2.4244 
  61   0.0000       0.095358         2.5948 
  62   0.0000       0.102961         2.8017 
  63   0.0000       0.106255         2.8914 
  64   0.0000       0.106971         2.9108 
  65   0.0000       0.121210         3.2983 
  66   0.0000       0.127508         3.4697 
  67   0.0000       0.135748         3.6939 
  68   0.0000       0.136911         3.7255 
  69   0.0000       0.140566         3.8250 
  70   0.0000       0.152827         4.1586 
  71   0.0000       0.153779         4.1845 
  72   0.0000       0.161076         4.3831 
  73   0.0000       0.167509         4.5581 
  74   0.0000       0.170624         4.6429 
  75   0.0000       0.173579         4.7233 
  76   0.0000       0.175702         4.7811 
  77   0.0000       0.182534         4.9670 
  78   0.0000       0.189036         5.1439 
  79   0.0000       0.195947         5.3320 
  80   0.0000       0.202460         5.5092 
  81   0.0000       0.207358         5.6425 
  82   0.0000       0.210063         5.7161 
  83   0.0000       0.213552         5.8110 
  84   0.0000       0.216514         5.8916 
  85   0.0000       0.218906         5.9567 
  86   0.0000       0.223696         6.0871 
  87   0.0000       0.228538         6.2188 
  88   0.0000       0.235264         6.4019 
  89   0.0000       0.236763         6.4426 
  90   0.0000       0.241176         6.5627 
  91   0.0000       0.243763         6.6331 
  92   0.0000       0.251996         6.8572 
  93   0.0000       0.253860         6.9079 
  94   0.0000       0.260026         7.0757 
  95   0.0000       0.261602         7.1185 
  96   0.0000       0.264019         7.1843 
  97   0.0000       0.268380         7.3030 
  98   0.0000       0.272359         7.4113 
  99   0.0000       0.274600         7.4722 
 100   0.0000       0.279498         7.6055 
 101   0.0000       0.280609         7.6358 
 102   0.0000       0.286496         7.7960 
 103   0.0000       0.288565         7.8523 
 104   0.0000       0.291586         7.9345 
 105   0.0000       0.299795         8.1578 
 106   0.0000       0.300793         8.1850 
 107   0.0000       0.304326         8.2811 
 108   0.0000       0.307169         8.3585 
 109   0.0000       0.312348         8.4994 
 110   0.0000       0.316284         8.6065 
 111   0.0000       0.318986         8.6801 
 112   0.0000       0.321420         8.7463 
 113   0.0000       0.330459         8.9922 
 114   0.0000       0.333495         9.0749 
 115   0.0000       0.334901         9.1131 
 116   0.0000       0.338267         9.2047 
 117   0.0000       0.342468         9.3190 
 118   0.0000       0.346563         9.4305 
 119   0.0000       0.352462         9.5910 
 120   0.0000       0.354255         9.6398 
 121   0.0000       0.358282         9.7494 
 122   0.0000       0.359062         9.7706 
 123   0.0000       0.361889         9.8475 
 124   0.0000       0.364851         9.9281 
 125   0.0000       0.372796        10.1443 
 126   0.0000       0.376773        10.2525 
 127   0.0000       0.381467        10.3802 
 128   0.0000       0.383940        10.4475 
 129   0.0000       0.387466        10.5435 
 130   0.0000       0.390715        10.6319 
 131   0.0000       0.394752        10.7417 
 132   0.0000       0.401989        10.9387 
 133   0.0000       0.406446        11.0600 
 134   0.0000       0.407967        11.1013 
 135   0.0000       0.409476        11.1424 
 136   0.0000       0.413519        11.2524 
 137   0.0000       0.419235        11.4080 
 138   0.0000       0.426137        11.5958 
 139   0.0000       0.428645        11.6640 
 140   0.0000       0.433674        11.8009 
 141   0.0000       0.434812        11.8318 
 142   0.0000       0.440334        11.9821 
 143   0.0000       0.444152        12.0860 
 144   0.0000       0.448196        12.1960 
 145   0.0000       0.454745        12.3742 
 146   0.0000       0.457458        12.4481 
 147   0.0000       0.463268        12.6062 
 148   0.0000       0.467581        12.7235 
 149   0.0000       0.469059        12.7637 
 150   0.0000       0.472363        12.8537 
 151   0.0000       0.473124        12.8743 
 152   0.0000       0.479038        13.0353 
 153   0.0000       0.486311        13.2332 
 154   0.0000       0.488925        13.3043 
 155   0.0000       0.495025        13.4703 
 156   0.0000       0.498235        13.5577 
 157   0.0000       0.501754        13.6534 
 158   0.0000       0.505189        13.7469 
 159   0.0000       0.512470        13.9450 
 160   0.0000       0.515737        14.0339 
 161   0.0000       0.517260        14.0754 
 162   0.0000       0.519938        14.1482 
 163   0.0000       0.527665        14.3585 
 164   0.0000       0.534495        14.5443 
 165   0.0000       0.539027        14.6677 
 166   0.0000       0.540796        14.7158 
 167   0.0000       0.546145        14.8614 
 168   0.0000       0.549840        14.9619 
 169   0.0000       0.554474        15.0880 
 170   0.0000       0.556547        15.1444 
 171   0.0000       0.563445        15.3321 
 172   0.0000       0.569740        15.5034 
 173   0.0000       0.572819        15.5872 
 174   0.0000       0.582520        15.8512 
 175   0.0000       0.584836        15.9142 
 176   0.0000       0.594758        16.1842 
 177   0.0000       0.598452        16.2847 
 178   0.0000       0.600665        16.3449 
 179   0.0000       0.602250        16.3880 
 180   0.0000       0.610193        16.6042 
 181   0.0000       0.617092        16.7919 
 182   0.0000       0.618855        16.8399 
 183   0.0000       0.623394        16.9634 
 184   0.0000       0.632856        17.2209 
 185   0.0000       0.633818        17.2471 
 186   0.0000       0.639717        17.4076 
 187   0.0000       0.646114        17.5816 
 188   0.0000       0.647705        17.6249 
 189   0.0000       0.658423        17.9166 
 190   0.0000       0.659096        17.9349 
 191   0.0000       0.667324        18.1588 
 192   0.0000       0.671473        18.2717 
 193   0.0000       0.678645        18.4669 
 194   0.0000       0.681845        18.5540 
 195   0.0000       0.691825        18.8255 
 196   0.0000       0.695386        18.9224 
 197   0.0000       0.697383        18.9768 
 198   0.0000       0.700097        19.0506 
 199   0.0000       0.702754        19.1229 
 200   0.0000       0.708842        19.2886 
 201   0.0000       0.714759        19.4496 
 202   0.0000       0.715491        19.4695 
 203   0.0000       0.723913        19.6987 
 204   0.0000       0.726752        19.7759 
 205   0.0000       0.729944        19.8628 
 206   0.0000       0.736449        20.0398 
 207   0.0000       0.740205        20.1420 
 208   0.0000       0.744268        20.2526 
 209   0.0000       0.752299        20.4711 
 210   0.0000       0.757847        20.6221 
 211   0.0000       0.760562        20.6960 
 212   0.0000       0.762064        20.7368 
 213   0.0000       0.766378        20.8542 
 214   0.0000       0.768822        20.9207 
 215   0.0000       0.780768        21.2458 
 216   0.0000       0.781606        21.2686 
 217   0.0000       0.783060        21.3081 
 218   0.0000       0.792267        21.5587 
 219   0.0000       0.795674        21.6514 
 220   0.0000       0.803916        21.8757 
 221   0.0000       0.808900        22.0113 
 222   0.0000       0.817327        22.2406 
 223   0.0000       0.820562        22.3286 
 224   0.0000       0.824583        22.4380 
 225   0.0000       0.827346        22.5132 
 226   0.0000       0.839608        22.8469 
 227   0.0000       0.843966        22.9655 
 228   0.0000       0.845155        22.9978 
 229   0.0000       0.860490        23.4151 
 230   0.0000       0.864599        23.5269 
 231   0.0000       0.867233        23.5986 
 232   0.0000       0.874320        23.7915 
 233   0.0000       0.883329        24.0366 
 234   0.0000       0.888929        24.1890 
 235   0.0000       0.898198        24.4412 
 236   0.0000       0.899544        24.4778 
 237   0.0000       0.902589        24.5607 
 238   0.0000       0.908293        24.7159 
 239   0.0000       0.920059        25.0361 
 240   0.0000       0.926118        25.2009 
 241   0.0000       0.936427        25.4815 
 242   0.0000       0.942544        25.6479 
 243   0.0000       0.951905        25.9026 
 244   0.0000       0.957824        26.0637 
 245   0.0000       0.958950        26.0943 
 246   0.0000       0.969691        26.3866 
 247   0.0000       0.976799        26.5800 
 248   0.0000       0.985908        26.8279 
 249   0.0000       0.989848        26.9351 
 250   0.0000       0.996601        27.1189 
 251   0.0000       1.005694        27.3663 
 252   0.0000       1.019407        27.7395 
 253   0.0000       1.029276        28.0080 
 254   0.0000       1.031308        28.0633 
 255   0.0000       1.039221        28.2786 
 256   0.0000       1.050929        28.5972 
 257   0.0000       1.054548        28.6957 
 258   0.0000       1.070213        29.1220 
 259   0.0000       1.077522        29.3209 
 260   0.0000       1.095641        29.8139 
 261   0.0000       1.102789        30.0084 
 262   0.0000       1.107793        30.1446 
 263   0.0000       1.124115        30.5887 
 264   0.0000       1.132849        30.8264 
 265   0.0000       1.157738        31.5037 
 266   0.0000       1.162728        31.6394 
 267   0.0000       1.169970        31.8365 
 268   0.0000       1.188088        32.3295 
 269   0.0000       1.189943        32.3800 
 270   0.0000       1.208540        32.8860 
 271   0.0000       1.218730        33.1633 
 272   0.0000       1.234040        33.5799 
 273   0.0000       1.252219        34.0746 
 274   0.0000       1.261011        34.3139 
 275   0.0000       1.268979        34.5307 
 276   0.0000       1.275939        34.7201 
 277   0.0000       1.287625        35.0381 
 278   0.0000       1.291154        35.1341 
 279   0.0000       1.313876        35.7524 
 280   0.0000       1.326530        36.0967 
 281   0.0000       1.335734        36.3472 
 282   0.0000       1.339383        36.4465 
 283   0.0000       1.353793        36.8386 
 284   0.0000       1.360743        37.0277 
 285   0.0000       1.379515        37.5385 
 286   0.0000       1.388769        37.7903 
 287   0.0000       1.391849        37.8741 
 288   0.0000       1.402722        38.1700 
 289   0.0000       1.416984        38.5581 
 290   0.0000       1.426550        38.8184 
 291   0.0000       1.431003        38.9396 
 292   0.0000       1.442620        39.2557 
 293   0.0000       1.449272        39.4367 
 294   0.0000       1.459694        39.7203 
 295   0.0000       1.470807        40.0227 
 296   0.0000       1.475486        40.1500 
 297   0.0000       1.497807        40.7574 
 298   0.0000       1.505125        40.9565 
 299   0.0000       1.505416        40.9645 
 300   0.0000       1.519047        41.3354 
 301   0.0000       1.539557        41.8935 
 302   0.0000       1.552106        42.2350 
 303   0.0000       1.570417        42.7332 
 304   0.0000       1.579596        42.9830 
 305   0.0000       1.605001        43.6743 
 306   0.0000       1.617679        44.0193 
 307   0.0000       1.626194        44.2510 
 308   0.0000       1.638295        44.5803 
 309   0.0000       1.675779        45.6003 
 310   0.0000       1.687359        45.9154 
 311   0.0000       1.702476        46.3267 
 312   0.0000       1.734306        47.1929 
 313   0.0000       1.782770        48.5116 
 314   0.0000       1.816681        49.4344 
 315   0.0000       1.834554        49.9207 
 316   0.0000       1.850000        50.3411 
 317   0.0000       1.856658        50.5222 
 318   0.0000       1.864966        50.7483 
 319   0.0000       1.873481        50.9800 
 320   0.0000       1.877331        51.0848 
 321   0.0000       1.882051        51.2132 
 322   0.0000       1.892846        51.5070 
 323   0.0000       1.903409        51.7944 
 324   0.0000       1.906366        51.8749 
 325   0.0000       1.916786        52.1584 
 326   0.0000       1.924621        52.3716 
 327   0.0000       1.934557        52.6420 
 328   0.0000       1.942341        52.8538 
 329   0.0000       1.949840        53.0579 
 330   0.0000       1.963074        53.4180 
 331   0.0000       1.965826        53.4929 
 332   0.0000       1.970942        53.6321 
 333   0.0000       1.983132        53.9638 
 334   0.0000       1.993023        54.2329 
 335   0.0000       2.003452        54.5167 
 336   0.0000       2.004979        54.5582 
 337   0.0000       2.020422        54.9785 
 338   0.0000       2.027406        55.1685 
 339   0.0000       2.039026        55.4847 
 340   0.0000       2.057962        56.0000 
 341   0.0000       2.065616        56.2083 
 342   0.0000       2.076685        56.5095 
 343   0.0000       2.087850        56.8133 
 344   0.0000       2.103591        57.2416 
 345   0.0000       2.126417        57.8628 
 346   0.0000       2.127715        57.8981 
 347   0.0000       2.134955        58.0951 
 348   0.0000       2.150912        58.5293 
 349   0.0000       2.163001        58.8582 
 350   0.0000       2.173110        59.1333 
 351   0.0000       2.181969        59.3744 
 352   0.0000       2.193496        59.6881 
 353   0.0000       2.210774        60.1582 
 354   0.0000       2.212736        60.2116 
 355   0.0000       2.226605        60.5890 
 356   0.0000       2.247615        61.1607 
 357   0.0000       2.256502        61.4025 
 358   0.0000       2.269540        61.7573 
 359   0.0000       2.278514        62.0015 
 360   0.0000       2.284652        62.1686 
 361   0.0000       2.309301        62.8393 
 362   0.0000       2.313419        62.9513 
 363   0.0000       2.321026        63.1583 
 364   0.0000       2.329239        63.3818 
 365   0.0000       2.346598        63.8542 
 366   0.0000       2.370428        64.5026 
 367   0.0000       2.383040        64.8458 
 368   0.0000       2.397212        65.2314 
 369   0.0000       2.405316        65.4520 
 370   0.0000       2.419249        65.8311 
 371   0.0000       2.440052        66.3972 
 372   0.0000       2.447179        66.5911 
 373   0.0000       2.472649        67.2842 
 374   0.0000       2.473348        67.3032 
 375   0.0000       2.487859        67.6981 
 376   0.0000       2.500505        68.0422 
 377   0.0000       2.521843        68.6228 
 378   0.0000       2.534155        68.9579 
 379   0.0000       2.546324        69.2890 
 380   0.0000       2.559862        69.6574 
 381   0.0000       2.565699        69.8162 
 382   0.0000       2.582372        70.2699 
 383   0.0000       2.605828        70.9082 
 384   0.0000       2.611663        71.0670 
 385   0.0000       2.626968        71.4834 
 386   0.0000       2.640526        71.8524 
 387   0.0000       2.647757        72.0491 
 388   0.0000       2.652398        72.1754 
 389   0.0000       2.669115        72.6303 
 390   0.0000       2.685795        73.0842 
 391   0.0000       2.693558        73.2954 
 392   0.0000       2.704543        73.5944 
 393   0.0000       2.715990        73.9059 
 394   0.0000       2.719827        74.0102 
 395   0.0000       2.730560        74.3023 
 396   0.0000       2.736192        74.4556 
 397   0.0000       2.746884        74.7465 
 398   0.0000       2.753879        74.9368 
 399   0.0000       2.763294        75.1931 
 400   0.0000       2.774974        75.5109 
 401   0.0000       2.786065        75.8127 
 402   0.0000       2.794686        76.0473 
 403   0.0000       2.806410        76.3663 
 404   0.0000       2.818669        76.6999 
 405   0.0000       2.821063        76.7650 
 406   0.0000       2.834290        77.1250 
 407   0.0000       2.840560        77.2956 
 408   0.0000       2.870942        78.1223 
 409   0.0000       2.872482        78.1642 
 410   0.0000       2.885726        78.5246 
 411   0.0000       2.897400        78.8423 
 412   0.0000       2.908921        79.1558 
 413   0.0000       2.916340        79.3577 
 414   0.0000       2.931763        79.7773 
 415   0.0000       2.947183        80.1969 
 416   0.0000       2.964100        80.6572 
 417   0.0000       2.978095        81.0381 
 418   0.0000       2.987252        81.2873 
 419   0.0000       2.991331        81.3982 
 420   0.0000       3.011452        81.9458 
 421   0.0000       3.017377        82.1070 
 422   0.0000       3.026566        82.3570 
 423   0.0000       3.053953        83.1023 
 424   0.0000       3.057945        83.2109 
 425   0.0000       3.081959        83.8644 
 426   0.0000       3.092590        84.1536 
 427   0.0000       3.104553        84.4792 
 428   0.0000       3.114085        84.7385 
 429   0.0000       3.124820        85.0307 
 430   0.0000       3.132890        85.2503 
 431   0.0000       3.146664        85.6251 
 432   0.0000       3.163845        86.0926 
 433   0.0000       3.181860        86.5828 
 434   0.0000       3.210729        87.3684 
 435   0.0000       3.213281        87.4378 
 436   0.0000       3.224637        87.7468 
 437   0.0000       3.244907        88.2984 
 438   0.0000       3.253318        88.5273 
 439   0.0000       3.263313        88.7993 
 440   0.0000       3.269608        88.9706 
 441   0.0000       3.287129        89.4473 
 442   0.0000       3.291705        89.5718 
 443   0.0000       3.304643        89.9239 
 444   0.0000       3.318223        90.2934 
 445   0.0000       3.327684        90.5509 
 446   0.0000       3.329927        90.6119 
 447   0.0000       3.346218        91.0552 
 448   0.0000       3.352585        91.2285 
 449   0.0000       3.371399        91.7404 
 450   0.0000       3.383910        92.0809 
 451   0.0000       3.388642        92.2096 
 452   0.0000       3.403606        92.6168 
 453   0.0000       3.407785        92.7305 
 454   0.0000       3.412404        92.8562 
 455   0.0000       3.429124        93.3112 
 456   0.0000       3.437277        93.5331 
 457   0.0000       3.444206        93.7216 
 458   0.0000       3.451955        93.9325 
 459   0.0000       3.466934        94.3401 
 460   0.0000       3.479600        94.6847 
 461   0.0000       3.482858        94.7734 
 462   0.0000       3.492218        95.0281 
 463   0.0000       3.502530        95.3087 
 464   0.0000       3.510513        95.5259 
 465   0.0000       3.527225        95.9807 
 466   0.0000       3.529885        96.0531 
 467   0.0000       3.546702        96.5107 
 468   0.0000       3.551858        96.6510 
 469   0.0000       3.555205        96.7420 
 470   0.0000       3.564055        96.9829 
 471   0.0000       3.579737        97.4096 
 472   0.0000       3.584021        97.5262 
 473   0.0000       3.603649        98.0603 
 474   0.0000       3.606107        98.1271 
 475   0.0000       3.611773        98.2813 
 476   0.0000       3.622322        98.5684 
 477   0.0000       3.632714        98.8512 
 478   0.0000       3.645825        99.2079 
 479   0.0000       3.661490        99.6342 
 480   0.0000       3.681362       100.1750 
 481   0.0000       3.701587       100.7253 
 482   0.0000       3.709545       100.9419 
 483   0.0000       3.722601       101.2971 
 484   0.0000       3.734004       101.6074 
 485   0.0000       3.743136       101.8559 
 486   0.0000       3.776020       102.7507 
 487   0.0000       3.787481       103.0626 
 488   0.0000       3.795255       103.2741 
 489   0.0000       3.819934       103.9457 
 490   0.0000       3.839415       104.4758 
 491   0.0000       3.865406       105.1831 
 492   0.0000       3.900293       106.1324 
 493   0.0000       3.917814       106.6091 
 494   0.0000       3.938554       107.1735 
 495   0.0000       3.952181       107.5443 
 496   0.0000       3.954909       107.6186 
 497   0.0000       3.996406       108.7477 
 498   0.0000       4.007867       109.0596 
 499   0.0000       4.009747       109.1108 
 500   0.0000       4.033139       109.7473 
 501   0.0000       4.050301       110.2143 
 502   0.0000       4.051362       110.2432 
 503   0.0000       4.082839       111.0997 
 504   0.0000       4.103993       111.6753 
 505   0.0000       4.110785       111.8601 
 506   0.0000       4.120479       112.1239 
 507   0.0000       4.134812       112.5140 
 508   0.0000       4.143971       112.7632 
 509   0.0000       4.180297       113.7517 
 510   0.0000       4.191987       114.0698 
 511   0.0000       4.201007       114.3152 
 512   0.0000       4.238668       115.3400 
 513   0.0000       4.252316       115.7114 
 514   0.0000       4.287203       116.6607 
 515   0.0000       4.310008       117.2813 
 516   0.0000       4.341797       118.1463 
 517   0.0000       4.355387       118.5161 
 518   0.0000       4.383424       119.2790 
 519   0.0000       4.420224       120.2804 
 520   0.0000       4.460731       121.3827 
 521   0.0000       4.474635       121.7610 
 522   0.0000       4.483681       122.0072 
 523   0.0000       4.504911       122.5849 
 524   0.0000       4.526128       123.1622 
 525   0.0000       4.568685       124.3202 
 526   0.0000       4.594023       125.0097 
 527   0.0000       4.620832       125.7392 
 528   0.0000       4.641066       126.2898 
 529   0.0000       4.650240       126.5395 
 530   0.0000       4.668732       127.0427 
 531   0.0000       4.694604       127.7467 
 532   0.0000       4.713027       128.2480 
 533   0.0000       4.726728       128.6208 
 534   0.0000       4.751538       129.2959 
 535   0.0000       4.790975       130.3691 
 536   0.0000       4.814580       131.0114 
 537   0.0000       4.823721       131.2601 
 538   0.0000       4.871500       132.5602 
 539   0.0000       4.890594       133.0798 
 540   0.0000       4.905119       133.4751 
 541   0.0000       4.969449       135.2256 
 542   0.0000       4.989528       135.7720 
 543   0.0000       5.015499       136.4787 
 544   0.0000       5.026362       136.7743 
 545   0.0000       5.050516       137.4315 
 546   0.0000       5.106317       138.9499 
 547   0.0000       5.133210       139.6817 
 548   0.0000       5.145140       140.0064 
 549   0.0000       5.189605       141.2163 
 550   0.0000       5.224914       142.1771 
 551   0.0000       5.280923       143.7012 
 552   0.0000       5.350258       145.5879 
 553   0.0000       5.471537       148.8881 
 554   0.0000       5.514643       150.0611 
 555   0.0000       5.517590       150.1413 
 556   0.0000       5.531208       150.5118 
 557   0.0000       5.598008       152.3296 
 558   0.0000       5.647414       153.6739 
 559   0.0000       5.728596       155.8830 
 560   0.0000       5.827435       158.5726 
 561   0.0000       6.009750       163.5336 
 562   0.0000       6.080315       165.4538 
 563   0.0000       6.224169       169.3682 
 564   0.0000       6.279509       170.8741 
 565   0.0000       6.565974       178.6692 
 566   0.0000       6.619139       180.1159 
 567   0.0000       6.847557       186.3315 
 568   0.0000       6.855592       186.5501 
 569   0.0000       6.897396       187.6877 
 570   0.0000       6.959425       189.3756 
 571   0.0000       7.082037       192.7120 
 572   0.0000       7.126604       193.9248 
 573   0.0000       7.220614       196.4829 
 574   0.0000       7.400057       201.3658 
 575   0.0000       7.540799       205.1956 
 576   0.0000       7.792231       212.0374 
 577   0.0000       8.614303       234.4071 
 578   0.0000       8.660028       235.6513 
 579   0.0000       8.867097       241.2860 
 580   0.0000       9.012601       245.2453 
 581   0.0000       9.251258       251.7395 
 582   0.0000      22.802422       620.4854 
 583   0.0000      22.841677       621.5536 
 584   0.0000      22.884258       622.7123 
 585   0.0000      22.933518       624.0527 
 586   0.0000      22.939230       624.2082 
 587   0.0000      23.023406       626.4987 
 588   0.0000      23.061337       627.5309 
 589   0.0000      23.557064       641.0203 
 590   0.0000      23.599006       642.1616 
 591   0.0000      32.800164       892.5378 
 592   0.0000      44.559937      1212.5375 
 593   0.0000      58.045667      1579.5029 

                    ********************************
                    * MULLIKEN POPULATION ANALYSIS *
                    ********************************

-----------------------
MULLIKEN ATOMIC CHARGES
-----------------------
   0 C :   -0.851806
   1 C :   -0.902857
   2 C :   -0.660435
   3 H :    0.349830
   4 H :    0.389059
   5 C :    0.841106
   6 C :    0.782939
   7 N :   -0.737466
   8 C :   -1.113461
   9 H :    0.234782
  10 H :    0.224412
  11 H :    0.503361
  12 H :    0.272942
  13 F :   -0.337326
  14 O :   -0.636532
  15 C :   -0.811648
  16 C :   -0.371085
  17 H :    0.408253
  18 H :    0.369211
  19 C :   -0.574009
  20 H :    0.213651
  21 H :    0.346860
  22 H :    0.246324
  23 H :    0.425431
  24 H :    0.385443
  25 H :    0.352335
  26 H :    0.283833
  27 H :    0.366850
Sum of atomic charges:    0.0000000

--------------------------------
MULLIKEN REDUCED ORBITAL CHARGES
--------------------------------
  0 C s       :     3.554730  s :     3.554730
      pz      :     0.951300  p :     3.260811
      px      :     1.289123
      py      :     1.020388
      dz2     :    -0.005075  d :     0.031369
      dxz     :    -0.001876
      dyz     :    -0.022602
      dx2y2   :     0.002880
      dxy     :     0.058043
      f0      :     0.000991  f :     0.004897
      f+1     :     0.000604
      f-1     :     0.000944
      f+2     :     0.000598
      f-2     :     0.000826
      f+3     :     0.000531
      f-3     :     0.000402
  1 C s       :     3.513354  s :     3.513354
      pz      :     0.984479  p :     3.421185
      px      :     1.170482
      py      :     1.266224
      dz2     :    -0.026897  d :    -0.036652
      dxz     :    -0.020186
      dyz     :    -0.015622
      dx2y2   :     0.031685
      dxy     :    -0.005632
      f0      :     0.000853  f :     0.004970
      f+1     :     0.001041
      f-1     :     0.000820
      f+2     :     0.000618
      f-2     :     0.000530
      f+3     :     0.000385
      f-3     :     0.000722
  2 C s       :     3.395204  s :     3.395204
      pz      :     1.004420  p :     3.234902
      px      :     1.244020
      py      :     0.986462
      dz2     :    -0.006102  d :     0.025580
      dxz     :     0.003414
      dyz     :    -0.010041
      dx2y2   :     0.002031
      dxy     :     0.036279
      f0      :     0.000933  f :     0.004750
      f+1     :     0.000711
      f-1     :     0.000867
      f+2     :     0.000713
      f-2     :     0.000645
      f+3     :     0.000499
      f-3     :     0.000382
  3 H s       :     0.602584  s :     0.602584
      pz      :     0.009631  p :     0.047586
      px      :     0.015772
      py      :     0.022183
  4 H s       :     0.570558  s :     0.570558
      pz      :     0.018739  p :     0.040383
      px      :     0.019041
      py      :     0.002603
  5 C s       :     3.186948  s :     3.186948
      pz      :     0.669077  p :     1.729340
      px      :     0.604810
      py      :     0.455453
      dz2     :     0.046316  d :     0.215238
      dxz     :     0.016387
      dyz     :     0.083283
      dx2y2   :     0.015743
      dxy     :     0.053510
      f0      :     0.003094  f :     0.027369
      f+1     :     0.003033
      f-1     :     0.003106
      f+2     :     0.004567
      f-2     :     0.004117
      f+3     :     0.004252
      f-3     :     0.005200
  6 C s       :     3.225270  s :     3.225270
      pz      :     0.564464  p :     1.999027
      px      :     0.682593
      py      :     0.751969
      dz2     :     0.026962  d :    -0.019896
      dxz     :    -0.028476
      dyz     :     0.024219
      dx2y2   :     0.051208
      dxy     :    -0.093809
      f0      :     0.002767  f :     0.012659
      f+1     :     0.001378
      f-1     :     0.001640
      f+2     :     0.002075
      f-2     :     0.002262
      f+3     :     0.001276
      f-3     :     0.001261
  7 N s       :     3.704899  s :     3.704899
      pz      :     1.136894  p :     3.967535
      px      :     1.168633
      py      :     1.662008
      dz2     :     0.014603  d :     0.061651
      dxz     :     0.000631
      dyz     :     0.004219
      dx2y2   :     0.012889
      dxy     :     0.029310
      f0      :     0.000591  f :     0.003381
      f+1     :     0.000450
      f-1     :     0.000643
      f+2     :     0.000405
      f-2     :     0.000348
      f+3     :     0.000671
      f-3     :     0.000273
  8 C s       :     3.557001  s :     3.557001
      pz      :     1.381416  p :     3.533212
      px      :     0.962010
      py      :     1.189786
      dz2     :    -0.001200  d :     0.018284
      dxz     :    -0.018490
      dyz     :     0.010207
      dx2y2   :     0.009708
      dxy     :     0.018060
      f0      :     0.000504  f :     0.004964
      f+1     :     0.000572
      f-1     :     0.000183
      f+2     :     0.000896
      f-2     :     0.000434
      f+3     :     0.001195
      f-3     :     0.001181
  9 H s       :     0.720354  s :     0.720354
      pz      :     0.012742  p :     0.044864
      px      :    -0.000852
      py      :     0.032973
 10 H s       :     0.698254  s :     0.698254
      pz      :     0.026183  p :     0.077334
      px      :     0.013027
      py      :     0.038124
 11 H s       :     0.547568  s :     0.547568
      pz      :    -0.010034  p :    -0.050929
      px      :    -0.021604
      py      :    -0.019291
 12 H s       :     0.694366  s :     0.694366
      pz      :     0.026747  p :     0.032692
      px      :     0.004269
      py      :     0.001676
 13 F s       :     4.044797  s :     4.044797
      pz      :     1.889515  p :     5.272100
      px      :     1.866595
      py      :     1.515990
      dz2     :     0.004014  d :     0.019537
      dxz     :     0.001591
      dyz     :     0.003795
      dx2y2   :     0.004380
      dxy     :     0.005757
      f0      :     0.000095  f :     0.000891
      f+1     :     0.000028
      f-1     :     0.000158
      f+2     :     0.000124
      f-2     :     0.000063
      f+3     :     0.000222
      f-3     :     0.000202
 14 O s       :     4.101337  s :     4.101337
      pz      :     1.364853  p :     4.502914
      px      :     1.350152
      py      :     1.787910
      dz2     :     0.012191  d :     0.030320
      dxz     :     0.006219
      dyz     :     0.002826
      dx2y2   :     0.006311
      dxy     :     0.002773
      f0      :     0.000241  f :     0.001961
      f+1     :     0.000396
      f-1     :     0.000181
      f+2     :     0.000327
      f-2     :     0.000378
      f+3     :     0.000223
      f-3     :     0.000215
 15 C s       :     3.335604  s :     3.335604
      pz      :     1.175818  p :     3.365394
      px      :     1.259460
      py      :     0.930116
      dz2     :     0.039149  d :     0.105613
      dxz     :    -0.007293
      dyz     :     0.030845
      dx2y2   :     0.013933
      dxy     :     0.028979
      f0      :     0.000469  f :     0.005037
      f+1     :     0.000473
      f-1     :     0.001113
      f+2     :     0.000452
      f-2     :     0.000873
      f+3     :     0.000734
      f-3     :     0.000924
 16 C s       :     3.311587  s :     3.311587
      pz      :     1.276155  p :     3.142208
      px      :     0.858792
      py      :     1.007262
      dz2     :    -0.004174  d :    -0.087774
      dxz     :    -0.093883
      dyz     :     0.048088
      dx2y2   :    -0.011623
      dxy     :    -0.026182
      f0      :     0.000715  f :     0.005063
      f+1     :     0.000526
      f-1     :     0.000495
      f+2     :     0.000755
      f-2     :     0.000495
      f+3     :     0.000995
      f-3     :     0.001081
 17 H s       :     0.528590  s :     0.528590
      pz      :     0.025556  p :     0.063157
      px      :     0.017824
      py      :     0.019777
 18 H s       :     0.588418  s :     0.588418
      pz      :    -0.002413  p :     0.042370
      px      :     0.029638
      py      :     0.015145
 19 C s       :     3.408141  s :     3.408141
      pz      :     1.239088  p :     3.207810
      px      :     0.870603
      py      :     1.098118
      dz2     :     0.055893  d :    -0.046974
      dxz     :    -0.058611
      dyz     :    -0.011535
      dx2y2   :    -0.000584
      dxy     :    -0.032137
      f0      :     0.000767  f :     0.005033
      f+1     :     0.000661
      f-1     :     0.000357
      f+2     :     0.000833
      f-2     :     0.000470
      f+3     :     0.000956
      f-3     :     0.000989
 20 H s       :     0.747701  s :     0.747701
      pz      :     0.030333  p :     0.038647
      px      :     0.006759
      py      :     0.001555
 21 H s       :     0.598380  s :     0.598380
      pz      :     0.030315  p :     0.054760
      px      :     0.005487
      py      :     0.018958
 22 H s       :     0.695384  s :     0.695384
      pz      :     0.030091  p :     0.058292
      px      :     0.006169
      py      :     0.022031
 23 H s       :     0.526102  s :     0.526102
      pz      :     0.023624  p :     0.048467
      px      :     0.010553
      py      :     0.014289
 24 H s       :     0.562299  s :     0.562299
      pz      :     0.021999  p :     0.052258
      px      :     0.005673
      py      :     0.024586
 25 H s       :     0.594543  s :     0.594543
      pz      :     0.015685  p :     0.053122
      px      :     0.023182
      py      :     0.014255
 26 H s       :     0.711994  s :     0.711994
      pz      :     0.002481  p :     0.004172
      px      :     0.022017
      py      :    -0.020325
 27 H s       :     0.589579  s :     0.589579
      pz      :     0.006165  p :     0.043571
      px      :     0.023864
      py      :     0.013542


                     *******************************
                     * LOEWDIN POPULATION ANALYSIS *
                     *******************************

----------------------
LOEWDIN ATOMIC CHARGES
----------------------
   0 C :   -0.143405
   1 C :   -0.194787
   2 C :   -0.095061
   3 H :    0.128312
   4 H :    0.128577
   5 C :   -0.464284
   6 C :   -0.488503
   7 N :    0.112474
   8 C :    0.028200
   9 H :    0.018605
  10 H :    0.018523
  11 H :    0.063758
  12 H :    0.118601
  13 F :    0.158917
  14 O :    0.093411
  15 C :   -0.193734
  16 C :   -0.196609
  17 H :    0.112902
  18 H :    0.109682
  19 C :   -0.212925
  20 H :    0.106118
  21 H :    0.120619
  22 H :    0.094006
  23 H :    0.121207
  24 H :    0.116821
  25 H :    0.112191
  26 H :    0.102863
  27 H :    0.123520

-------------------------------
LOEWDIN REDUCED ORBITAL CHARGES
-------------------------------
  0 C s       :     2.657599  s :     2.657599
      pz      :     0.896866  p :     2.722144
      px      :     0.907156
      py      :     0.918121
      dz2     :     0.188176  d :     0.724181
      dxz     :     0.117290
      dyz     :     0.170398
      dx2y2   :     0.108370
      dxy     :     0.139948
      f0      :     0.007831  f :     0.039482
      f+1     :     0.005828
      f-1     :     0.006966
      f+2     :     0.004874
      f-2     :     0.006769
      f+3     :     0.003891
      f-3     :     0.003323
  1 C s       :     2.669829  s :     2.669829
      pz      :     0.902303  p :     2.762880
      px      :     0.927566
      py      :     0.933011
      dz2     :     0.181092  d :     0.723120
      dxz     :     0.130690
      dyz     :     0.171041
      dx2y2   :     0.132352
      dxy     :     0.107944
      f0      :     0.006478  f :     0.038958
      f+1     :     0.008362
      f-1     :     0.005487
      f+2     :     0.006126
      f-2     :     0.004129
      f+3     :     0.002846
      f-3     :     0.005531
  2 C s       :     2.666152  s :     2.666152
      pz      :     0.911067  p :     2.732315
      px      :     0.929679
      py      :     0.891569
      dz2     :     0.152788  d :     0.659949
      dxz     :     0.167857
      dyz     :     0.152695
      dx2y2   :     0.075109
      dxy     :     0.111501
      f0      :     0.006874  f :     0.036644
      f+1     :     0.004855
      f-1     :     0.006748
      f+2     :     0.006574
      f-2     :     0.004647
      f+3     :     0.003972
      f-3     :     0.002975
  3 H s       :     0.662767  s :     0.662767
      pz      :     0.054990  p :     0.208921
      px      :     0.076585
      py      :     0.077346
  4 H s       :     0.672361  s :     0.672361
      pz      :     0.062263  p :     0.199062
      px      :     0.083543
      py      :     0.053256
  5 C s       :     2.630439  s :     2.630439
      pz      :     0.756633  p :     2.287169
      px      :     0.751135
      py      :     0.779401
      dz2     :     0.243994  d :     1.364941
      dxz     :     0.199477
      dyz     :     0.305832
      dx2y2   :     0.289086
      dxy     :     0.326551
      f0      :     0.020263  f :     0.181735
      f+1     :     0.016301
      f-1     :     0.022893
      f+2     :     0.028455
      f-2     :     0.026039
      f+3     :     0.031583
      f-3     :     0.036200
  6 C s       :     2.607338  s :     2.607338
      pz      :     0.881431  p :     2.565700
      px      :     0.965107
      py      :     0.719162
      dz2     :     0.258438  d :     1.220397
      dxz     :     0.327447
      dyz     :     0.206399
      dx2y2   :     0.179146
      dxy     :     0.248966
      f0      :     0.021837  f :     0.095068
      f+1     :     0.014904
      f-1     :     0.012911
      f+2     :     0.015565
      f-2     :     0.016781
      f+3     :     0.006844
      f-3     :     0.006226
  7 N s       :     2.882034  s :     2.882034
      pz      :     1.120862  p :     3.529320
      px      :     1.084702
      py      :     1.323756
      dz2     :     0.148445  d :     0.462591
      dxz     :     0.090091
      dyz     :     0.073891
      dx2y2   :     0.087226
      dxy     :     0.062938
      f0      :     0.002952  f :     0.013581
      f+1     :     0.002544
      f-1     :     0.001756
      f+2     :     0.001826
      f-2     :     0.002476
      f+3     :     0.001540
      f-3     :     0.000487
  8 C s       :     2.714913  s :     2.714913
      pz      :     0.935577  p :     2.833789
      px      :     0.978315
      py      :     0.919897
      dz2     :     0.056210  d :     0.392816
      dxz     :     0.167322
      dyz     :     0.033926
      dx2y2   :     0.070048
      dxy     :     0.065309
      f0      :     0.004537  f :     0.030282
      f+1     :     0.005730
      f-1     :     0.001820
      f+2     :     0.004597
      f-2     :     0.002353
      f+3     :     0.005677
      f-3     :     0.005568
  9 H s       :     0.717421  s :     0.717421
      pz      :     0.106500  p :     0.263974
      px      :     0.071783
      py      :     0.085692
 10 H s       :     0.730186  s :     0.730186
      pz      :     0.100269  p :     0.251291
      px      :     0.063006
      py      :     0.088016
 11 H s       :     0.573232  s :     0.573232
      pz      :     0.074138  p :     0.363010
      px      :     0.180749
      py      :     0.108123
 12 H s       :     0.610261  s :     0.610261
      pz      :     0.100277  p :     0.271138
      px      :     0.071554
      py      :     0.099307
 13 F s       :     3.475743  s :     3.475743
      pz      :     1.743480  p :     5.085458
      px      :     1.735501
      py      :     1.606477
      dz2     :     0.047572  d :     0.277776
      dxz     :     0.016088
      dyz     :     0.057239
      dx2y2   :     0.084000
      dxy     :     0.072878
      f0      :     0.000202  f :     0.002105
      f+1     :     0.000062
      f-1     :     0.000369
      f+2     :     0.000255
      f-2     :     0.000199
      f+3     :     0.000443
      f-3     :     0.000574
 14 O s       :     3.353804  s :     3.353804
      pz      :     1.370681  p :     4.305389
      px      :     1.352390
      py      :     1.582319
      dz2     :     0.039914  d :     0.241953
      dxz     :     0.071738
      dyz     :     0.042784
      dx2y2   :     0.037887
      dxy     :     0.049629
      f0      :     0.000524  f :     0.005443
      f+1     :     0.001116
      f-1     :     0.000345
      f+2     :     0.001117
      f-2     :     0.001298
      f+3     :     0.000504
      f-3     :     0.000540
 15 C s       :     2.671323  s :     2.671323
      pz      :     0.910971  p :     2.741377
      px      :     0.920078
      py      :     0.910327
      dz2     :     0.164630  d :     0.742211
      dxz     :     0.086295
      dyz     :     0.159877
      dx2y2   :     0.180258
      dxy     :     0.151151
      f0      :     0.003619  f :     0.038823
      f+1     :     0.004360
      f-1     :     0.007424
      f+2     :     0.004180
      f-2     :     0.006809
      f+3     :     0.005195
      f-3     :     0.007236
 16 C s       :     2.662822  s :     2.662822
      pz      :     0.913733  p :     2.739003
      px      :     0.905977
      py      :     0.919294
      dz2     :     0.116185  d :     0.754995
      dxz     :     0.139021
      dyz     :     0.131850
      dx2y2   :     0.195557
      dxy     :     0.172382
      f0      :     0.005138  f :     0.039789
      f+1     :     0.004235
      f-1     :     0.003044
      f+2     :     0.006696
      f-2     :     0.005017
      f+3     :     0.007145
      f-3     :     0.008513
 17 H s       :     0.682117  s :     0.682117
      pz      :     0.088576  p :     0.204981
      px      :     0.061161
      py      :     0.055243
 18 H s       :     0.675407  s :     0.675407
      pz      :     0.060126  p :     0.214911
      px      :     0.099548
      py      :     0.055237
 19 C s       :     2.663565  s :     2.663565
      pz      :     0.916377  p :     2.746153
      px      :     0.914019
      py      :     0.915756
      dz2     :     0.162537  d :     0.763658
      dxz     :     0.153622
      dyz     :     0.077689
      dx2y2   :     0.196960
      dxy     :     0.172850
      f0      :     0.005467  f :     0.039550
      f+1     :     0.005189
      f-1     :     0.002501
      f+2     :     0.007244
      f-2     :     0.005079
      f+3     :     0.006410
      f-3     :     0.007659
 20 H s       :     0.649275  s :     0.649275
      pz      :     0.117412  p :     0.244607
      px      :     0.065056
      py      :     0.062138
 21 H s       :     0.683544  s :     0.683544
      pz      :     0.064659  p :     0.195836
      px      :     0.050488
      py      :     0.080689
 22 H s       :     0.661708  s :     0.661708
      pz      :     0.077454  p :     0.244286
      px      :     0.064490
      py      :     0.102341
 23 H s       :     0.680653  s :     0.680653
      pz      :     0.094471  p :     0.198140
      px      :     0.052481
      py      :     0.051189
 24 H s       :     0.682404  s :     0.682404
      pz      :     0.062375  p :     0.200775
      px      :     0.051964
      py      :     0.086436
 25 H s       :     0.683676  s :     0.683676
      pz      :     0.050714  p :     0.204133
      px      :     0.088847
      py      :     0.064572
 26 H s       :     0.669715  s :     0.669715
      pz      :     0.057274  p :     0.227422
      px      :     0.107137
      py      :     0.063011
 27 H s       :     0.675373  s :     0.675373
      pz      :     0.058264  p :     0.201107
      px      :     0.069040
      py      :     0.073804


                      *****************************
                      * MAYER POPULATION ANALYSIS *
                      *****************************

  NA   - Mulliken gross atomic population
  ZA   - Total nuclear charge
  QA   - Mulliken gross atomic charge
  VA   - Mayer's total valence
  BVA  - Mayer's bonded valence
  FA   - Mayer's free valence

  ATOM       NA         ZA         QA         VA         BVA        FA
  0 C      6.8518     6.0000    -0.8518     3.2251     3.2251    -0.0000
  1 C      6.9029     6.0000    -0.9029     3.1370     3.1370     0.0000
  2 C      6.6604     6.0000    -0.6604     3.1941     3.1941    -0.0000
  3 H      0.6502     1.0000     0.3498     0.9355     0.9355    -0.0000
  4 H      0.6109     1.0000     0.3891     0.8756     0.8756    -0.0000
  5 C      5.1589     6.0000     0.8411     3.2635     3.2635    -0.0000
  6 C      5.2171     6.0000     0.7829     2.4286     2.4286     0.0000
  7 N      7.7375     7.0000    -0.7375     2.6775     2.6775     0.0000
  8 C      7.1135     6.0000    -1.1135     3.6388     3.6388     0.0000
  9 H      0.7652     1.0000     0.2348     0.9790     0.9790     0.0000
 10 H      0.7756     1.0000     0.2244     1.0321     1.0321     0.0000
 11 H      0.4966     1.0000     0.5034     0.5264     0.5264     0.0000
 12 H      0.7271     1.0000     0.2729     0.9002     0.9002    -0.0000
 13 F      9.3373     9.0000    -0.3373     0.7570     0.7570    -0.0000
 14 O      8.6365     8.0000    -0.6365     1.6403     1.6403    -0.0000
 15 C      6.8116     6.0000    -0.8116     3.6304     3.6304     0.0000
 16 C      6.3711     6.0000    -0.3711     2.7367     2.7367     0.0000
 17 H      0.5917     1.0000     0.4083     0.8547     0.8547    -0.0000
 18 H      0.6308     1.0000     0.3692     0.8508     0.8508     0.0000
 19 C      6.5740     6.0000    -0.5740     2.6129     2.6129     0.0000
 20 H      0.7863     1.0000     0.2137     1.1106     1.1106     0.0000
 21 H      0.6531     1.0000     0.3469     0.9132     0.9132     0.0000
 22 H      0.7537     1.0000     0.2463     1.0078     1.0078     0.0000
 23 H      0.5746     1.0000     0.4254     0.8374     0.8374     0.0000
 24 H      0.6146     1.0000     0.3854     0.9226     0.9226     0.0000
 25 H      0.6477     1.0000     0.3523     0.9332     0.9332     0.0000
 26 H      0.7162     1.0000     0.2838     0.9497     0.9497    -0.0000
 27 H      0.6331     1.0000     0.3669     0.7843     0.7843    -0.0000

  Mayer bond orders larger than 0.100000
B(  0-C ,  6-C ) :   0.5231 B(  0-C ,  7-N ) :   0.1086 B(  0-C , 15-C ) :   0.7404 
B(  0-C , 26-H ) :   1.0212 B(  0-C , 27-H ) :   0.9130 B(  1-C ,  2-C ) :   0.5722 
B(  1-C , 19-C ) :   0.6525 B(  1-C , 24-H ) :   0.9400 B(  1-C , 25-H ) :   0.9975 
B(  2-C ,  3-H ) :   1.0210 B(  2-C ,  4-H ) :   0.8955 B(  2-C ,  5-C ) :   0.8385 
B(  2-C , 19-C ) :  -0.1207 B(  5-C , 13-F ) :   0.6912 B(  5-C , 14-O ) :   1.5280 
B(  6-C ,  7-N ) :   0.8259 B(  6-C ,  8-C ) :   1.2766 B(  6-C , 10-H ) :  -0.1418 
B(  7-N ,  8-C ) :   0.1667 B(  7-N , 11-H ) :   0.5716 B(  7-N , 12-H ) :   0.9050 
B(  8-C ,  9-H ) :   1.0364 B(  8-C , 10-H ) :   1.1085 B( 15-C , 16-C ) :   0.8005 
B( 15-C , 17-H ) :   0.8955 B( 15-C , 18-H ) :   0.9652 B( 15-C , 19-C ) :   0.2602 
B( 16-C , 19-C ) :   0.1422 B( 16-C , 20-H ) :   0.9795 B( 16-C , 21-H ) :   0.9229 
B( 16-C , 22-H ) :  -0.1764 B( 19-C , 20-H ) :  -0.1247 B( 19-C , 22-H ) :   1.1109 
B( 19-C , 23-H ) :   0.8287 

-------
TIMINGS
-------

Total SCF time: 0 days 0 hours 4 min 50 sec 

Total time                  ....     290.969 sec
Sum of individual times     ....     289.967 sec  ( 99.7%)

Fock matrix formation       ....     282.433 sec  ( 97.1%)
  Split-RI-J                ....      15.627 sec  (  5.5% of F)
  Chain of spheres X        ....     196.185 sec  ( 69.5% of F)
  XC integration            ....      70.303 sec  ( 24.9% of F)
    Basis function eval.    ....       6.435 sec  (  9.2% of XC)
    Density eval.           ....      27.639 sec  ( 39.3% of XC)
    XC-Functional eval.     ....       1.017 sec  (  1.4% of XC)
    XC-Potential eval.      ....      34.289 sec  ( 48.8% of XC)
Diagonalization             ....       0.980 sec  (  0.3%)
Density matrix formation    ....       0.059 sec  (  0.0%)
Population analysis         ....       0.109 sec  (  0.0%)
Initial guess               ....       1.539 sec  (  0.5%)
Orbital Transformation      ....       0.000 sec  (  0.0%)
Orbital Orthonormalization  ....       0.000 sec  (  0.0%)
DIIS solution               ....       0.517 sec  (  0.2%)
SOSCF solution              ....       0.572 sec  (  0.2%)
Grid generation             ....       3.759 sec  (  1.3%)

Maximum memory used throughout the entire SCF-calculation: 133.2 MB


-------------------------------------------------------------------------------
                          DFT DISPERSION CORRECTION                            
                                                                               
                              DFTD3 V3.1  Rev 1                                
                              USING zero damping                               
-------------------------------------------------------------------------------
The M062X functional is recognized
Active option DFTDOPT                   ...         3   

molecular C6(AA) [au] = 6201.982190 


            DFT-D V3
 parameters
 s6 scaling factor         :     1.0000 
 rs6 scaling factor        :     1.6190 
 s8 scaling factor         :     0.0000 
 rs8 scaling factor        :     1.0000 
 Damping factor alpha6     :    14.0000 
 Damping factor alpha8     :    16.0000 
 ad hoc parameters k1-k3   :    16.0000     1.3333    -4.0000 

 Edisp/kcal,au: -0.864853083411  -0.001378230970 
 E6   /kcal   :  -0.864853083 
 E8   /kcal   :  -0.000000000 
 % E8         :   0.000000000 

-------------------------   ----------------
Dispersion correction           -0.001378231
-------------------------   ----------------


-------------------------   --------------------
FINAL SINGLE POINT ENERGY      -582.339413726325
-------------------------   --------------------


                            ***************************************
                            *     ORCA property calculations      *
                            ***************************************

                                    ---------------------
                                    Active property flags
                                    ---------------------
   (+) Dipole Moment


------------------------------------------------------------------------------
                       ORCA ELECTRIC PROPERTIES CALCULATION
------------------------------------------------------------------------------

Dipole Moment Calculation                       ... on
Quadrupole Moment Calculation                   ... off
Polarizability Calculation                      ... off
GBWName                                         ... 28Oct_TZVPD_M062X_D2_wb97.gbw
Electron density file                           ... 28Oct_TZVPD_M062X_D2_wb97.scfp
The origin for moment calculation is the CENTER OF MASS  = ( 2.439336, -2.137066 -6.878464)

-------------
DIPOLE MOMENT
-------------
                                X             Y             Z
Electronic contribution:     -5.32858      -1.78204     -10.84626
Nuclear contribution   :      3.65024       2.44123      11.52670
                        -----------------------------------------
Total Dipole Moment    :     -1.67834       0.65920       0.68045
                        -----------------------------------------
Magnitude (a.u.)       :      1.92727
Magnitude (Debye)      :      4.89872



--------------------
Rotational spectrum 
--------------------
 
Rotational constants in cm-1:     0.040600     0.026409     0.019262 
Rotational constants in MHz :  1217.142957   791.712481   577.449390 

 Dipole components along the rotational axes: 
x,y,z [a.u.] :    -1.728970    -0.772717    -0.357674 
x,y,z [Debye]:    -4.394692    -1.964090    -0.909136 

 

Timings for individual modules:

Sum of individual times         ...      292.359 sec (=   4.873 min)
GTO integral calculation        ...        1.000 sec (=   0.017 min)   0.3 %
SCF iterations                  ...      291.360 sec (=   4.856 min)  99.7 %
                             ****ORCA TERMINATED NORMALLY****
TOTAL RUN TIME: 0 days 0 hours 4 minutes 53 seconds 200 msec
