
                                        *****************
                                        * O   R   C   A *
                                        *****************

                                            #,                                       
                                            ###                                      
                                            ####                                     
                                            #####                                    
                                            ######                                   
                                           ########,                                 
                                     ,,################,,,,,                         
                               ,,#################################,,                 
                          ,,##########################################,,             
                       ,#########################################, ''#####,          
                    ,#############################################,,   '####,        
                  ,##################################################,,,,####,       
                ,###########''''           ''''###############################       
              ,#####''   ,,,,##########,,,,          '''####'''          '####       
            ,##' ,,,,###########################,,,                        '##       
           ' ,,###''''                  '''############,,,                           
         ,,##''                                '''############,,,,        ,,,,,,###''
      ,#''                                            '''#######################'''  
     '                                                          ''''####''''         
             ,#######,   #######,   ,#######,      ##                                
            ,#'     '#,  ##    ##  ,#'     '#,    #''#        ######   ,####,        
            ##       ##  ##   ,#'  ##            #'  '#       #        #'  '#        
            ##       ##  #######   ##           ,######,      #####,   #    #        
            '#,     ,#'  ##    ##  '#,     ,#' ,#      #,         ##   #,  ,#        
             '#######'   ##     ##  '#######'  #'      '#     #####' # '####'        



                  #######################################################
                  #                        -***-                        #
                  #          Department of theory and spectroscopy      #
                  #    Directorship and core code : Frank Neese         #
                  #        Max Planck Institute fuer Kohlenforschung    #
                  #                Kaiser Wilhelm Platz 1               #
                  #                 D-45470 Muelheim/Ruhr               #
                  #                      Germany                        #
                  #                                                     #
                  #                  All rights reserved                #
                  #                        -***-                        #
                  #######################################################


                         Program Version 5.0.0 -  RELEASE  -
                                (SVN: $Rev: 19529$)
                ($Date: 2021-06-28 11:36:33 +0200 (Mo, 28 Jun 2021) $)


 With contributions from (in alphabetic order):
   Daniel Aravena         : Magnetic Suceptibility
   Michael Atanasov       : Ab Initio Ligand Field Theory (pilot matlab implementation)
   Alexander A. Auer      : GIAO ZORA, VPT2 properties, NMR spectrum
   Ute Becker             : Parallelization
   Giovanni Bistoni       : ED, misc. LED, open-shell LED, HFLD
   Martin Brehm           : Molecular dynamics
   Dmytro Bykov           : SCF Hessian
   Vijay G. Chilkuri      : MRCI spin determinant printing, contributions to CSF-ICE
   Dipayan Datta          : RHF DLPNO-CCSD density
   Achintya Kumar Dutta   : EOM-CC, STEOM-CC
   Dmitry Ganyushin       : Spin-Orbit,Spin-Spin,Magnetic field MRCI
   Miquel Garcia          : C-PCM Hessian, Gaussian charge scheme
   Yang Guo               : DLPNO-NEVPT2, F12-NEVPT2, CIM, IAO-localization
   Andreas Hansen         : Spin unrestricted coupled pair/coupled cluster methods
   Benjamin Helmich-Paris : MC-RPA, TRAH-SCF, COSX integrals
   Lee Huntington         : MR-EOM, pCC
   Robert Izsak           : Overlap fitted RIJCOSX, COSX-SCS-MP3, EOM
   Marcus Kettner         : VPT2
   Christian Kollmar      : KDIIS, OOCD, Brueckner-CCSD(T), CCSD density, CASPT2, CASPT2-K
   Simone Kossmann        : Meta GGA functionals, TD-DFT gradient, OOMP2, MP2 Hessian
   Martin Krupicka        : Initial AUTO-CI
   Lucas Lang             : DCDCAS
   Marvin Lechner         : AUTO-CI (C++ implementation), FIC-MRCC
   Dagmar Lenk            : GEPOL surface, SMD
   Dimitrios Liakos       : Extrapolation schemes; Compound Job, initial MDCI parallelization
   Dimitrios Manganas     : Further ROCIS development; embedding schemes
   Dimitrios Pantazis     : SARC Basis sets
   Anastasios Papadopoulos: AUTO-CI, single reference methods and gradients
   Taras Petrenko         : DFT Hessian,TD-DFT gradient, ASA, ECA, R-Raman, ABS, FL, XAS/XES, NRVS
   Peter Pinski           : DLPNO-MP2, DLPNO-MP2 Gradient
   Christoph Reimann      : Effective Core Potentials
   Marius Retegan         : Local ZFS, SOC
   Christoph Riplinger    : Optimizer, TS searches, QM/MM, DLPNO-CCSD(T), (RO)-DLPNO pert. Triples
   Tobias Risthaus        : Range-separated hybrids, TD-DFT gradient, RPA, STAB
   Michael Roemelt        : Original ROCIS implementation
   Masaaki Saitow         : Open-shell DLPNO-CCSD energy and density
   Barbara Sandhoefer     : DKH picture change effects
   Avijit Sen             : IP-ROCIS
   Kantharuban Sivalingam : CASSCF convergence, NEVPT2, FIC-MRCI
   Bernardo de Souza      : ESD, SOC TD-DFT
   Georgi Stoychev        : AutoAux, RI-MP2 NMR
   Willem Van den Heuvel  : Paramagnetic NMR
   Boris Wezisla          : Elementary symmetry handling
   Frank Wennmohs         : Technical directorship


 We gratefully acknowledge several colleagues who have allowed us to
 interface, adapt or use parts of their codes:
   Stefan Grimme, W. Hujo, H. Kruse, P. Pracht,  : VdW corrections, initial TS optimization,
                  C. Bannwarth, S. Ehlert          DFT functionals, gCP, sTDA/sTD-DF
   Ed Valeev, F. Pavosevic, A. Kumar             : LibInt (2-el integral package), F12 methods
   Garnet Chan, S. Sharma, J. Yang, R. Olivares  : DMRG
   Ulf Ekstrom                                   : XCFun DFT Library
   Mihaly Kallay                                 : mrcc  (arbitrary order and MRCC methods)
   Jiri Pittner, Ondrej Demel                    : Mk-CCSD
   Frank Weinhold                                : gennbo (NPA and NBO analysis)
   Christopher J. Cramer and Donald G. Truhlar   : smd solvation model
   Lars Goerigk                                  : TD-DFT with DH, B97 family of functionals
   V. Asgeirsson, H. Jonsson                     : NEB implementation
   FAccTs GmbH                                   : IRC, NEB, NEB-TS, DLPNO-Multilevel, CI-OPT
                                                   MM, QMMM, 2- and 3-layer-ONIOM, Crystal-QMMM,
                                                   LR-CPCM, SF, NACMEs, symmetry and pop. for TD-DFT,
                                                   nearIR, NL-DFT gradient (VV10), updates on ESD,
                                                   ML-optimized integration grids
   S Lehtola, MJT Oliveira, MAL Marques          : LibXC Library
   Liviu Ungur et al                             : ANISO software


 Your calculation uses the libint2 library for the computation of 2-el integrals
 For citations please refer to: http://libint.valeyev.net

 Your ORCA version has been built with support for libXC version: 5.1.0
 For citations please refer to: https://tddft.org/programs/libxc/

 This ORCA versions uses:
   CBLAS   interface :  Fast vector & matrix operations
   LAPACKE interface :  Fast linear algebra routines
   SCALAPACK package :  Parallel linear algebra routines
   Shared memory     :  Shared parallel matrices
   BLAS/LAPACK       :  OpenBLAS 0.3.15  USE64BITINT DYNAMIC_ARCH NO_AFFINITY Haswell SINGLE_THREADED
        Core in use  :  Haswell
   Copyright (c) 2011-2014, The OpenBLAS Project


XCFun DFT library Copyright 2009-2010 Ulf Ekstrom and contributors.
See http://admol.org/xcfun for more information.
This is free software; see the source code for copying conditions.
There is ABSOLUTELY NO WARRANTY; not even for MERCHANTABILITY or FITNESS FOR A PARTICULAR PURPOSE.
For details see the documentation.
Scientific users of this library should cite U. Ekstrom, L. Visscher, R. Bast, A. J. Thorvaldsen and K. Ruud;
J.Chem.Theor.Comp. 2010, DOI: 10.1021/ct100117s
XCFun Version 0.99 

================================================================================

----- Orbital basis set information -----
Your calculation utilizes the basis: def2-TZVPD
   F. Weigend and R. Ahlrichs, Phys. Chem. Chem. Phys. 7, 3297 (2005).
   D. Rappoport and F. Furche, J. Chem. Phys. 133 134105 (2010).

----- AuxJ basis set information -----
Your calculation utilizes the auxiliary basis: def2/J
   F. Weigend, Phys. Chem. Chem. Phys. 8, 1057 (2006).

================================================================================
                                        WARNINGS
                       Please study these warnings very carefully!
================================================================================


INFO   : the flag for use of the SHARK integral package has been found!

================================================================================
                                       INPUT FILE
================================================================================
NAME = TZVPD_CAMB3LYP_C1_dlpno_new_neg.com
|  1> !CAM-B3LYP RIJCOSX def2-TZVPD def2/J TightSCF 
|  2> *xyz 0 1 
|  3> C          4.08422        1.74208       -2.11472
|  4> C          4.26524        2.50052       -0.79589
|  5> H          4.86853        3.39267       -0.98113
|  6> H          3.30764        2.82457       -0.38781
|  7> C          4.98224        1.65026        0.24742
|  8> F          4.36806        1.38927        1.31371
|  9> O          6.12892        1.23351       -0.04562
| 10> H          3.57911        2.36849       -2.81997
| 11> H          3.50424        0.85965       -1.94198
| 12> H          5.04288        1.46841       -2.50327
| 13> *
| 14> %MaxCore 64000
| 15> %pal nprocs 8
| 16> end  
| 17> %scf
| 18>   MaxIter 150
| 19> end
| 20> 
| 21> 
| 22>                          ****END OF INPUT****
================================================================================

                       ****************************
                       * Single Point Calculation *
                       ****************************

---------------------------------
CARTESIAN COORDINATES (ANGSTROEM)
---------------------------------
  C      4.084220    1.742080   -2.114720
  C      4.265240    2.500520   -0.795890
  H      4.868530    3.392670   -0.981130
  H      3.307640    2.824570   -0.387810
  C      4.982240    1.650260    0.247420
  F      4.368060    1.389270    1.313710
  O      6.128920    1.233510   -0.045620
  H      3.579110    2.368490   -2.819970
  H      3.504240    0.859650   -1.941980
  H      5.042880    1.468410   -2.503270

----------------------------
CARTESIAN COORDINATES (A.U.)
----------------------------
  NO LB      ZA    FRAG     MASS         X           Y           Z
   0 C     6.0000    0    12.011    7.718057    3.292054   -3.996242
   1 C     6.0000    0    12.011    8.060135    4.725298   -1.504014
   2 H     1.0000    0     1.008    9.200188    6.411217   -1.854067
   3 H     1.0000    0     1.008    6.250534    5.337664   -0.732855
   4 C     6.0000    0    12.011    9.415069    3.118539    0.467556
   5 F     9.0000    0    18.998    8.254437    2.625340    2.482552
   6 O     8.0000    0    15.999   11.581980    2.330996   -0.086209
   7 H     1.0000    0     1.008    6.763538    4.475797   -5.328971
   8 H     1.0000    0     1.008    6.622054    1.624503   -3.669810
   9 H     1.0000    0     1.008    9.529662    2.774893   -4.730495

--------------------------------
INTERNAL COORDINATES (ANGSTROEM)
--------------------------------
 C      0   0   0     0.000000000000     0.00000000     0.00000000
 C      1   0   0     1.532094005895     0.00000000     0.00000000
 H      2   1   0     1.092796552063   108.87198648     0.00000000
 H      2   1   3     1.090199728903   111.44297969   118.77367229
 C      2   1   3     1.524967810709   111.62069719   240.67919178
 F      5   2   1     1.257897935685   117.77857234   241.09553575
 O      5   2   1     1.254762139411   117.07011776    59.09626179
 H      1   2   3     1.070001477896   109.47114102   299.32086871
 H      1   2   3     1.069999351822   109.47110807   179.32095167
 H      1   2   3     1.069997835045   109.47163885    59.32110217

---------------------------
INTERNAL COORDINATES (A.U.)
---------------------------
 C      0   0   0     0.000000000000     0.00000000     0.00000000
 C      1   0   0     2.895238082564     0.00000000     0.00000000
 H      2   1   0     2.065086203492   108.87198648     0.00000000
 H      2   1   3     2.060178918902   111.44297969   118.77367229
 C      2   1   3     2.881771525286   111.62069719   240.67919178
 F      5   2   1     2.377082602869   117.77857234   241.09553575
 O      5   2   1     2.371156806700   117.07011776    59.09626179
 H      1   2   3     2.022009756115   109.47114102   299.32086871
 H      1   2   3     2.022005738417   109.47110807   179.32095167
 H      1   2   3     2.022002872123   109.47163885    59.32110217

---------------------
BASIS SET INFORMATION
---------------------
There are 4 groups of distinct atoms

 Group   1 Type C   : 12s6p3d1f contracted to 6s3p3d1f pattern {621111/411/111/1}
 Group   2 Type H   : 5s2p contracted to 3s2p pattern {311/11}
 Group   3 Type F   : 12s7p3d1f contracted to 6s4p3d1f pattern {621111/4111/111/1}
 Group   4 Type O   : 12s7p3d1f contracted to 6s4p3d1f pattern {621111/4111/111/1}

Atom   0C    basis set group =>   1
Atom   1C    basis set group =>   1
Atom   2H    basis set group =>   2
Atom   3H    basis set group =>   2
Atom   4C    basis set group =>   1
Atom   5F    basis set group =>   3
Atom   6O    basis set group =>   4
Atom   7H    basis set group =>   2
Atom   8H    basis set group =>   2
Atom   9H    basis set group =>   2
---------------------------------
AUXILIARY/J BASIS SET INFORMATION
---------------------------------
There are 4 groups of distinct atoms

 Group   1 Type C   : 12s5p4d2f1g contracted to 6s4p3d1f1g pattern {711111/2111/211/2/1}
 Group   2 Type H   : 5s2p1d contracted to 3s1p1d pattern {311/2/1}
 Group   3 Type F   : 12s5p4d2f1g contracted to 6s4p3d1f1g pattern {711111/2111/211/2/1}
 Group   4 Type O   : 12s5p4d2f1g contracted to 6s4p3d1f1g pattern {711111/2111/211/2/1}

Atom   0C    basis set group =>   1
Atom   1C    basis set group =>   1
Atom   2H    basis set group =>   2
Atom   3H    basis set group =>   2
Atom   4C    basis set group =>   1
Atom   5F    basis set group =>   3
Atom   6O    basis set group =>   4
Atom   7H    basis set group =>   2
Atom   8H    basis set group =>   2
Atom   9H    basis set group =>   2


           ************************************************************
           *        Program running with 8 parallel MPI-processes     *
           *              working on a common directory               *
           ************************************************************
------------------------------------------------------------------------------
                           ORCA GTO INTEGRAL CALCULATION
                           -- RI-GTO INTEGRALS CHOSEN --
------------------------------------------------------------------------------
------------------------------------------------------------------------------
                   ___                                                        
                  /   \      - P O W E R E D   B Y -                         
                 /     \                                                     
                 |  |  |   _    _      __       _____    __    __             
                 |  |  |  | |  | |    /  \     |  _  \  |  |  /  |          
                  \  \/   | |  | |   /    \    | | | |  |  | /  /          
                 / \  \   | |__| |  /  /\  \   | |_| |  |  |/  /          
                |  |  |   |  __  | /  /__\  \  |    /   |      \           
                |  |  |   | |  | | |   __   |  |    \   |  |\   \          
                \     /   | |  | | |  |  |  |  | |\  \  |  | \   \       
                 \___/    |_|  |_| |__|  |__|  |_| \__\ |__|  \__/        
                                                                              
                      - O R C A' S   B I G   F R I E N D -                    
                                      &                                       
                       - I N T E G R A L  F E E D E R -                       
                                                                              
 v1 FN, 2020, v2 2021                                                         
------------------------------------------------------------------------------


Reading SHARK input file TZVPD_CAMB3LYP_C1_dlpno_new_neg.SHARKINP.tmp ... ok
----------------------
SHARK INTEGRAL PACKAGE
----------------------

Number of atoms                             ...     10
Number of basis functions                   ...    236
Number of shells                            ...     92
Maximum angular momentum                    ...      3
Integral batch strategy                     ... SHARK/LIBINT Hybrid
RI-J (if used) integral strategy            ... SPLIT-RIJ (Revised 2003 algorithm where possible)
Printlevel                                  ...      1
Contraction scheme used                     ... SEGMENTED contraction
Coulomb Range Separation                    ... NOT USED
Exchange Range Separation                   ... Long Range
   Mu parameter                             ...  0.330000
   Scaling (regular/separated)              ...  0.190000  0.460000
Finite Nucleus Model                        ... NOT USED
Auxiliary Coulomb fitting basis             ... AVAILABLE
   # of basis functions in Aux-J            ...    300
   # of shells in Aux-J                     ...    100
   Maximum angular momentum in Aux-J        ...      4
Auxiliary J/K fitting basis                 ... NOT available
Auxiliary Correlation fitting basis         ... NOT available
Auxiliary 'external' fitting basis          ... NOT available
Integral threshold                          ...     2.500000e-11
Primitive cut-off                           ...     2.500000e-12
Primitive pair pre-selection threshold      ...     2.500000e-12

Calculating pre-screening integrals         ... done (  0.2 sec) Dimension = 92
Organizing shell pair data                  ... done (  0.1 sec)
Shell pair information
Total number of shell pairs                 ...      4278
Shell pairs after pre-screening             ...      4159
Total number of primitive shell pairs       ...     11003
Primitive shell pairs kept                  ...      8931
          la=0 lb=0:    976 shell pairs
          la=1 lb=0:   1190 shell pairs
          la=1 lb=1:    376 shell pairs
          la=2 lb=0:    656 shell pairs
          la=2 lb=1:    402 shell pairs
          la=2 lb=2:    119 shell pairs
          la=3 lb=0:    216 shell pairs
          la=3 lb=1:    134 shell pairs
          la=3 lb=2:     75 shell pairs
          la=3 lb=3:     15 shell pairs

Calculating one electron integrals          ... done (  0.0 sec)
Calculating RI/J V-Matrix + Cholesky decomp.... done (  0.0 sec)
Calculating Nuclear repulsion               ... done (  0.0 sec) ENN=    176.772299973784 Eh

SHARK setup successfully completed in   0.4 seconds

Maximum memory used throughout the entire GTOINT-calculation: 13.9 MB


           ************************************************************
           *        Program running with 8 parallel MPI-processes     *
           *              working on a common directory               *
           ************************************************************
-------------------------------------------------------------------------------
                                 ORCA SCF
-------------------------------------------------------------------------------

------------
SCF SETTINGS
------------
Hamiltonian:
 Density Functional     Method          .... DFT(GTOs)
 Exchange Functional    Exchange        .... WB88
 Correlation Functional Correlation     .... LYP
 LDA part of GGA corr.  LDAOpt          .... VWN-5
 Gradients option       PostSCFGGA      .... off
 Hybrid DFT is turned on
   Fraction HF Exchange ScalHFX         ....  0.190000
   Scaling of DF-GGA-X  ScalDFX         ....  0.350000
   Scaling of DF-GGA-C  ScalDFC         ....  0.810000
   Scaling of DF-LDA-C  ScalLDAC        ....  1.000000
   Perturbative correction              ....  0.000000
   Density functional embedding theory  .... OFF
 Long-range corrected/Screened/Range-Separated Hybrid DFT is turned on
   Amount of maximum screened exact exchange              ....  0.460000
   Range separation parameter mu (erf(mu*r12)/r12)        ....  0.330000
 RI-approximation to the Coulomb term is turned on
   Number of AuxJ basis functions       .... 300
   RIJ-COSX (HFX calculated with COS-X)).... on


General Settings:
 Integral files         IntName         .... TZVPD_CAMB3LYP_C1_dlpno_new_neg
 Hartree-Fock type      HFTyp           .... RHF
 Total Charge           Charge          ....    0
 Multiplicity           Mult            ....    1
 Number of Electrons    NEL             ....   40
 Basis Dimension        Dim             ....  236
 Nuclear Repulsion      ENuc            ....    176.7722999738 Eh

Convergence Acceleration:
 DIIS                   CNVDIIS         .... on
   Start iteration      DIISMaxIt       ....    12
   Startup error        DIISStart       ....  0.200000
   # of expansion vecs  DIISMaxEq       ....     5
   Bias factor          DIISBfac        ....   1.050
   Max. coefficient     DIISMaxC        ....  10.000
 Trust-Rad. Augm. Hess. CNVTRAH         .... auto
   Auto Start mean grad. ratio tolernc. ....  1.125000
   Auto Start start iteration           ....    20
   Auto Start num. interpolation iter.  ....    10
   Max. Number of Micro iterations      ....    16
   Max. Number of Macro iterations      .... Maxiter - #DIIS iter
   Number of Davidson start vectors     ....     2
   Converg. threshold I  (grad. norm)   ....   1.000e-05
   Converg. threshold II (energy diff.) ....   1.000e-08
   Grad. Scal. Fac. for Micro threshold ....   0.100
   Minimum threshold for Micro iter.    ....   0.010
   NR start threshold (gradient norm)   ....   0.001
   Initial trust radius                 ....   0.400
   Minimum AH scaling param. (alpha)    ....   1.000
   Maximum AH scaling param. (alpha)    .... 1000.000
   Orbital update algorithm             .... Taylor
   White noise on init. David. guess    .... on
   Maximum white noise                  ....   0.010
   Quad. conv. algorithm                .... NR
 SOSCF                  CNVSOSCF        .... on
   Start iteration      SOSCFMaxIt      ....   150
   Startup grad/error   SOSCFStart      ....  0.003300
 Level Shifting         CNVShift        .... on
   Level shift para.    LevelShift      ....    0.2500
   Turn off err/grad.   ShiftErr        ....    0.0010
 Zerner damping         CNVZerner       .... off
 Static damping         CNVDamp         .... on
   Fraction old density DampFac         ....    0.7000
   Max. Damping (<1)    DampMax         ....    0.9800
   Min. Damping (>=0)   DampMin         ....    0.0000
   Turn off err/grad.   DampErr         ....    0.1000
 Fernandez-Rico         CNVRico         .... off

SCF Procedure:
 Maximum # iterations   MaxIter         ....   150
 SCF integral mode      SCFMode         .... Direct
   Integral package                     .... SHARK and LIBINT hybrid scheme
 Reset frequency        DirectResetFreq ....    20
 Integral Threshold     Thresh          ....  2.500e-11 Eh
 Primitive CutOff       TCut            ....  2.500e-12 Eh

Convergence Tolerance:
 Convergence Check Mode ConvCheckMode   .... Total+1el-Energy
 Convergence forced     ConvForced      .... 0
 Energy Change          TolE            ....  1.000e-08 Eh
 1-El. energy change                    ....  1.000e-05 Eh
 Orbital Gradient       TolG            ....  1.000e-05
 Orbital Rotation angle TolX            ....  1.000e-05
 DIIS Error             TolErr          ....  5.000e-07


Diagonalization of the overlap matrix:
Smallest eigenvalue                        ... 1.137e-05
Time for diagonalization                   ...    0.015 sec
Threshold for overlap eigenvalues          ... 1.000e-08
Number of eigenvalues below threshold      ... 0
Time for construction of square roots      ...    0.013 sec
Total time needed                          ...    0.029 sec

Time for model grid setup =    0.055 sec

------------------------------
INITIAL GUESS: MODEL POTENTIAL
------------------------------
Loading Hartree-Fock densities                     ... done
Calculating cut-offs                               ... done
Initializing the effective Hamiltonian             ... done
Setting up the integral package (SHARK)            ... done
Starting the Coulomb interaction                   ... done (   0.0 sec)
Reading the grid                                   ... done
Mapping shells                                     ... done
Starting the XC term evaluation                    ... done (   0.1 sec)
  promolecular density results
     # of electrons  =     39.996837426
     EX              =    -34.958645195
     EC              =     -1.330238620
     EX+EC           =    -36.288883815
Transforming the Hamiltonian                       ... done (   0.0 sec)
Diagonalizing the Hamiltonian                      ... done (   0.0 sec)
Back transforming the eigenvectors                 ... done (   0.0 sec)
Now organizing SCF variables                       ... done
                      ------------------
                      INITIAL GUESS DONE (   0.2 sec)
                      ------------------
-------------------
DFT GRID GENERATION
-------------------

General Integration Accuracy     IntAcc      ... 4.388
Radial Grid Type                 RadialGrid  ... OptM3 with GC (2021)
Angular Grid (max. ang.)         AngularGrid ... 4 (Lebedev-302)
Angular grid pruning method      GridPruning ... 4 (adaptive)
Weight generation scheme         WeightScheme... Becke
Basis function cutoff            BFCut       ... 1.0000e-11
Integration weight cutoff        WCut        ... 1.0000e-14
Angular grids for H and He will be reduced by one unit
Partially contracted basis set               ... off
Rotationally invariant grid construction     ... off

Total number of grid points                  ...    49065
Total number of batches                      ...      771
Average number of points per batch           ...       63
Average number of grid points per atom       ...     4906
Time for grid setup =    0.284 sec

--------------------
COSX GRID GENERATION
--------------------

GRIDX 1
-------
General Integration Accuracy     IntAcc      ... 3.816
Radial Grid Type                 RadialGrid  ... OptM3 with GC (2021)
Angular Grid (max. ang.)         AngularGrid ... 1 (Lebedev-50)
Angular grid pruning method      GridPruning ... 4 (adaptive)
Weight generation scheme         WeightScheme... Becke
Basis function cutoff            BFCut       ... 1.0000e-11
Integration weight cutoff        WCut        ... 1.0000e-14
Angular grids for H and He will be reduced by one unit
Partially contracted basis set               ... on
Rotationally invariant grid construction     ... off

Total number of grid points                  ...     6172
Total number of batches                      ...      101
Average number of points per batch           ...       61
Average number of grid points per atom       ...      617
UseSFitting                                  ... on

GRIDX 2
-------
General Integration Accuracy     IntAcc      ... 4.020
Radial Grid Type                 RadialGrid  ... OptM3 with GC (2021)
Angular Grid (max. ang.)         AngularGrid ... 2 (Lebedev-110)
Angular grid pruning method      GridPruning ... 4 (adaptive)
Weight generation scheme         WeightScheme... Becke
Basis function cutoff            BFCut       ... 1.0000e-11
Integration weight cutoff        WCut        ... 1.0000e-14
Angular grids for H and He will be reduced by one unit
Partially contracted basis set               ... on
Rotationally invariant grid construction     ... off

Total number of grid points                  ...    15353
Total number of batches                      ...      245
Average number of points per batch           ...       62
Average number of grid points per atom       ...     1535
UseSFitting                                  ... on

GRIDX 3
-------
General Integration Accuracy     IntAcc      ... 4.338
Radial Grid Type                 RadialGrid  ... OptM3 with GC (2021)
Angular Grid (max. ang.)         AngularGrid ... 3 (Lebedev-194)
Angular grid pruning method      GridPruning ... 4 (adaptive)
Weight generation scheme         WeightScheme... Becke
Basis function cutoff            BFCut       ... 1.0000e-11
Integration weight cutoff        WCut        ... 1.0000e-14
Angular grids for H and He will be reduced by one unit
Partially contracted basis set               ... on
Rotationally invariant grid construction     ... off

Total number of grid points                  ...    34124
Total number of batches                      ...      537
Average number of points per batch           ...       63
Average number of grid points per atom       ...     3412
UseSFitting                                  ... on

Time for X-Grid setup             =    0.279 sec

--------------
SCF ITERATIONS
--------------
ITER       Energy         Delta-E        Max-DP      RMS-DP      [F,P]     Damp
               ***  Starting incremental Fock matrix formation  ***
  0   -292.2038961601   0.000000000000 0.08833026  0.00170638  0.2825823 0.7000
  1   -292.2975085956  -0.093612435480 0.07043389  0.00125102  0.1078205 0.7000
                               ***Turning on DIIS***
  2   -292.3323708591  -0.034862263504 0.11119328  0.00245148  0.0450154 0.0000
  3   -292.3937650737  -0.061394214653 0.04170127  0.00060534  0.0601172 0.0000
  4   -292.4038176339  -0.010052560183 0.01481649  0.00019316  0.0155155 0.0000
  5   -292.4045226859  -0.000705051942 0.00257191  0.00005264  0.0051180 0.0000
                      *** Initiating the SOSCF procedure ***
                           *** Shutting down DIIS ***
                      *** Re-Reading the Fockian *** 
                      *** Removing any level shift *** 
ITER      Energy       Delta-E        Grad      Rot      Max-DP    RMS-DP
  6   -292.40456322  -0.0000405380  0.000486  0.000486  0.001160  0.000032
               *** Restarting incremental Fock matrix formation ***
  7   -292.40455998   0.0000032457  0.000124  0.000263  0.000888  0.000024
  8   -292.40456000  -0.0000000242  0.000251  0.000300  0.000251  0.000006
  9   -292.40456097  -0.0000009643  0.000036  0.000064  0.000191  0.000003
 10   -292.40456096   0.0000000081  0.000049  0.000051  0.000051  0.000001
 11   -292.40456101  -0.0000000489  0.000005  0.000005  0.000087  0.000001
 12   -292.40456101   0.0000000011  0.000004  0.000003  0.000036  0.000001
                  ***Gradient check signals convergence***
              ***Rediagonalizing the Fockian in SOSCF/NRSCF***

               *****************************************************
               *                     SUCCESS                       *
               *           SCF CONVERGED AFTER  13 CYCLES          *
               *****************************************************

Old exchange energy                            =     -9.925541138 Eh
New exchange energy                            =     -9.925551931 Eh
Exchange energy change after final integration =     -0.000010794 Eh
Total energy after final integration           =   -292.404571801 Eh
Final COS-X integration done in                =     2.712 sec

----------------
TOTAL SCF ENERGY
----------------

Total Energy       :         -292.40457180 Eh           -7956.73291 eV

Components:
Nuclear Repulsion  :          176.77229997 Eh            4810.21883 eV
Electronic Energy  :         -469.17687178 Eh          -12766.95174 eV
One Electron Energy:         -749.96330528 Eh          -20407.53904 eV
Two Electron Energy:          280.78643350 Eh            7640.58730 eV
Max COSX asymmetry :            0.00000210 Eh               0.00006 eV

Virial components:
Potential Energy   :         -583.63674422 Eh          -15881.56321 eV
Kinetic Energy     :          291.23217242 Eh            7924.83030 eV
Virial Ratio       :            2.00402565


DFT components:
N(Alpha)           :       19.999980293807 electrons
N(Beta)            :       19.999980293807 electrons
N(Total)           :       39.999960587614 electrons
E(XC)              :      -27.179264442369 Eh       
DFET-embed. en.    :        0.000000000000 Eh       

---------------
SCF CONVERGENCE
---------------

  Last Energy change         ...   -1.3663e-09  Tolerance :   1.0000e-08
  Last MAX-Density change    ...    1.2212e-15  Tolerance :   1.0000e-07
  Last RMS-Density change    ...    1.5017e-17  Tolerance :   5.0000e-09
  Last Orbital Gradient      ...    2.7900e-07  Tolerance :   1.0000e-05
  Last Orbital Rotation      ...    6.8010e-07  Tolerance :   1.0000e-05

             **** THE GBW FILE WAS UPDATED (TZVPD_CAMB3LYP_C1_dlpno_new_neg.gbw) ****
             **** DENSITY TZVPD_CAMB3LYP_C1_dlpno_new_neg.scfp WAS UPDATED ****
             **** ENERGY FILE WAS UPDATED (TZVPD_CAMB3LYP_C1_dlpno_new_neg.en.tmp) ****
             **** THE GBW FILE WAS UPDATED (TZVPD_CAMB3LYP_C1_dlpno_new_neg.gbw) ****
             **** DENSITY TZVPD_CAMB3LYP_C1_dlpno_new_neg.scfp WAS UPDATED ****
----------------
ORBITAL ENERGIES
----------------

  NO   OCC          E(Eh)            E(eV) 
   0   2.0000     -24.828710      -675.6236 
   1   2.0000     -19.207313      -522.6576 
   2   2.0000     -10.427814      -283.7552 
   3   2.0000     -10.277454      -279.6637 
   4   2.0000     -10.248793      -278.8838 
   5   2.0000      -1.402686       -38.1690 
   6   2.0000      -1.118337       -30.4315 
   7   2.0000      -0.886509       -24.1231 
   8   2.0000      -0.770891       -20.9770 
   9   2.0000      -0.717831       -19.5332 
  10   2.0000      -0.626098       -17.0370 
  11   2.0000      -0.611726       -16.6459 
  12   2.0000      -0.584575       -15.9071 
  13   2.0000      -0.538352       -14.6493 
  14   2.0000      -0.507279       -13.8038 
  15   2.0000      -0.469153       -12.7663 
  16   2.0000      -0.449111       -12.2209 
  17   2.0000      -0.443086       -12.0570 
  18   2.0000      -0.414752       -11.2860 
  19   2.0000      -0.364058        -9.9065 
  20   0.0000       0.013222         0.3598 
  21   0.0000       0.030898         0.8408 
  22   0.0000       0.052852         1.4382 
  23   0.0000       0.061440         1.6719 
  24   0.0000       0.071930         1.9573 
  25   0.0000       0.099099         2.6966 
  26   0.0000       0.101820         2.7707 
  27   0.0000       0.105863         2.8807 
  28   0.0000       0.118432         3.2227 
  29   0.0000       0.121877         3.3164 
  30   0.0000       0.147652         4.0178 
  31   0.0000       0.153512         4.1773 
  32   0.0000       0.161843         4.4040 
  33   0.0000       0.163951         4.4613 
  34   0.0000       0.177326         4.8253 
  35   0.0000       0.190425         5.1817 
  36   0.0000       0.198725         5.4076 
  37   0.0000       0.222205         6.0465 
  38   0.0000       0.232320         6.3218 
  39   0.0000       0.244724         6.6593 
  40   0.0000       0.248019         6.7489 
  41   0.0000       0.256688         6.9848 
  42   0.0000       0.268178         7.2975 
  43   0.0000       0.283329         7.7098 
  44   0.0000       0.294641         8.0176 
  45   0.0000       0.296011         8.0549 
  46   0.0000       0.304984         8.2990 
  47   0.0000       0.314955         8.5704 
  48   0.0000       0.318368         8.6632 
  49   0.0000       0.323671         8.8075 
  50   0.0000       0.332529         9.0486 
  51   0.0000       0.340749         9.2723 
  52   0.0000       0.347154         9.4465 
  53   0.0000       0.355370         9.6701 
  54   0.0000       0.364755         9.9255 
  55   0.0000       0.376841        10.2544 
  56   0.0000       0.386276        10.5111 
  57   0.0000       0.396322        10.7845 
  58   0.0000       0.400215        10.8904 
  59   0.0000       0.412129        11.2146 
  60   0.0000       0.420683        11.4474 
  61   0.0000       0.429380        11.6840 
  62   0.0000       0.438873        11.9423 
  63   0.0000       0.444545        12.0967 
  64   0.0000       0.466689        12.6992 
  65   0.0000       0.471437        12.8285 
  66   0.0000       0.475880        12.9494 
  67   0.0000       0.480814        13.0836 
  68   0.0000       0.494625        13.4594 
  69   0.0000       0.502838        13.6829 
  70   0.0000       0.509198        13.8560 
  71   0.0000       0.521169        14.1817 
  72   0.0000       0.532017        14.4769 
  73   0.0000       0.568590        15.4721 
  74   0.0000       0.589457        16.0400 
  75   0.0000       0.594460        16.1761 
  76   0.0000       0.607211        16.5231 
  77   0.0000       0.629494        17.1294 
  78   0.0000       0.655192        17.8287 
  79   0.0000       0.661994        18.0138 
  80   0.0000       0.673221        18.3193 
  81   0.0000       0.679592        18.4926 
  82   0.0000       0.700878        19.0719 
  83   0.0000       0.711878        19.3712 
  84   0.0000       0.715367        19.4661 
  85   0.0000       0.722263        19.6538 
  86   0.0000       0.726403        19.7664 
  87   0.0000       0.737848        20.0779 
  88   0.0000       0.741127        20.1671 
  89   0.0000       0.748339        20.3633 
  90   0.0000       0.758110        20.6292 
  91   0.0000       0.778362        21.1803 
  92   0.0000       0.794544        21.6206 
  93   0.0000       0.815370        22.1873 
  94   0.0000       0.833244        22.6737 
  95   0.0000       0.855704        23.2849 
  96   0.0000       0.868678        23.6379 
  97   0.0000       0.875400        23.8208 
  98   0.0000       0.932450        25.3733 
  99   0.0000       0.944435        25.6994 
 100   0.0000       0.978938        26.6383 
 101   0.0000       1.001718        27.2581 
 102   0.0000       1.020317        27.7642 
 103   0.0000       1.030387        28.0383 
 104   0.0000       1.066367        29.0173 
 105   0.0000       1.119250        30.4563 
 106   0.0000       1.142739        31.0955 
 107   0.0000       1.155783        31.4505 
 108   0.0000       1.192579        32.4517 
 109   0.0000       1.216330        33.0980 
 110   0.0000       1.250441        34.0262 
 111   0.0000       1.257449        34.2169 
 112   0.0000       1.277696        34.7679 
 113   0.0000       1.303539        35.4711 
 114   0.0000       1.345365        36.6092 
 115   0.0000       1.352178        36.7946 
 116   0.0000       1.363049        37.0905 
 117   0.0000       1.403473        38.1904 
 118   0.0000       1.442455        39.2512 
 119   0.0000       1.535279        41.7771 
 120   0.0000       1.575870        42.8816 
 121   0.0000       1.701555        46.3017 
 122   0.0000       1.771278        48.1989 
 123   0.0000       1.783669        48.5361 
 124   0.0000       1.819073        49.4995 
 125   0.0000       1.843444        50.1627 
 126   0.0000       1.859868        50.6096 
 127   0.0000       1.871932        50.9378 
 128   0.0000       1.894731        51.5583 
 129   0.0000       1.897110        51.6230 
 130   0.0000       1.934034        52.6277 
 131   0.0000       1.943710        52.8910 
 132   0.0000       1.969929        53.6045 
 133   0.0000       2.011518        54.7362 
 134   0.0000       2.076526        56.5052 
 135   0.0000       2.083658        56.6992 
 136   0.0000       2.091324        56.9078 
 137   0.0000       2.154383        58.6237 
 138   0.0000       2.214866        60.2696 
 139   0.0000       2.228488        60.6403 
 140   0.0000       2.299890        62.5832 
 141   0.0000       2.309204        62.8366 
 142   0.0000       2.372794        64.5670 
 143   0.0000       2.413341        65.6704 
 144   0.0000       2.442221        66.4562 
 145   0.0000       2.470035        67.2131 
 146   0.0000       2.492977        67.8373 
 147   0.0000       2.508208        68.2518 
 148   0.0000       2.561554        69.7034 
 149   0.0000       2.561952        69.7143 
 150   0.0000       2.585102        70.3442 
 151   0.0000       2.611031        71.0498 
 152   0.0000       2.656454        72.2858 
 153   0.0000       2.697067        73.3909 
 154   0.0000       2.726865        74.2018 
 155   0.0000       2.752787        74.9071 
 156   0.0000       2.767130        75.2974 
 157   0.0000       2.784726        75.7762 
 158   0.0000       2.819147        76.7129 
 159   0.0000       2.860874        77.8483 
 160   0.0000       2.877663        78.3052 
 161   0.0000       2.969210        80.7963 
 162   0.0000       2.977564        81.0236 
 163   0.0000       3.004756        81.7636 
 164   0.0000       3.073597        83.6368 
 165   0.0000       3.129838        85.1672 
 166   0.0000       3.157144        85.9102 
 167   0.0000       3.213312        87.4387 
 168   0.0000       3.222305        87.6834 
 169   0.0000       3.258455        88.6671 
 170   0.0000       3.265409        88.8563 
 171   0.0000       3.297077        89.7180 
 172   0.0000       3.316873        90.2567 
 173   0.0000       3.369321        91.6839 
 174   0.0000       3.382373        92.0390 
 175   0.0000       3.420218        93.0689 
 176   0.0000       3.441016        93.6348 
 177   0.0000       3.462390        94.2164 
 178   0.0000       3.515002        95.6481 
 179   0.0000       3.523836        95.8884 
 180   0.0000       3.544385        96.4476 
 181   0.0000       3.562501        96.9406 
 182   0.0000       3.589031        97.6625 
 183   0.0000       3.612025        98.2882 
 184   0.0000       3.656209        99.4905 
 185   0.0000       3.678543       100.0982 
 186   0.0000       3.718416       101.1832 
 187   0.0000       3.799375       103.3863 
 188   0.0000       3.905393       106.2712 
 189   0.0000       3.950121       107.4882 
 190   0.0000       3.984699       108.4292 
 191   0.0000       4.034319       109.7794 
 192   0.0000       4.048358       110.1614 
 193   0.0000       4.110197       111.8442 
 194   0.0000       4.160172       113.2040 
 195   0.0000       4.213082       114.6438 
 196   0.0000       4.285884       116.6248 
 197   0.0000       4.393438       119.5515 
 198   0.0000       4.502986       122.5325 
 199   0.0000       4.578423       124.5852 
 200   0.0000       4.645612       126.4135 
 201   0.0000       4.671850       127.1275 
 202   0.0000       4.757137       129.4483 
 203   0.0000       4.789105       130.3182 
 204   0.0000       4.943111       134.5089 
 205   0.0000       5.014470       136.4507 
 206   0.0000       5.240824       142.6101 
 207   0.0000       5.271972       143.4576 
 208   0.0000       5.493254       149.4791 
 209   0.0000       5.576518       151.7448 
 210   0.0000       5.717536       155.5821 
 211   0.0000       6.056170       164.7968 
 212   0.0000       6.282404       170.9529 
 213   0.0000       6.340986       172.5470 
 214   0.0000       6.568797       178.7460 
 215   0.0000       6.635550       180.5625 
 216   0.0000       6.838682       186.0900 
 217   0.0000       6.886972       187.4040 
 218   0.0000       6.932509       188.6432 
 219   0.0000       6.955280       189.2628 
 220   0.0000       7.132643       194.0891 
 221   0.0000       7.181780       195.4262 
 222   0.0000       7.277036       198.0182 
 223   0.0000       7.454876       202.8575 
 224   0.0000       7.614757       207.2081 
 225   0.0000       7.890365       214.7078 
 226   0.0000       8.553180       232.7439 
 227   0.0000       8.605882       234.1779 
 228   0.0000       8.877637       241.5728 
 229   0.0000       9.075406       246.9544 
 230   0.0000       9.283679       252.6217 
 231   0.0000      22.613872       615.3547 
 232   0.0000      22.646297       616.2371 
 233   0.0000      23.419692       637.2822 
 234   0.0000      44.195180      1202.6120 
 235   0.0000      57.455457      1563.4425 

                    ********************************
                    * MULLIKEN POPULATION ANALYSIS *
                    ********************************

-----------------------
MULLIKEN ATOMIC CHARGES
-----------------------
   0 C :   -1.106075
   1 C :   -0.178663
   2 H :    0.247447
   3 H :    0.267944
   4 C :    0.499011
   5 F :   -0.204331
   6 O :   -0.483988
   7 H :    0.308800
   8 H :    0.341087
   9 H :    0.308768
Sum of atomic charges:   -0.0000000

--------------------------------
MULLIKEN REDUCED ORBITAL CHARGES
--------------------------------
  0 C s       :     3.452139  s :     3.452139
      pz      :     1.047569  p :     3.593353
      px      :     1.327334
      py      :     1.218450
      dz2     :     0.003164  d :     0.057056
      dxz     :     0.001989
      dyz     :     0.014088
      dx2y2   :     0.009235
      dxy     :     0.028578
      f0      :     0.000764  f :     0.003527
      f+1     :     0.000333
      f-1     :     0.000760
      f+2     :     0.000351
      f-2     :     0.000850
      f+3     :     0.000417
      f-3     :     0.000052
  1 C s       :     3.136359  s :     3.136359
      pz      :     0.960573  p :     3.068939
      px      :     1.119202
      py      :     0.989165
      dz2     :    -0.013247  d :    -0.032163
      dxz     :    -0.037158
      dyz     :    -0.003333
      dx2y2   :     0.006742
      dxy     :     0.014832
      f0      :     0.001044  f :     0.005529
      f+1     :     0.000610
      f-1     :     0.001140
      f+2     :     0.000787
      f-2     :     0.001168
      f+3     :     0.000506
      f-3     :     0.000274
  2 H s       :     0.700597  s :     0.700597
      pz      :     0.017864  p :     0.051956
      px      :     0.008804
      py      :     0.025288
  3 H s       :     0.683692  s :     0.683692
      pz      :     0.015908  p :     0.048364
      px      :     0.024964
      py      :     0.007492
  4 C s       :     3.202809  s :     3.202809
      pz      :     0.618792  p :     1.971221
      px      :     0.663083
      py      :     0.689346
      dz2     :     0.050195  d :     0.297948
      dxz     :     0.108213
      dyz     :     0.046431
      dx2y2   :     0.046945
      dxy     :     0.046164
      f0      :     0.006096  f :     0.029012
      f+1     :     0.004597
      f-1     :     0.003456
      f+2     :     0.004911
      f-2     :     0.003818
      f+3     :     0.003412
      f-3     :     0.002722
  5 F s       :     3.989938  s :     3.989938
      pz      :     1.568354  p :     5.194867
      px      :     1.789164
      py      :     1.837349
      dz2     :     0.007239  d :     0.018650
      dxz     :     0.003031
      dyz     :     0.004992
      dx2y2   :     0.000883
      dxy     :     0.002504
      f0      :     0.000181  f :     0.000876
      f+1     :     0.000277
      f-1     :     0.000114
      f+2     :     0.000128
      f-2     :     0.000134
      f+3     :     0.000020
      f-3     :     0.000022
  6 O s       :     3.978966  s :     3.978966
      pz      :     1.712128  p :     4.475199
      px      :     1.282070
      py      :     1.481001
      dz2     :     0.003121  d :     0.028167
      dxz     :     0.005165
      dyz     :     0.001548
      dx2y2   :     0.009573
      dxy     :     0.008761
      f0      :     0.000195  f :     0.001655
      f+1     :     0.000283
      f-1     :     0.000061
      f+2     :     0.000208
      f-2     :     0.000188
      f+3     :     0.000419
      f-3     :     0.000302
  7 H s       :     0.626957  s :     0.626957
      pz      :     0.028083  p :     0.064243
      px      :     0.020318
      py      :     0.015843
  8 H s       :     0.604118  s :     0.604118
      pz      :     0.005452  p :     0.054795
      px      :     0.018804
      py      :     0.030539
  9 H s       :     0.628103  s :     0.628103
      pz      :     0.019886  p :     0.063130
      px      :     0.024878
      py      :     0.018366


                     *******************************
                     * LOEWDIN POPULATION ANALYSIS *
                     *******************************

----------------------
LOEWDIN ATOMIC CHARGES
----------------------
   0 C :   -0.087852
   1 C :   -0.158279
   2 H :    0.122386
   3 H :    0.109432
   4 C :   -0.490333
   5 F :    0.205795
   6 O :    0.079980
   7 H :    0.069886
   8 H :    0.075450
   9 H :    0.073535

-------------------------------
LOEWDIN REDUCED ORBITAL CHARGES
-------------------------------
  0 C s       :     2.722296  s :     2.722296
      pz      :     0.934380  p :     2.888320
      px      :     0.985060
      py      :     0.968880
      dz2     :     0.101542  d :     0.450072
      dxz     :     0.110402
      dyz     :     0.111466
      dx2y2   :     0.043739
      dxy     :     0.082922
      f0      :     0.005939  f :     0.027164
      f+1     :     0.003547
      f-1     :     0.004745
      f+2     :     0.003691
      f-2     :     0.004482
      f+3     :     0.003249
      f-3     :     0.001511
  1 C s       :     2.677423  s :     2.677423
      pz      :     0.911337  p :     2.765779
      px      :     0.929572
      py      :     0.924870
      dz2     :     0.170639  d :     0.676920
      dxz     :     0.148278
      dyz     :     0.148661
      dx2y2   :     0.083352
      dxy     :     0.125990
      f0      :     0.007598  f :     0.038157
      f+1     :     0.005242
      f-1     :     0.006606
      f+2     :     0.006048
      f-2     :     0.006389
      f+3     :     0.003849
      f-3     :     0.002425
  2 H s       :     0.675779  s :     0.675779
      pz      :     0.050847  p :     0.201835
      px      :     0.069722
      py      :     0.081266
  3 H s       :     0.685965  s :     0.685965
      pz      :     0.058623  p :     0.204602
      px      :     0.090574
      py      :     0.055406
  4 C s       :     2.646563  s :     2.646563
      pz      :     0.764741  p :     2.326987
      px      :     0.856417
      py      :     0.705828
      dz2     :     0.286546  d :     1.336712
      dxz     :     0.385854
      dyz     :     0.199341
      dx2y2   :     0.227837
      dxy     :     0.237135
      f0      :     0.037026  f :     0.180070
      f+1     :     0.032129
      f-1     :     0.023191
      f+2     :     0.030548
      f-2     :     0.020910
      f+3     :     0.018736
      f-3     :     0.017531
  5 F s       :     3.509168  s :     3.509168
      pz      :     1.630229  p :     5.068036
      px      :     1.720155
      py      :     1.717652
      dz2     :     0.062343  d :     0.214863
      dxz     :     0.059197
      dyz     :     0.051409
      dx2y2   :     0.022979
      dxy     :     0.018935
      f0      :     0.000415  f :     0.002138
      f+1     :     0.000626
      f-1     :     0.000312
      f+2     :     0.000381
      f-2     :     0.000297
      f+3     :     0.000056
      f-3     :     0.000052
  6 O s       :     3.374606  s :     3.374606
      pz      :     1.533574  p :     4.332377
      px      :     1.425464
      py      :     1.373339
      dz2     :     0.031014  d :     0.207797
      dxz     :     0.058937
      dyz     :     0.010434
      dx2y2   :     0.050189
      dxy     :     0.057223
      f0      :     0.000611  f :     0.005240
      f+1     :     0.000923
      f-1     :     0.000157
      f+2     :     0.000799
      f-2     :     0.000536
      f+3     :     0.000978
      f-3     :     0.001235
  7 H s       :     0.708104  s :     0.708104
      pz      :     0.075788  p :     0.222009
      px      :     0.071130
      py      :     0.075091
  8 H s       :     0.704525  s :     0.704525
      pz      :     0.056460  p :     0.220025
      px      :     0.072407
      py      :     0.091157
  9 H s       :     0.696094  s :     0.696094
      pz      :     0.065527  p :     0.230371
      px      :     0.104920
      py      :     0.059924


                      *****************************
                      * MAYER POPULATION ANALYSIS *
                      *****************************

  NA   - Mulliken gross atomic population
  ZA   - Total nuclear charge
  QA   - Mulliken gross atomic charge
  VA   - Mayer's total valence
  BVA  - Mayer's bonded valence
  FA   - Mayer's free valence

  ATOM       NA         ZA         QA         VA         BVA        FA
  0 C      7.1061     6.0000    -1.1061     3.5716     3.5716     0.0000
  1 C      6.1787     6.0000    -0.1787     3.2571     3.2571    -0.0000
  2 H      0.7526     1.0000     0.2474     1.0212     1.0212    -0.0000
  3 H      0.7321     1.0000     0.2679     1.0118     1.0118     0.0000
  4 C      5.5010     6.0000     0.4990     3.7774     3.7774    -0.0000
  5 F      9.2043     9.0000    -0.2043     1.1096     1.1096    -0.0000
  6 O      8.4840     8.0000    -0.4840     1.8578     1.8578    -0.0000
  7 H      0.6912     1.0000     0.3088     1.0202     1.0202     0.0000
  8 H      0.6589     1.0000     0.3411     0.9766     0.9766    -0.0000
  9 H      0.6912     1.0000     0.3088     1.0311     1.0311    -0.0000

  Mayer bond orders larger than 0.100000
B(  0-C ,  1-C ) :   0.5954 B(  0-C ,  7-H ) :   0.9470 B(  0-C ,  8-H ) :   0.9171 
B(  0-C ,  9-H ) :   1.0033 B(  1-C ,  2-H ) :   0.9607 B(  1-C ,  3-H ) :   0.9628 
B(  1-C ,  4-C ) :   0.8956 B(  4-C ,  5-F ) :   1.0274 B(  4-C ,  6-O ) :   1.7701 


-------
TIMINGS
-------

Total SCF time: 0 days 0 hours 0 min 19 sec 

Total time                  ....      19.580 sec
Sum of individual times     ....      19.122 sec  ( 97.7%)

Fock matrix formation       ....      18.141 sec  ( 92.6%)
  Split-RI-J                ....       1.026 sec  (  5.7% of F)
  Chain of spheres X        ....      14.916 sec  ( 82.2% of F)
  XC integration            ....       2.135 sec  ( 11.8% of F)
    Basis function eval.    ....       0.557 sec  ( 26.1% of XC)
    Density eval.           ....       0.502 sec  ( 23.5% of XC)
    XC-Functional eval.     ....       0.237 sec  ( 11.1% of XC)
    XC-Potential eval.      ....       0.684 sec  ( 32.1% of XC)
Diagonalization             ....       0.099 sec  (  0.5%)
Density matrix formation    ....       0.007 sec  (  0.0%)
Population analysis         ....       0.011 sec  (  0.1%)
Initial guess               ....       0.117 sec  (  0.6%)
Orbital Transformation      ....       0.000 sec  (  0.0%)
Orbital Orthonormalization  ....       0.000 sec  (  0.0%)
DIIS solution               ....       0.060 sec  (  0.3%)
SOSCF solution              ....       0.069 sec  (  0.4%)
Grid generation             ....       0.618 sec  (  3.2%)

Maximum memory used throughout the entire SCF-calculation: 69.7 MB

-------------------------   --------------------
FINAL SINGLE POINT ENERGY      -292.404571801287
-------------------------   --------------------


                            ***************************************
                            *     ORCA property calculations      *
                            ***************************************

                                    ---------------------
                                    Active property flags
                                    ---------------------
   (+) Dipole Moment


------------------------------------------------------------------------------
                       ORCA ELECTRIC PROPERTIES CALCULATION
------------------------------------------------------------------------------

Dipole Moment Calculation                       ... on
Quadrupole Moment Calculation                   ... off
Polarizability Calculation                      ... off
GBWName                                         ... TZVPD_CAMB3LYP_C1_dlpno_new_neg.gbw
Electron density file                           ... TZVPD_CAMB3LYP_C1_dlpno_new_neg.scfp
The origin for moment calculation is the CENTER OF MASS  = ( 8.983661,  3.177495 -0.408968)

-------------
DIPOLE MOMENT
-------------
                                X             Y             Z
Electronic contribution:      1.89936      -2.02401       8.11907
Nuclear contribution   :     -2.87511       2.61564      -8.50037
                        -----------------------------------------
Total Dipole Moment    :     -0.97575       0.59162      -0.38130
                        -----------------------------------------
Magnitude (a.u.)       :      1.20312
Magnitude (Debye)      :      3.05808



--------------------
Rotational spectrum 
--------------------
 
Rotational constants in cm-1:     0.297822     0.128965     0.102219 
Rotational constants in MHz :  8928.481997  3866.271686  3064.463504 

 Dipole components along the rotational axes: 
x,y,z [a.u.] :    -0.741675     0.926239    -0.198718 
x,y,z [Debye]:    -1.885187     2.354313    -0.505101 

 

Timings for individual modules:

Sum of individual times         ...       20.376 sec (=   0.340 min)
GTO integral calculation        ...        0.591 sec (=   0.010 min)   2.9 %
SCF iterations                  ...       19.785 sec (=   0.330 min)  97.1 %
                             ****ORCA TERMINATED NORMALLY****
TOTAL RUN TIME: 0 days 0 hours 0 minutes 20 seconds 737 msec
