
                                        *****************
                                        * O   R   C   A *
                                        *****************

                                            #,                                       
                                            ###                                      
                                            ####                                     
                                            #####                                    
                                            ######                                   
                                           ########,                                 
                                     ,,################,,,,,                         
                               ,,#################################,,                 
                          ,,##########################################,,             
                       ,#########################################, ''#####,          
                    ,#############################################,,   '####,        
                  ,##################################################,,,,####,       
                ,###########''''           ''''###############################       
              ,#####''   ,,,,##########,,,,          '''####'''          '####       
            ,##' ,,,,###########################,,,                        '##       
           ' ,,###''''                  '''############,,,                           
         ,,##''                                '''############,,,,        ,,,,,,###''
      ,#''                                            '''#######################'''  
     '                                                          ''''####''''         
             ,#######,   #######,   ,#######,      ##                                
            ,#'     '#,  ##    ##  ,#'     '#,    #''#        ######   ,####,        
            ##       ##  ##   ,#'  ##            #'  '#       #        #'  '#        
            ##       ##  #######   ##           ,######,      #####,   #    #        
            '#,     ,#'  ##    ##  '#,     ,#' ,#      #,         ##   #,  ,#        
             '#######'   ##     ##  '#######'  #'      '#     #####' # '####'        



                  #######################################################
                  #                        -***-                        #
                  #          Department of theory and spectroscopy      #
                  #    Directorship and core code : Frank Neese         #
                  #        Max Planck Institute fuer Kohlenforschung    #
                  #                Kaiser Wilhelm Platz 1               #
                  #                 D-45470 Muelheim/Ruhr               #
                  #                      Germany                        #
                  #                                                     #
                  #                  All rights reserved                #
                  #                        -***-                        #
                  #######################################################


                         Program Version 5.0.0 -  RELEASE  -
                                (SVN: $Rev: 19529$)
                ($Date: 2021-06-28 11:36:33 +0200 (Mo, 28 Jun 2021) $)


 With contributions from (in alphabetic order):
   Daniel Aravena         : Magnetic Suceptibility
   Michael Atanasov       : Ab Initio Ligand Field Theory (pilot matlab implementation)
   Alexander A. Auer      : GIAO ZORA, VPT2 properties, NMR spectrum
   Ute Becker             : Parallelization
   Giovanni Bistoni       : ED, misc. LED, open-shell LED, HFLD
   Martin Brehm           : Molecular dynamics
   Dmytro Bykov           : SCF Hessian
   Vijay G. Chilkuri      : MRCI spin determinant printing, contributions to CSF-ICE
   Dipayan Datta          : RHF DLPNO-CCSD density
   Achintya Kumar Dutta   : EOM-CC, STEOM-CC
   Dmitry Ganyushin       : Spin-Orbit,Spin-Spin,Magnetic field MRCI
   Miquel Garcia          : C-PCM Hessian, Gaussian charge scheme
   Yang Guo               : DLPNO-NEVPT2, F12-NEVPT2, CIM, IAO-localization
   Andreas Hansen         : Spin unrestricted coupled pair/coupled cluster methods
   Benjamin Helmich-Paris : MC-RPA, TRAH-SCF, COSX integrals
   Lee Huntington         : MR-EOM, pCC
   Robert Izsak           : Overlap fitted RIJCOSX, COSX-SCS-MP3, EOM
   Marcus Kettner         : VPT2
   Christian Kollmar      : KDIIS, OOCD, Brueckner-CCSD(T), CCSD density, CASPT2, CASPT2-K
   Simone Kossmann        : Meta GGA functionals, TD-DFT gradient, OOMP2, MP2 Hessian
   Martin Krupicka        : Initial AUTO-CI
   Lucas Lang             : DCDCAS
   Marvin Lechner         : AUTO-CI (C++ implementation), FIC-MRCC
   Dagmar Lenk            : GEPOL surface, SMD
   Dimitrios Liakos       : Extrapolation schemes; Compound Job, initial MDCI parallelization
   Dimitrios Manganas     : Further ROCIS development; embedding schemes
   Dimitrios Pantazis     : SARC Basis sets
   Anastasios Papadopoulos: AUTO-CI, single reference methods and gradients
   Taras Petrenko         : DFT Hessian,TD-DFT gradient, ASA, ECA, R-Raman, ABS, FL, XAS/XES, NRVS
   Peter Pinski           : DLPNO-MP2, DLPNO-MP2 Gradient
   Christoph Reimann      : Effective Core Potentials
   Marius Retegan         : Local ZFS, SOC
   Christoph Riplinger    : Optimizer, TS searches, QM/MM, DLPNO-CCSD(T), (RO)-DLPNO pert. Triples
   Tobias Risthaus        : Range-separated hybrids, TD-DFT gradient, RPA, STAB
   Michael Roemelt        : Original ROCIS implementation
   Masaaki Saitow         : Open-shell DLPNO-CCSD energy and density
   Barbara Sandhoefer     : DKH picture change effects
   Avijit Sen             : IP-ROCIS
   Kantharuban Sivalingam : CASSCF convergence, NEVPT2, FIC-MRCI
   Bernardo de Souza      : ESD, SOC TD-DFT
   Georgi Stoychev        : AutoAux, RI-MP2 NMR
   Willem Van den Heuvel  : Paramagnetic NMR
   Boris Wezisla          : Elementary symmetry handling
   Frank Wennmohs         : Technical directorship


 We gratefully acknowledge several colleagues who have allowed us to
 interface, adapt or use parts of their codes:
   Stefan Grimme, W. Hujo, H. Kruse, P. Pracht,  : VdW corrections, initial TS optimization,
                  C. Bannwarth, S. Ehlert          DFT functionals, gCP, sTDA/sTD-DF
   Ed Valeev, F. Pavosevic, A. Kumar             : LibInt (2-el integral package), F12 methods
   Garnet Chan, S. Sharma, J. Yang, R. Olivares  : DMRG
   Ulf Ekstrom                                   : XCFun DFT Library
   Mihaly Kallay                                 : mrcc  (arbitrary order and MRCC methods)
   Jiri Pittner, Ondrej Demel                    : Mk-CCSD
   Frank Weinhold                                : gennbo (NPA and NBO analysis)
   Christopher J. Cramer and Donald G. Truhlar   : smd solvation model
   Lars Goerigk                                  : TD-DFT with DH, B97 family of functionals
   V. Asgeirsson, H. Jonsson                     : NEB implementation
   FAccTs GmbH                                   : IRC, NEB, NEB-TS, DLPNO-Multilevel, CI-OPT
                                                   MM, QMMM, 2- and 3-layer-ONIOM, Crystal-QMMM,
                                                   LR-CPCM, SF, NACMEs, symmetry and pop. for TD-DFT,
                                                   nearIR, NL-DFT gradient (VV10), updates on ESD,
                                                   ML-optimized integration grids
   S Lehtola, MJT Oliveira, MAL Marques          : LibXC Library
   Liviu Ungur et al                             : ANISO software


 Your calculation uses the libint2 library for the computation of 2-el integrals
 For citations please refer to: http://libint.valeyev.net

 Your ORCA version has been built with support for libXC version: 5.1.0
 For citations please refer to: https://tddft.org/programs/libxc/

 This ORCA versions uses:
   CBLAS   interface :  Fast vector & matrix operations
   LAPACKE interface :  Fast linear algebra routines
   SCALAPACK package :  Parallel linear algebra routines
   Shared memory     :  Shared parallel matrices
   BLAS/LAPACK       :  OpenBLAS 0.3.15  USE64BITINT DYNAMIC_ARCH NO_AFFINITY Haswell SINGLE_THREADED
        Core in use  :  Haswell
   Copyright (c) 2011-2014, The OpenBLAS Project


Your calculation utilizes the atom-pairwise dispersion correction
with the Becke-Johnson damping scheme (D3BJ)
Cite in your paper:
S.Grimme, S.Ehrlich, L.Goerigk, J Comput Chem, (2011), 32, 1456–1465 
S.Grimme, J.Antony, S.Ehrlich and H.Krieg, J.Chem.Phys., 132, (2010), 154104 
   

================================================================================

----- Orbital basis set information -----
Your calculation utilizes the basis: def2-SVPD
   F. Weigend and R. Ahlrichs, Phys. Chem. Chem. Phys. 7, 3297 (2005).
   D. Rappoport and F. Furche, J. Chem. Phys. 133 134105 (2010).

----- AuxJ basis set information -----
Your calculation utilizes the auxiliary basis: def2/J
   F. Weigend, Phys. Chem. Chem. Phys. 8, 1057 (2006).

================================================================================
                                        WARNINGS
                       Please study these warnings very carefully!
================================================================================



WARNING: Found flag for RIJCOSX approximation but no HF exchange needed!
  ===> : RIJCOSX  will be disabled and Split-RI-J is turned on

INFO   : the flag for use of the SHARK integral package has been found!

================================================================================
                                       INPUT FILE
================================================================================
NAME = SVPD_TPSS_A_wt_dlpno_pos.com
|  1> !TPSS D3BJ RIJCOSX def2-SVPD def2/J TightSCF
|  2> *xyz 1 1 
|  3> C          4.49059        1.15590       -2.46929
|  4> N          4.30539        1.22276       -3.90832
|  5> C          4.63192        2.24637       -4.67096
|  6> N          4.54169        2.14399       -5.98714
|  7> N          5.08409        3.39358       -4.11855
|  8> H          4.92067        3.57050       -3.13587
|  9> H          5.25465        4.19739       -4.70696
| 10> H          3.82453        0.44911       -4.35093
| 11> H          4.34337        1.24932       -6.41665
| 12> H          4.67671        2.95662       -6.57411
| 13> C          5.94213        0.93950       -2.03689
| 14> H          3.86431        0.32853       -2.13661
| 15> H          4.07623        2.04999       -1.98901
| 16> H          6.32982        0.06401       -2.51451
| 17> H          5.98308        0.81426       -0.97504
| 18> H          6.52865        1.78889       -2.31873
| 19> *
| 20> 
| 21> %MaxCore 64000
| 22> 
| 23> %pal nprocs 4
| 24> end  
| 25> 
| 26> %scf
| 27>   MaxIter 150
| 28> end
| 29> 
| 30> 
| 31>                          ****END OF INPUT****
================================================================================

                       ****************************
                       * Single Point Calculation *
                       ****************************

---------------------------------
CARTESIAN COORDINATES (ANGSTROEM)
---------------------------------
  C      4.490590    1.155900   -2.469290
  N      4.305390    1.222760   -3.908320
  C      4.631920    2.246370   -4.670960
  N      4.541690    2.143990   -5.987140
  N      5.084090    3.393580   -4.118550
  H      4.920670    3.570500   -3.135870
  H      5.254650    4.197390   -4.706960
  H      3.824530    0.449110   -4.350930
  H      4.343370    1.249320   -6.416650
  H      4.676710    2.956620   -6.574110
  C      5.942130    0.939500   -2.036890
  H      3.864310    0.328530   -2.136610
  H      4.076230    2.049990   -1.989010
  H      6.329820    0.064010   -2.514510
  H      5.983080    0.814260   -0.975040
  H      6.528650    1.788890   -2.318730

----------------------------
CARTESIAN COORDINATES (A.U.)
----------------------------
  NO LB      ZA    FRAG     MASS         X           Y           Z
   0 C     6.0000    0    12.011    8.485985    2.184334   -4.666282
   1 N     7.0000    0    14.007    8.136008    2.310682   -7.385654
   2 C     6.0000    0    12.011    8.753060    4.245024   -8.826835
   3 N     7.0000    0    14.007    8.582550    4.051554  -11.314055
   4 N     7.0000    0    14.007    9.607538    6.412937   -7.782932
   5 H     1.0000    0     1.008    9.298719    6.747267   -5.925935
   6 H     1.0000    0     1.008    9.929849    7.931918   -8.894865
   7 H     1.0000    0     1.008    7.227314    0.848695   -8.222066
   8 H     1.0000    0     1.008    8.207780    2.360873  -12.125711
   9 H     1.0000    0     1.008    8.837701    5.587202  -12.423267
  10 C     6.0000    0    12.011   11.228998    1.775398   -3.849164
  11 H     1.0000    0     1.008    7.302488    0.620832   -4.037608
  12 H     1.0000    0     1.008    7.702958    3.873920   -3.758684
  13 H     1.0000    0     1.008   11.961626    0.120961   -4.751735
  14 H     1.0000    0     1.008   11.306383    1.538728   -1.842559
  15 H     1.0000    0     1.008   12.337361    3.380512   -4.381765

--------------------------------
INTERNAL COORDINATES (ANGSTROEM)
--------------------------------
 C      0   0   0     0.000000000000     0.00000000     0.00000000
 N      1   0   0     1.452438170973     0.00000000     0.00000000
 C      2   1   0     1.317580753730   125.28453029     0.00000000
 N      3   2   1     1.323235772529   119.91566171   173.18826598
 N      3   2   1     1.351186627043   120.39112332   354.48821383
 H      5   3   2     1.011764184581   119.43884036   342.13850582
 H      5   3   2     1.010656993149   119.58539031   185.29632085
 H      2   1   3     1.012750845075   117.28263783   184.79039578
 H      4   3   2     1.012049441184   120.25788289   351.78722447
 H      4   3   2     1.011499727237   120.39384801   172.23558929
 C      1   2   3     1.529956565266   114.04780337   285.32676705
 H      1   2   3     1.089698920666   105.31614526   163.90058499
 H      1   2   3     1.096248154434   110.38507371    50.41661390
 H     11   1   2     1.070003336724   109.47101574   305.03093902
 H     11   1   2     1.069994104002   109.47140393   185.03055546
 H     11   1   2     1.070001340233   109.47108837    65.03054338

---------------------------
INTERNAL COORDINATES (A.U.)
---------------------------
 C      0   0   0     0.000000000000     0.00000000     0.00000000
 N      1   0   0     2.744710369593     0.00000000     0.00000000
 C      2   1   0     2.489866783875   125.28453029     0.00000000
 N      3   2   1     2.500553220687   119.91566171   173.18826598
 N      3   2   1     2.553372680928   120.39112332   354.48821383
 H      5   3   2     1.911957220967   119.43884036   342.13850582
 H      5   3   2     1.909864932383   119.58539031   185.29632085
 H      2   1   3     1.913821739089   117.28263783   184.79039578
 H      4   3   2     1.912496277825   120.25788289   351.78722447
 H      4   3   2     1.911457469013   120.39384801   172.23558929
 C      1   2   3     2.891198905147   114.04780337   285.32676705
 H      1   2   3     2.059232528488   105.31614526   163.90058499
 H      1   2   3     2.071608786697   110.38507371    50.41661390
 H     11   1   2     2.022013268790   109.47101574   305.03093902
 H     11   1   2     2.021995821475   109.47140393   185.03055546
 H     11   1   2     2.022009495969   109.47108837    65.03054338

---------------------
BASIS SET INFORMATION
---------------------
There are 3 groups of distinct atoms

 Group   1 Type C   : 8s4p2d contracted to 4s2p2d pattern {5111/31/11}
 Group   2 Type N   : 8s4p2d contracted to 4s2p2d pattern {5111/31/11}
 Group   3 Type H   : 4s2p contracted to 2s2p pattern {31/11}

Atom   0C    basis set group =>   1
Atom   1N    basis set group =>   2
Atom   2C    basis set group =>   1
Atom   3N    basis set group =>   2
Atom   4N    basis set group =>   2
Atom   5H    basis set group =>   3
Atom   6H    basis set group =>   3
Atom   7H    basis set group =>   3
Atom   8H    basis set group =>   3
Atom   9H    basis set group =>   3
Atom  10C    basis set group =>   1
Atom  11H    basis set group =>   3
Atom  12H    basis set group =>   3
Atom  13H    basis set group =>   3
Atom  14H    basis set group =>   3
Atom  15H    basis set group =>   3
---------------------------------
AUXILIARY/J BASIS SET INFORMATION
---------------------------------
There are 3 groups of distinct atoms

 Group   1 Type C   : 12s5p4d2f1g contracted to 6s4p3d1f1g pattern {711111/2111/211/2/1}
 Group   2 Type N   : 12s5p4d2f1g contracted to 6s4p3d1f1g pattern {711111/2111/211/2/1}
 Group   3 Type H   : 5s2p1d contracted to 3s1p1d pattern {311/2/1}

Atom   0C    basis set group =>   1
Atom   1N    basis set group =>   2
Atom   2C    basis set group =>   1
Atom   3N    basis set group =>   2
Atom   4N    basis set group =>   2
Atom   5H    basis set group =>   3
Atom   6H    basis set group =>   3
Atom   7H    basis set group =>   3
Atom   8H    basis set group =>   3
Atom   9H    basis set group =>   3
Atom  10C    basis set group =>   1
Atom  11H    basis set group =>   3
Atom  12H    basis set group =>   3
Atom  13H    basis set group =>   3
Atom  14H    basis set group =>   3
Atom  15H    basis set group =>   3


           ************************************************************
           *        Program running with 4 parallel MPI-processes     *
           *              working on a common directory               *
           ************************************************************
------------------------------------------------------------------------------
                           ORCA GTO INTEGRAL CALCULATION
                           -- RI-GTO INTEGRALS CHOSEN --
------------------------------------------------------------------------------
------------------------------------------------------------------------------
                   ___                                                        
                  /   \      - P O W E R E D   B Y -                         
                 /     \                                                     
                 |  |  |   _    _      __       _____    __    __             
                 |  |  |  | |  | |    /  \     |  _  \  |  |  /  |          
                  \  \/   | |  | |   /    \    | | | |  |  | /  /          
                 / \  \   | |__| |  /  /\  \   | |_| |  |  |/  /          
                |  |  |   |  __  | /  /__\  \  |    /   |      \           
                |  |  |   | |  | | |   __   |  |    \   |  |\   \          
                \     /   | |  | | |  |  |  |  | |\  \  |  | \   \       
                 \___/    |_|  |_| |__|  |__|  |_| \__\ |__|  \__/        
                                                                              
                      - O R C A' S   B I G   F R I E N D -                    
                                      &                                       
                       - I N T E G R A L  F E E D E R -                       
                                                                              
 v1 FN, 2020, v2 2021                                                         
------------------------------------------------------------------------------


Reading SHARK input file SVPD_TPSS_A_wt_dlpno_pos.SHARKINP.tmp ... ok
----------------------
SHARK INTEGRAL PACKAGE
----------------------

Number of atoms                             ...     16
Number of basis functions                   ...    200
Number of shells                            ...     88
Maximum angular momentum                    ...      2
Integral batch strategy                     ... SHARK/LIBINT Hybrid
RI-J (if used) integral strategy            ... SPLIT-RIJ (Revised 2003 algorithm where possible)
Printlevel                                  ...      1
Contraction scheme used                     ... SEGMENTED contraction
Coulomb Range Separation                    ... NOT USED
Exchange Range Separation                   ... NOT USED
Finite Nucleus Model                        ... NOT USED
Auxiliary Coulomb fitting basis             ... AVAILABLE
   # of basis functions in Aux-J            ...    404
   # of shells in Aux-J                     ...    140
   Maximum angular momentum in Aux-J        ...      4
Auxiliary J/K fitting basis                 ... NOT available
Auxiliary Correlation fitting basis         ... NOT available
Auxiliary 'external' fitting basis          ... NOT available
Integral threshold                          ...     2.500000e-11
Primitive cut-off                           ...     2.500000e-12
Primitive pair pre-selection threshold      ...     2.500000e-12

Calculating pre-screening integrals         ... done (  0.0 sec) Dimension = 88
Organizing shell pair data                  ... done (  0.0 sec)
Shell pair information
Total number of shell pairs                 ...      3916
Shell pairs after pre-screening             ...      3847
Total number of primitive shell pairs       ...     10548
Primitive shell pairs kept                  ...      8626
          la=0 lb=0:    969 shell pairs
          la=1 lb=0:   1380 shell pairs
          la=1 lb=1:    516 shell pairs
          la=2 lb=0:    522 shell pairs
          la=2 lb=1:    382 shell pairs
          la=2 lb=2:     78 shell pairs

Calculating one electron integrals          ... done (  0.0 sec)
Calculating RI/J V-Matrix + Cholesky decomp.... done (  0.0 sec)
Calculating Nuclear repulsion               ... done (  0.0 sec) ENN=    260.016063190347 Eh

SHARK setup successfully completed in   0.2 seconds

Maximum memory used throughout the entire GTOINT-calculation: 8.9 MB


           ************************************************************
           *        Program running with 4 parallel MPI-processes     *
           *              working on a common directory               *
           ************************************************************
-------------------------------------------------------------------------------
                                 ORCA SCF
-------------------------------------------------------------------------------

------------
SCF SETTINGS
------------
Hamiltonian:
 Density Functional     Method          .... DFT(GTOs)
 Exchange Functional    Exchange        .... TPSS
 Correlation Functional Correlation     .... TPSS
 LDA part of GGA corr.  LDAOpt          .... PW91-LDA
 Gradients option       PostSCFGGA      .... off
   Density functional embedding theory  .... OFF
   NL short-range parameter             ....  5.000000
 RI-approximation to the Coulomb term is turned on
   Number of AuxJ basis functions       .... 404


General Settings:
 Integral files         IntName         .... SVPD_TPSS_A_wt_dlpno_pos
 Hartree-Fock type      HFTyp           .... RHF
 Total Charge           Charge          ....    1
 Multiplicity           Mult            ....    1
 Number of Electrons    NEL             ....   48
 Basis Dimension        Dim             ....  200
 Nuclear Repulsion      ENuc            ....    260.0160631903 Eh

Convergence Acceleration:
 DIIS                   CNVDIIS         .... on
   Start iteration      DIISMaxIt       ....    12
   Startup error        DIISStart       ....  0.200000
   # of expansion vecs  DIISMaxEq       ....     5
   Bias factor          DIISBfac        ....   1.050
   Max. coefficient     DIISMaxC        ....  10.000
 Trust-Rad. Augm. Hess. CNVTRAH         .... auto
   Auto Start mean grad. ratio tolernc. ....  1.125000
   Auto Start start iteration           ....    20
   Auto Start num. interpolation iter.  ....    10
   Max. Number of Micro iterations      ....    16
   Max. Number of Macro iterations      .... Maxiter - #DIIS iter
   Number of Davidson start vectors     ....     2
   Converg. threshold I  (grad. norm)   ....   1.000e-05
   Converg. threshold II (energy diff.) ....   1.000e-08
   Grad. Scal. Fac. for Micro threshold ....   0.100
   Minimum threshold for Micro iter.    ....   0.010
   NR start threshold (gradient norm)   ....   0.001
   Initial trust radius                 ....   0.400
   Minimum AH scaling param. (alpha)    ....   1.000
   Maximum AH scaling param. (alpha)    .... 1000.000
   Orbital update algorithm             .... Taylor
   White noise on init. David. guess    .... on
   Maximum white noise                  ....   0.010
   Quad. conv. algorithm                .... NR
 SOSCF                  CNVSOSCF        .... on
   Start iteration      SOSCFMaxIt      ....   150
   Startup grad/error   SOSCFStart      ....  0.003300
 Level Shifting         CNVShift        .... on
   Level shift para.    LevelShift      ....    0.2500
   Turn off err/grad.   ShiftErr        ....    0.0010
 Zerner damping         CNVZerner       .... off
 Static damping         CNVDamp         .... on
   Fraction old density DampFac         ....    0.7000
   Max. Damping (<1)    DampMax         ....    0.9800
   Min. Damping (>=0)   DampMin         ....    0.0000
   Turn off err/grad.   DampErr         ....    0.1000
 Fernandez-Rico         CNVRico         .... off

SCF Procedure:
 Maximum # iterations   MaxIter         ....   150
 SCF integral mode      SCFMode         .... Direct
   Integral package                     .... SHARK and LIBINT hybrid scheme
 Reset frequency        DirectResetFreq ....    20
 Integral Threshold     Thresh          ....  2.500e-11 Eh
 Primitive CutOff       TCut            ....  2.500e-12 Eh

Convergence Tolerance:
 Convergence Check Mode ConvCheckMode   .... Total+1el-Energy
 Convergence forced     ConvForced      .... 0
 Energy Change          TolE            ....  1.000e-08 Eh
 1-El. energy change                    ....  1.000e-05 Eh
 Orbital Gradient       TolG            ....  1.000e-05
 Orbital Rotation angle TolX            ....  1.000e-05
 DIIS Error             TolErr          ....  5.000e-07


Diagonalization of the overlap matrix:
Smallest eigenvalue                        ... 6.283e-05
Time for diagonalization                   ...    0.011 sec
Threshold for overlap eigenvalues          ... 1.000e-08
Number of eigenvalues below threshold      ... 0
Time for construction of square roots      ...    0.007 sec
Total time needed                          ...    0.018 sec

Time for model grid setup =    0.091 sec

------------------------------
INITIAL GUESS: MODEL POTENTIAL
------------------------------
Loading Hartree-Fock densities                     ... done
Calculating cut-offs                               ... done
Initializing the effective Hamiltonian             ... done
Setting up the integral package (SHARK)            ... done
Starting the Coulomb interaction                   ... done (   0.0 sec)
Reading the grid                                   ... done
Mapping shells                                     ... done
Starting the XC term evaluation                    ... done (   0.1 sec)
  promolecular density results
     # of electrons  =     48.995953916
     EX              =    -38.009086758
     EC              =     -1.618448905
     EX+EC           =    -39.627535663
Transforming the Hamiltonian                       ... done (   0.0 sec)
Diagonalizing the Hamiltonian                      ... done (   0.0 sec)
Back transforming the eigenvectors                 ... done (   0.0 sec)
Now organizing SCF variables                       ... done
                      ------------------
                      INITIAL GUESS DONE (   0.3 sec)
                      ------------------
-------------------
DFT GRID GENERATION
-------------------

General Integration Accuracy     IntAcc      ... 4.388
Radial Grid Type                 RadialGrid  ... OptM3 with GC (2021)
Angular Grid (max. ang.)         AngularGrid ... 4 (Lebedev-302)
Angular grid pruning method      GridPruning ... 4 (adaptive)
Weight generation scheme         WeightScheme... Becke
Basis function cutoff            BFCut       ... 1.0000e-11
Integration weight cutoff        WCut        ... 1.0000e-14
Angular grids for H and He will be reduced by one unit
Partially contracted basis set               ... off
Rotationally invariant grid construction     ... off

Total number of grid points                  ...    70270
Total number of batches                      ...     1107
Average number of points per batch           ...       63
Average number of grid points per atom       ...     4392
Time for grid setup =    0.435 sec

--------------
SCF ITERATIONS
--------------
ITER       Energy         Delta-E        Max-DP      RMS-DP      [F,P]     Damp
               ***  Starting incremental Fock matrix formation  ***
  0   -284.0802593371   0.000000000000 0.09122579  0.00231835  0.1795893 0.7000
  1   -284.1651717831  -0.084912445973 0.05052859  0.00138927  0.0827796 0.7000
                               ***Turning on DIIS***
  2   -284.1952365597  -0.030064776572 0.08863575  0.00228019  0.0254485 0.0000
  3   -284.2398986985  -0.044662138807 0.03478619  0.00088098  0.0496216 0.0000
  4   -284.2529562672  -0.013057568680 0.00975338  0.00028238  0.0108518 0.0000
  5   -284.2535186285  -0.000562361312 0.00375107  0.00011127  0.0035011 0.0000
                      *** Initiating the SOSCF procedure ***
                           *** Shutting down DIIS ***
                      *** Re-Reading the Fockian *** 
                      *** Removing any level shift *** 
ITER      Energy       Delta-E        Grad      Rot      Max-DP    RMS-DP
  6   -284.25357384  -0.0000552137  0.000211  0.000211  0.001522  0.000059
               *** Restarting incremental Fock matrix formation ***
  7   -284.25357878  -0.0000049344  0.000180  0.000744  0.000859  0.000022
  8   -284.25357720   0.0000015795  0.000392  0.000538  0.000633  0.000014
  9   -284.25357936  -0.0000021629  0.000018  0.000055  0.000165  0.000005
 10   -284.25357934   0.0000000243  0.000029  0.000047  0.000085  0.000003
 11   -284.25357938  -0.0000000483  0.000007  0.000026  0.000034  0.000001
 12   -284.25357938   0.0000000025  0.000011  0.000017  0.000024  0.000001
                  ***Gradient check signals convergence***
              ***Rediagonalizing the Fockian in SOSCF/NRSCF***

               *****************************************************
               *                     SUCCESS                       *
               *           SCF CONVERGED AFTER  13 CYCLES          *
               *****************************************************


----------------
TOTAL SCF ENERGY
----------------

Total Energy       :         -284.25357938 Eh           -7734.93313 eV

Components:
Nuclear Repulsion  :          260.01606319 Eh            7075.39679 eV
Electronic Energy  :         -544.26964257 Eh          -14810.32992 eV
One Electron Energy:         -888.42076596 Eh          -24175.15808 eV
Two Electron Energy:          344.15112339 Eh            9364.82817 eV

Virial components:
Potential Energy   :         -565.58885193 Eh          -15390.45510 eV
Kinetic Energy     :          281.33527255 Eh            7655.52197 eV
Virial Ratio       :            2.01037306


DFT components:
N(Alpha)           :       23.999968870184 electrons
N(Beta)            :       23.999968870184 electrons
N(Total)           :       47.999937740368 electrons
E(X)               :      -38.999953423369 Eh       
E(C)               :       -1.600783425554 Eh       
E(XC)              :      -40.600736848923 Eh       
DFET-embed. en.    :        0.000000000000 Eh       

---------------
SCF CONVERGENCE
---------------

  Last Energy change         ...   -3.1528e-09  Tolerance :   1.0000e-08
  Last MAX-Density change    ...    1.5859e-05  Tolerance :   1.0000e-07
  Last RMS-Density change    ...    4.1048e-07  Tolerance :   5.0000e-09
  Last Orbital Gradient      ...    9.6358e-07  Tolerance :   1.0000e-05
  Last Orbital Rotation      ...    2.5408e-06  Tolerance :   1.0000e-05

             **** THE GBW FILE WAS UPDATED (SVPD_TPSS_A_wt_dlpno_pos.gbw) ****
             **** DENSITY SVPD_TPSS_A_wt_dlpno_pos.scfp WAS UPDATED ****
             **** ENERGY FILE WAS UPDATED (SVPD_TPSS_A_wt_dlpno_pos.en.tmp) ****
             **** THE GBW FILE WAS UPDATED (SVPD_TPSS_A_wt_dlpno_pos.gbw) ****
             **** DENSITY SVPD_TPSS_A_wt_dlpno_pos.scfp WAS UPDATED ****
----------------
ORBITAL ENERGIES
----------------

  NO   OCC          E(Eh)            E(eV) 
   0   2.0000     -14.341381      -390.2488 
   1   2.0000     -14.340173      -390.2159 
   2   2.0000     -14.338993      -390.1838 
   3   2.0000     -10.323927      -280.9283 
   4   2.0000     -10.209062      -277.8027 
   5   2.0000     -10.138379      -275.8793 
   6   2.0000      -1.139434       -31.0056 
   7   2.0000      -1.036227       -28.1972 
   8   2.0000      -1.021879       -27.8067 
   9   2.0000      -0.869311       -23.6551 
  10   2.0000      -0.790684       -21.5156 
  11   2.0000      -0.749990       -20.4083 
  12   2.0000      -0.738556       -20.0971 
  13   2.0000      -0.696108       -18.9421 
  14   2.0000      -0.649386       -17.6707 
  15   2.0000      -0.647183       -17.6107 
  16   2.0000      -0.616559       -16.7774 
  17   2.0000      -0.582166       -15.8415 
  18   2.0000      -0.563851       -15.3432 
  19   2.0000      -0.518856       -14.1188 
  20   2.0000      -0.494727       -13.4622 
  21   2.0000      -0.476965       -12.9789 
  22   2.0000      -0.437416       -11.9027 
  23   2.0000      -0.414992       -11.2925 
  24   0.0000      -0.195134        -5.3099 
  25   0.0000      -0.167593        -4.5604 
  26   0.0000      -0.134702        -3.6654 
  27   0.0000      -0.128719        -3.5026 
  28   0.0000      -0.107946        -2.9374 
  29   0.0000      -0.087134        -2.3710 
  30   0.0000      -0.081538        -2.2188 
  31   0.0000      -0.077255        -2.1022 
  32   0.0000      -0.057804        -1.5729 
  33   0.0000      -0.036571        -0.9952 
  34   0.0000      -0.032182        -0.8757 
  35   0.0000      -0.025307        -0.6886 
  36   0.0000      -0.016419        -0.4468 
  37   0.0000      -0.011125        -0.3027 
  38   0.0000      -0.001789        -0.0487 
  39   0.0000       0.003401         0.0926 
  40   0.0000       0.009878         0.2688 
  41   0.0000       0.016581         0.4512 
  42   0.0000       0.028002         0.7620 
  43   0.0000       0.044291         1.2052 
  44   0.0000       0.054286         1.4772 
  45   0.0000       0.057618         1.5679 
  46   0.0000       0.069742         1.8978 
  47   0.0000       0.078459         2.1350 
  48   0.0000       0.083739         2.2787 
  49   0.0000       0.091126         2.4797 
  50   0.0000       0.106800         2.9062 
  51   0.0000       0.109796         2.9877 
  52   0.0000       0.120973         3.2918 
  53   0.0000       0.135175         3.6783 
  54   0.0000       0.139063         3.7841 
  55   0.0000       0.160869         4.3775 
  56   0.0000       0.163868         4.4591 
  57   0.0000       0.175999         4.7892 
  58   0.0000       0.181320         4.9340 
  59   0.0000       0.189007         5.1431 
  60   0.0000       0.196071         5.3354 
  61   0.0000       0.205920         5.6034 
  62   0.0000       0.210643         5.7319 
  63   0.0000       0.214762         5.8440 
  64   0.0000       0.222227         6.0471 
  65   0.0000       0.231139         6.2896 
  66   0.0000       0.231756         6.3064 
  67   0.0000       0.242506         6.5989 
  68   0.0000       0.246678         6.7125 
  69   0.0000       0.257183         6.9983 
  70   0.0000       0.267463         7.2780 
  71   0.0000       0.278146         7.5687 
  72   0.0000       0.282119         7.6769 
  73   0.0000       0.294656         8.0180 
  74   0.0000       0.309342         8.4176 
  75   0.0000       0.313988         8.5441 
  76   0.0000       0.315904         8.5962 
  77   0.0000       0.325940         8.8693 
  78   0.0000       0.337800         9.1920 
  79   0.0000       0.344967         9.3870 
  80   0.0000       0.349056         9.4983 
  81   0.0000       0.351813         9.5733 
  82   0.0000       0.368159        10.0181 
  83   0.0000       0.376868        10.2551 
  84   0.0000       0.383024        10.4226 
  85   0.0000       0.385797        10.4981 
  86   0.0000       0.395700        10.7676 
  87   0.0000       0.406308        11.0562 
  88   0.0000       0.409244        11.1361 
  89   0.0000       0.420920        11.4538 
  90   0.0000       0.436491        11.8775 
  91   0.0000       0.447865        12.1870 
  92   0.0000       0.460772        12.5382 
  93   0.0000       0.465314        12.6618 
  94   0.0000       0.478301        13.0152 
  95   0.0000       0.495326        13.4785 
  96   0.0000       0.498845        13.5743 
  97   0.0000       0.517516        14.0823 
  98   0.0000       0.537055        14.6140 
  99   0.0000       0.561144        15.2695 
 100   0.0000       0.567491        15.4422 
 101   0.0000       0.572415        15.5762 
 102   0.0000       0.586847        15.9689 
 103   0.0000       0.591354        16.0916 
 104   0.0000       0.601230        16.3603 
 105   0.0000       0.609283        16.5794 
 106   0.0000       0.631216        17.1763 
 107   0.0000       0.706436        19.2231 
 108   0.0000       0.731450        19.9038 
 109   0.0000       0.769107        20.9285 
 110   0.0000       0.782042        21.2804 
 111   0.0000       0.798797        21.7364 
 112   0.0000       0.817813        22.2538 
 113   0.0000       0.835729        22.7413 
 114   0.0000       0.853838        23.2341 
 115   0.0000       0.868996        23.6466 
 116   0.0000       0.894758        24.3476 
 117   0.0000       0.905381        24.6367 
 118   0.0000       0.913178        24.8488 
 119   0.0000       0.939275        25.5590 
 120   0.0000       0.956274        26.0215 
 121   0.0000       0.983997        26.7759 
 122   0.0000       0.989754        26.9326 
 123   0.0000       1.000397        27.2222 
 124   0.0000       1.016688        27.6655 
 125   0.0000       1.049253        28.5516 
 126   0.0000       1.079174        29.3658 
 127   0.0000       1.117166        30.3996 
 128   0.0000       1.125243        30.6194 
 129   0.0000       1.219128        33.1742 
 130   0.0000       1.255932        34.1757 
 131   0.0000       1.323408        36.0118 
 132   0.0000       1.347963        36.6799 
 133   0.0000       1.355184        36.8764 
 134   0.0000       1.404400        38.2157 
 135   0.0000       1.417161        38.5629 
 136   0.0000       1.451447        39.4959 
 137   0.0000       1.480581        40.2887 
 138   0.0000       1.485229        40.4151 
 139   0.0000       1.498742        40.7828 
 140   0.0000       1.522443        41.4278 
 141   0.0000       1.555143        42.3176 
 142   0.0000       1.568709        42.6867 
 143   0.0000       1.580663        43.0120 
 144   0.0000       1.612923        43.8899 
 145   0.0000       1.633762        44.4569 
 146   0.0000       1.645135        44.7664 
 147   0.0000       1.674612        45.5685 
 148   0.0000       1.713134        46.6167 
 149   0.0000       1.722070        46.8599 
 150   0.0000       1.734382        47.1949 
 151   0.0000       1.749962        47.6189 
 152   0.0000       1.773124        48.2492 
 153   0.0000       1.782534        48.5052 
 154   0.0000       1.803033        49.0630 
 155   0.0000       1.817251        49.4499 
 156   0.0000       1.842382        50.1338 
 157   0.0000       1.853551        50.4377 
 158   0.0000       1.880293        51.1654 
 159   0.0000       1.898726        51.6670 
 160   0.0000       1.912349        52.0377 
 161   0.0000       1.940291        52.7980 
 162   0.0000       1.954143        53.1749 
 163   0.0000       1.958845        53.3029 
 164   0.0000       2.016693        54.8770 
 165   0.0000       2.026103        55.1331 
 166   0.0000       2.056505        55.9603 
 167   0.0000       2.080522        56.6139 
 168   0.0000       2.129283        57.9407 
 169   0.0000       2.180952        59.3467 
 170   0.0000       2.195758        59.7496 
 171   0.0000       2.207276        60.0630 
 172   0.0000       2.263773        61.6004 
 173   0.0000       2.275922        61.9310 
 174   0.0000       2.315939        63.0199 
 175   0.0000       2.320843        63.1533 
 176   0.0000       2.366465        64.3948 
 177   0.0000       2.396254        65.2054 
 178   0.0000       2.408689        65.5437 
 179   0.0000       2.436029        66.2877 
 180   0.0000       2.467525        67.1448 
 181   0.0000       2.488412        67.7131 
 182   0.0000       2.558078        69.6088 
 183   0.0000       2.566412        69.8356 
 184   0.0000       2.647212        72.0343 
 185   0.0000       2.652635        72.1819 
 186   0.0000       2.686213        73.0956 
 187   0.0000       2.859220        77.8033 
 188   0.0000       2.901060        78.9418 
 189   0.0000       2.939212        79.9800 
 190   0.0000       3.000536        81.6487 
 191   0.0000       3.014988        82.0420 
 192   0.0000       3.047761        82.9338 
 193   0.0000       3.068439        83.4965 
 194   0.0000       3.080261        83.8182 
 195   0.0000       3.124925        85.0335 
 196   0.0000       3.164444        86.1089 
 197   0.0000       3.229226        87.8717 
 198   0.0000       3.508209        95.4632 
 199   0.0000       3.533730        96.1577 

                    ********************************
                    * MULLIKEN POPULATION ANALYSIS *
                    ********************************

-----------------------
MULLIKEN ATOMIC CHARGES
-----------------------
   0 C :    0.244243
   1 N :   -0.396366
   2 C :    1.491715
   3 N :   -0.107503
   4 N :   -0.057040
   5 H :   -0.015070
   6 H :   -0.154756
   7 H :   -0.227117
   8 H :   -0.040370
   9 H :   -0.032788
  10 C :    0.600354
  11 H :   -0.293312
  12 H :    0.015158
  13 H :   -0.028217
  14 H :    0.028572
  15 H :   -0.027503
Sum of atomic charges:    1.0000000

--------------------------------
MULLIKEN REDUCED ORBITAL CHARGES
--------------------------------
  0 C s       :     2.846715  s :     2.846715
      pz      :     0.793118  p :     2.668209
      px      :     1.017690
      py      :     0.857401
      dz2     :     0.037003  d :     0.240833
      dxz     :     0.088051
      dyz     :    -0.055794
      dx2y2   :     0.033896
      dxy     :     0.137676
  1 N s       :     3.511553  s :     3.511553
      pz      :     1.132591  p :     3.721856
      px      :     1.487952
      py      :     1.101313
      dz2     :     0.045817  d :     0.162958
      dxz     :     0.045328
      dyz     :     0.050066
      dx2y2   :     0.018039
      dxy     :     0.003707
  2 C s       :     2.872046  s :     2.872046
      pz      :     0.624295  p :     1.959201
      px      :     0.693187
      py      :     0.641719
      dz2     :    -0.134907  d :    -0.322962
      dxz     :    -0.020164
      dyz     :    -0.141108
      dx2y2   :    -0.009069
      dxy     :    -0.017714
  3 N s       :     3.477933  s :     3.477933
      pz      :     0.954269  p :     3.644882
      px      :     1.611250
      py      :     1.079364
      dz2     :     0.003645  d :    -0.015312
      dxz     :     0.017077
      dyz     :    -0.037167
      dx2y2   :    -0.001864
      dxy     :     0.002997
  4 N s       :     3.446254  s :     3.446254
      pz      :     1.054396  p :     3.637782
      px      :     1.560270
      py      :     1.023115
      dz2     :    -0.019179  d :    -0.026996
      dxz     :     0.010660
      dyz     :    -0.033824
      dx2y2   :     0.002992
      dxy     :     0.012355
  5 H s       :     0.997769  s :     0.997769
      pz      :    -0.026787  p :     0.017301
      px      :     0.029332
      py      :     0.014755
  6 H s       :     1.122393  s :     1.122393
      pz      :    -0.034803  p :     0.032364
      px      :     0.050620
      py      :     0.016547
  7 H s       :     1.179745  s :     1.179745
      pz      :     0.007634  p :     0.047373
      px      :     0.043721
      py      :    -0.003982
  8 H s       :     1.017421  s :     1.017421
      pz      :     0.002574  p :     0.022949
      px      :     0.052243
      py      :    -0.031868
  9 H s       :     1.008136  s :     1.008136
      pz      :     0.005862  p :     0.024652
      px      :     0.051996
      py      :    -0.033206
 10 C s       :     2.558791  s :     2.558791
      pz      :     0.894886  p :     2.770599
      px      :     0.937631
      py      :     0.938082
      dz2     :     0.023880  d :     0.070256
      dxz     :     0.019161
      dyz     :    -0.020453
      dx2y2   :     0.007361
      dxy     :     0.040306
 11 H s       :     1.236339  s :     1.236339
      pz      :     0.025381  p :     0.056973
      px      :     0.007268
      py      :     0.024324
 12 H s       :     0.941598  s :     0.941598
      pz      :     0.047596  p :     0.043243
      px      :    -0.021869
      py      :     0.017516
 13 H s       :     0.972757  s :     0.972757
      pz      :     0.006941  p :     0.055459
      px      :     0.006620
      py      :     0.041898
 14 H s       :     0.940052  s :     0.940052
      pz      :     0.057576  p :     0.031376
      px      :     0.003791
      py      :    -0.029991
 15 H s       :     0.943777  s :     0.943777
      pz      :     0.002457  p :     0.083726
      px      :     0.013975
      py      :     0.067294


                     *******************************
                     * LOEWDIN POPULATION ANALYSIS *
                     *******************************

----------------------
LOEWDIN ATOMIC CHARGES
----------------------
   0 C :    0.047241
   1 N :    0.040596
   2 C :   -0.035024
   3 N :    0.263786
   4 N :    0.285475
   5 H :    0.016618
   6 H :    0.034843
   7 H :    0.060650
   8 H :    0.041384
   9 H :    0.040526
  10 C :    0.172922
  11 H :    0.037687
  12 H :    0.025660
  13 H :   -0.007211
  14 H :    0.000161
  15 H :   -0.025315

-------------------------------
LOEWDIN REDUCED ORBITAL CHARGES
-------------------------------
  0 C s       :     2.671607  s :     2.671607
      pz      :     0.754825  p :     2.598361
      px      :     0.925001
      py      :     0.918535
      dz2     :     0.163787  d :     0.682790
      dxz     :     0.176056
      dyz     :     0.106145
      dx2y2   :     0.091542
      dxy     :     0.145260
  1 N s       :     2.918730  s :     2.918730
      pz      :     1.076274  p :     3.456122
      px      :     1.277629
      py      :     1.102218
      dz2     :     0.155493  d :     0.584553
      dxz     :     0.129439
      dyz     :     0.187919
      dx2y2   :     0.052363
      dxy     :     0.059338
  2 C s       :     2.609137  s :     2.609137
      pz      :     0.864047  p :     2.412900
      px      :     0.702542
      py      :     0.846310
      dz2     :     0.232349  d :     1.012987
      dxz     :     0.203641
      dyz     :     0.255752
      dx2y2   :     0.156636
      dxy     :     0.164609
  3 N s       :     2.934598  s :     2.934598
      pz      :     1.051493  p :     3.501299
      px      :     1.365972
      py      :     1.083835
      dz2     :     0.084382  d :     0.300317
      dxz     :     0.064100
      dyz     :     0.121236
      dx2y2   :     0.021364
      dxy     :     0.009235
  4 N s       :     2.938246  s :     2.938246
      pz      :     1.069525  p :     3.484923
      px      :     1.345400
      py      :     1.069999
      dz2     :     0.064844  d :     0.291356
      dxz     :     0.026004
      dyz     :     0.090675
      dx2y2   :     0.055763
      dxy     :     0.054070
  5 H s       :     0.634507  s :     0.634507
      pz      :     0.156466  p :     0.348875
      px      :     0.108206
      py      :     0.084202
  6 H s       :     0.646898  s :     0.646898
      pz      :     0.097827  p :     0.318260
      px      :     0.101787
      py      :     0.118645
  7 H s       :     0.637216  s :     0.637216
      pz      :     0.088301  p :     0.302133
      px      :     0.099948
      py      :     0.113885
  8 H s       :     0.643092  s :     0.643092
      pz      :     0.079073  p :     0.315524
      px      :     0.102952
      py      :     0.133500
  9 H s       :     0.643453  s :     0.643453
      pz      :     0.090709  p :     0.316021
      px      :     0.101943
      py      :     0.123368
 10 C s       :     2.710505  s :     2.710505
      pz      :     0.933981  p :     2.750923
      px      :     0.878073
      py      :     0.938869
      dz2     :     0.086512  d :     0.365649
      dxz     :     0.055083
      dyz     :     0.029008
      dx2y2   :     0.074831
      dxy     :     0.120215
 11 H s       :     0.726271  s :     0.726271
      pz      :     0.056356  p :     0.236041
      px      :     0.077712
      py      :     0.101973
 12 H s       :     0.727387  s :     0.727387
      pz      :     0.061790  p :     0.246952
      px      :     0.069320
      py      :     0.115842
 13 H s       :     0.742050  s :     0.742050
      pz      :     0.084908  p :     0.265160
      px      :     0.068389
      py      :     0.111863
 14 H s       :     0.735405  s :     0.735405
      pz      :     0.131352  p :     0.264434
      px      :     0.061110
      py      :     0.071973
 15 H s       :     0.742928  s :     0.742928
      pz      :     0.082469  p :     0.282387
      px      :     0.081302
      py      :     0.118615


                      *****************************
                      * MAYER POPULATION ANALYSIS *
                      *****************************

  NA   - Mulliken gross atomic population
  ZA   - Total nuclear charge
  QA   - Mulliken gross atomic charge
  VA   - Mayer's total valence
  BVA  - Mayer's bonded valence
  FA   - Mayer's free valence

  ATOM       NA         ZA         QA         VA         BVA        FA
  0 C      5.7558     6.0000     0.2442     4.3659     4.3659    -0.0000
  1 N      7.3964     7.0000    -0.3964     3.9233     3.9233     0.0000
  2 C      4.5083     6.0000     1.4917     1.6793     1.6793    -0.0000
  3 N      7.1075     7.0000    -0.1075     3.6790     3.6790    -0.0000
  4 N      7.0570     7.0000    -0.0570     3.7167     3.7167    -0.0000
  5 H      1.0151     1.0000    -0.0151     0.8806     0.8806    -0.0000
  6 H      1.1548     1.0000    -0.1548     0.9016     0.9016     0.0000
  7 H      1.2271     1.0000    -0.2271     0.9571     0.9571    -0.0000
  8 H      1.0404     1.0000    -0.0404     0.9010     0.9010     0.0000
  9 H      1.0328     1.0000    -0.0328     0.8940     0.8940    -0.0000
 10 C      5.3996     6.0000     0.6004     3.9220     3.9220    -0.0000
 11 H      1.2933     1.0000    -0.2933     1.1035     1.1035     0.0000
 12 H      0.9848     1.0000     0.0152     1.0636     1.0636    -0.0000
 13 H      1.0282     1.0000    -0.0282     1.0775     1.0775    -0.0000
 14 H      0.9714     1.0000     0.0286     1.0633     1.0633    -0.0000
 15 H      1.0275     1.0000    -0.0275     1.1608     1.1608    -0.0000

  Mayer bond orders larger than 0.100000
B(  0-C ,  1-N ) :   0.9009 B(  0-C ,  2-C ) :  -0.1088 B(  0-C ,  7-H ) :  -0.1523 
B(  0-C , 10-C ) :   1.2741 B(  0-C , 11-H ) :   0.9289 B(  0-C , 12-H ) :   0.8779 
B(  0-C , 13-H ) :   0.2219 B(  0-C , 14-H ) :   0.1445 B(  0-C , 15-H ) :   0.1824 
B(  1-N ,  2-C ) :   0.9650 B(  1-N ,  3-N ) :   0.2818 B(  1-N ,  4-N ) :   0.2355 
B(  1-N ,  7-H ) :   1.3291 B(  1-N , 11-H ) :   0.1641 B(  2-C ,  3-N ) :   0.7703 
B(  2-C ,  4-N ) :   0.8606 B(  2-C ,  5-H ) :  -0.1238 B(  2-C ,  6-H ) :  -0.1774 
B(  2-C ,  7-H ) :  -0.2619 B(  2-C ,  8-H ) :  -0.1765 B(  2-C ,  9-H ) :  -0.1459 
B(  3-N ,  4-N ) :   0.1810 B(  3-N ,  8-H ) :   1.1978 B(  3-N ,  9-H ) :   1.2276 
B(  4-N ,  5-H ) :   1.0770 B(  4-N ,  6-H ) :   1.2928 B(  5-H ,  6-H ) :  -0.1986 
B(  8-H ,  9-H ) :  -0.1738 B( 10-C , 13-H ) :   0.8269 B( 10-C , 14-H ) :   0.8371 
B( 10-C , 15-H ) :   0.8304 

-------
TIMINGS
-------

Total SCF time: 0 days 0 hours 0 min 10 sec 

Total time                  ....      10.731 sec
Sum of individual times     ....      10.552 sec  ( 98.3%)

Fock matrix formation       ....       9.703 sec  ( 90.4%)
  Split-RI-J                ....       1.168 sec  ( 12.0% of F)
  XC integration            ....       8.491 sec  ( 87.5% of F)
    Basis function eval.    ....       1.400 sec  ( 16.5% of XC)
    Density eval.           ....       2.771 sec  ( 32.6% of XC)
    XC-Functional eval.     ....       0.520 sec  (  6.1% of XC)
    XC-Potential eval.      ....       3.506 sec  ( 41.3% of XC)
Diagonalization             ....       0.063 sec  (  0.6%)
Density matrix formation    ....       0.005 sec  (  0.0%)
Population analysis         ....       0.008 sec  (  0.1%)
Initial guess               ....       0.162 sec  (  1.5%)
Orbital Transformation      ....       0.000 sec  (  0.0%)
Orbital Orthonormalization  ....       0.000 sec  (  0.0%)
DIIS solution               ....       0.043 sec  (  0.4%)
SOSCF solution              ....       0.044 sec  (  0.4%)
Grid generation             ....       0.525 sec  (  4.9%)

Maximum memory used throughout the entire SCF-calculation: 24.8 MB


-------------------------------------------------------------------------------
                          DFT DISPERSION CORRECTION                            
                                                                               
                              DFTD3 V3.1  Rev 1                                
                          USING Becke-Johnson damping                          
-------------------------------------------------------------------------------
The TPSS functional is recognized
Active option DFTDOPT                   ...         4   

molecular C6(AA) [au] = 1841.303749 


            DFT-D V3
 parameters
 s6 scaling factor         :     1.0000 
 a1 scaling factor         :     0.4535 
 s8 scaling factor         :     1.9435 
 a2 scaling factor         :     4.4752 
 ad hoc parameters k1-k3   :    16.0000     1.3333    -4.0000 

 Edisp/kcal,au: -9.595532117835  -0.015291452147 
 E6   /kcal   :  -5.085307152 
 E8   /kcal   :  -4.510224966 
 % E8         :  47.003385646 

-------------------------   ----------------
Dispersion correction           -0.015291452
-------------------------   ----------------


-------------------------   --------------------
FINAL SINGLE POINT ENERGY      -284.268870836699
-------------------------   --------------------


                            ***************************************
                            *     ORCA property calculations      *
                            ***************************************

                                    ---------------------
                                    Active property flags
                                    ---------------------
   (+) Dipole Moment


------------------------------------------------------------------------------
                       ORCA ELECTRIC PROPERTIES CALCULATION
------------------------------------------------------------------------------

Dipole Moment Calculation                       ... on
Quadrupole Moment Calculation                   ... off
Polarizability Calculation                      ... off
GBWName                                         ... SVPD_TPSS_A_wt_dlpno_pos.gbw
Electron density file                           ... SVPD_TPSS_A_wt_dlpno_pos.scfp
The origin for moment calculation is the CENTER OF MASS  = ( 9.139996,  3.526042 -7.331286)

-------------
DIPOLE MOMENT
-------------
                                X             Y             Z
Electronic contribution:     -1.79837       1.57119      -4.45154
Nuclear contribution   :      1.34333      -1.11039       3.43667
                        -----------------------------------------
Total Dipole Moment    :     -0.45505       0.46080      -1.01487
                        -----------------------------------------
Magnitude (a.u.)       :      1.20390
Magnitude (Debye)      :      3.06006



--------------------
Rotational spectrum 
--------------------
 
Rotational constants in cm-1:     0.227161     0.075356     0.065003 
Rotational constants in MHz :  6810.114531  2259.122204  1948.738523 

 Dipole components along the rotational axes: 
x,y,z [a.u.] :    -1.179960    -0.108175     0.212985 
x,y,z [Debye]:    -2.999219    -0.274959     0.541364 

 

Timings for individual modules:

Sum of individual times         ...       11.327 sec (=   0.189 min)
GTO integral calculation        ...        0.389 sec (=   0.006 min)   3.4 %
SCF iterations                  ...       10.938 sec (=   0.182 min)  96.6 %
                             ****ORCA TERMINATED NORMALLY****
TOTAL RUN TIME: 0 days 0 hours 0 minutes 11 seconds 696 msec
