
                                        *****************
                                        * O   R   C   A *
                                        *****************

                                            #,                                       
                                            ###                                      
                                            ####                                     
                                            #####                                    
                                            ######                                   
                                           ########,                                 
                                     ,,################,,,,,                         
                               ,,#################################,,                 
                          ,,##########################################,,             
                       ,#########################################, ''#####,          
                    ,#############################################,,   '####,        
                  ,##################################################,,,,####,       
                ,###########''''           ''''###############################       
              ,#####''   ,,,,##########,,,,          '''####'''          '####       
            ,##' ,,,,###########################,,,                        '##       
           ' ,,###''''                  '''############,,,                           
         ,,##''                                '''############,,,,        ,,,,,,###''
      ,#''                                            '''#######################'''  
     '                                                          ''''####''''         
             ,#######,   #######,   ,#######,      ##                                
            ,#'     '#,  ##    ##  ,#'     '#,    #''#        ######   ,####,        
            ##       ##  ##   ,#'  ##            #'  '#       #        #'  '#        
            ##       ##  #######   ##           ,######,      #####,   #    #        
            '#,     ,#'  ##    ##  '#,     ,#' ,#      #,         ##   #,  ,#        
             '#######'   ##     ##  '#######'  #'      '#     #####' # '####'        



                  #######################################################
                  #                        -***-                        #
                  #          Department of theory and spectroscopy      #
                  #    Directorship and core code : Frank Neese         #
                  #        Max Planck Institute fuer Kohlenforschung    #
                  #                Kaiser Wilhelm Platz 1               #
                  #                 D-45470 Muelheim/Ruhr               #
                  #                      Germany                        #
                  #                                                     #
                  #                  All rights reserved                #
                  #                        -***-                        #
                  #######################################################


                         Program Version 5.0.0 -  RELEASE  -
                                (SVN: $Rev: 19529$)
                ($Date: 2021-06-28 11:36:33 +0200 (Mo, 28 Jun 2021) $)


 With contributions from (in alphabetic order):
   Daniel Aravena         : Magnetic Suceptibility
   Michael Atanasov       : Ab Initio Ligand Field Theory (pilot matlab implementation)
   Alexander A. Auer      : GIAO ZORA, VPT2 properties, NMR spectrum
   Ute Becker             : Parallelization
   Giovanni Bistoni       : ED, misc. LED, open-shell LED, HFLD
   Martin Brehm           : Molecular dynamics
   Dmytro Bykov           : SCF Hessian
   Vijay G. Chilkuri      : MRCI spin determinant printing, contributions to CSF-ICE
   Dipayan Datta          : RHF DLPNO-CCSD density
   Achintya Kumar Dutta   : EOM-CC, STEOM-CC
   Dmitry Ganyushin       : Spin-Orbit,Spin-Spin,Magnetic field MRCI
   Miquel Garcia          : C-PCM Hessian, Gaussian charge scheme
   Yang Guo               : DLPNO-NEVPT2, F12-NEVPT2, CIM, IAO-localization
   Andreas Hansen         : Spin unrestricted coupled pair/coupled cluster methods
   Benjamin Helmich-Paris : MC-RPA, TRAH-SCF, COSX integrals
   Lee Huntington         : MR-EOM, pCC
   Robert Izsak           : Overlap fitted RIJCOSX, COSX-SCS-MP3, EOM
   Marcus Kettner         : VPT2
   Christian Kollmar      : KDIIS, OOCD, Brueckner-CCSD(T), CCSD density, CASPT2, CASPT2-K
   Simone Kossmann        : Meta GGA functionals, TD-DFT gradient, OOMP2, MP2 Hessian
   Martin Krupicka        : Initial AUTO-CI
   Lucas Lang             : DCDCAS
   Marvin Lechner         : AUTO-CI (C++ implementation), FIC-MRCC
   Dagmar Lenk            : GEPOL surface, SMD
   Dimitrios Liakos       : Extrapolation schemes; Compound Job, initial MDCI parallelization
   Dimitrios Manganas     : Further ROCIS development; embedding schemes
   Dimitrios Pantazis     : SARC Basis sets
   Anastasios Papadopoulos: AUTO-CI, single reference methods and gradients
   Taras Petrenko         : DFT Hessian,TD-DFT gradient, ASA, ECA, R-Raman, ABS, FL, XAS/XES, NRVS
   Peter Pinski           : DLPNO-MP2, DLPNO-MP2 Gradient
   Christoph Reimann      : Effective Core Potentials
   Marius Retegan         : Local ZFS, SOC
   Christoph Riplinger    : Optimizer, TS searches, QM/MM, DLPNO-CCSD(T), (RO)-DLPNO pert. Triples
   Tobias Risthaus        : Range-separated hybrids, TD-DFT gradient, RPA, STAB
   Michael Roemelt        : Original ROCIS implementation
   Masaaki Saitow         : Open-shell DLPNO-CCSD energy and density
   Barbara Sandhoefer     : DKH picture change effects
   Avijit Sen             : IP-ROCIS
   Kantharuban Sivalingam : CASSCF convergence, NEVPT2, FIC-MRCI
   Bernardo de Souza      : ESD, SOC TD-DFT
   Georgi Stoychev        : AutoAux, RI-MP2 NMR
   Willem Van den Heuvel  : Paramagnetic NMR
   Boris Wezisla          : Elementary symmetry handling
   Frank Wennmohs         : Technical directorship


 We gratefully acknowledge several colleagues who have allowed us to
 interface, adapt or use parts of their codes:
   Stefan Grimme, W. Hujo, H. Kruse, P. Pracht,  : VdW corrections, initial TS optimization,
                  C. Bannwarth, S. Ehlert          DFT functionals, gCP, sTDA/sTD-DF
   Ed Valeev, F. Pavosevic, A. Kumar             : LibInt (2-el integral package), F12 methods
   Garnet Chan, S. Sharma, J. Yang, R. Olivares  : DMRG
   Ulf Ekstrom                                   : XCFun DFT Library
   Mihaly Kallay                                 : mrcc  (arbitrary order and MRCC methods)
   Jiri Pittner, Ondrej Demel                    : Mk-CCSD
   Frank Weinhold                                : gennbo (NPA and NBO analysis)
   Christopher J. Cramer and Donald G. Truhlar   : smd solvation model
   Lars Goerigk                                  : TD-DFT with DH, B97 family of functionals
   V. Asgeirsson, H. Jonsson                     : NEB implementation
   FAccTs GmbH                                   : IRC, NEB, NEB-TS, DLPNO-Multilevel, CI-OPT
                                                   MM, QMMM, 2- and 3-layer-ONIOM, Crystal-QMMM,
                                                   LR-CPCM, SF, NACMEs, symmetry and pop. for TD-DFT,
                                                   nearIR, NL-DFT gradient (VV10), updates on ESD,
                                                   ML-optimized integration grids
   S Lehtola, MJT Oliveira, MAL Marques          : LibXC Library
   Liviu Ungur et al                             : ANISO software


 Your calculation uses the libint2 library for the computation of 2-el integrals
 For citations please refer to: http://libint.valeyev.net

 Your ORCA version has been built with support for libXC version: 5.1.0
 For citations please refer to: https://tddft.org/programs/libxc/

 This ORCA versions uses:
   CBLAS   interface :  Fast vector & matrix operations
   LAPACKE interface :  Fast linear algebra routines
   SCALAPACK package :  Parallel linear algebra routines
   Shared memory     :  Shared parallel matrices
   BLAS/LAPACK       :  OpenBLAS 0.3.15  USE64BITINT DYNAMIC_ARCH NO_AFFINITY Haswell SINGLE_THREADED
        Core in use  :  Haswell
   Copyright (c) 2011-2014, The OpenBLAS Project




***************************************
The coordinates will be read from file: D7.xyz
***************************************


Your calculation utilizes the atom-pairwise dispersion correction
with the Becke-Johnson damping scheme (D3BJ)
Cite in your paper:
S.Grimme, S.Ehrlich, L.Goerigk, J Comput Chem, (2011), 32, 1456–1465 
S.Grimme, J.Antony, S.Ehrlich and H.Krieg, J.Chem.Phys., 132, (2010), 154104 
   

================================================================================

----- Orbital basis set information -----
Your calculation utilizes the basis: def2-SVPD
   F. Weigend and R. Ahlrichs, Phys. Chem. Chem. Phys. 7, 3297 (2005).
   D. Rappoport and F. Furche, J. Chem. Phys. 133 134105 (2010).

----- AuxJ basis set information -----
Your calculation utilizes the auxiliary basis: def2/J
   F. Weigend, Phys. Chem. Chem. Phys. 8, 1057 (2006).

================================================================================
                                        WARNINGS
                       Please study these warnings very carefully!
================================================================================



WARNING: Found flag for RIJCOSX approximation but no HF exchange needed!
  ===> : RIJCOSX  will be disabled and Split-RI-J is turned on

INFO   : the flag for use of the SHARK integral package has been found!

================================================================================
                                       INPUT FILE
================================================================================
NAME = 28Oct_SVPD_TPSS_D7_wb97.com
|  1> !TPSS D3BJ RIJCOSX def2-SVPD def2/J TightSCF xyzfile                                                                                         
|  2> 
|  3> *xyzfile 0 1 D7.xyz
|  4> 
|  5> %MaxCore 64000
|  6> 
|  7> %pal nprocs 4
|  8> end  
|  9> 
| 10> %scf
| 11>   MaxIter 150
| 12> end
| 13> 
| 14> 
| 15>                          ****END OF INPUT****
================================================================================

                       ****************************
                       * Single Point Calculation *
                       ****************************

---------------------------------
CARTESIAN COORDINATES (ANGSTROEM)
---------------------------------
  C      4.490588    1.155899   -2.469290
  C      4.305394    1.222762   -3.908317
  C      4.906458   -3.102816   -5.954844
  C      3.511771   -2.806215   -6.492283
  H      2.736044   -3.373445   -5.973736
  H      3.444904   -3.040831   -7.555281
  S      3.004618   -1.096206   -6.389259
  C      4.631918    2.246365   -4.670958
  N      4.541686    2.143990   -5.987139
  N      5.084086    3.393584   -4.118545
  H      4.920675    3.570501   -3.135870
  H      5.254652    4.197390   -4.706956
  H      3.824530    0.449113   -4.350926
  H      4.343373    1.249318   -6.416646
  H      4.676712    2.956624   -6.574113
  O      4.128856   -0.329647   -6.953717
  O      1.781285   -1.000779   -7.136399
  C      5.942129    0.939500   -2.036893
  H      3.864305    0.328532   -2.136611
  H      4.076233    2.049994   -1.989010
  C      6.462677   -3.117775   -3.944671
  C      5.024977   -3.025679   -4.437625
  H      4.423321   -3.818693   -3.977648
  H      4.579350   -2.087131   -4.108727
  H      5.201533   -4.100207   -6.296905
  H      5.605922   -2.397822   -6.413368
  C      6.559957   -0.356290   -2.559086
  H      5.967976    0.952567   -0.942444
  H      6.547184    1.788331   -2.368849
  C      6.006283   -1.615917   -1.899301
  H      7.642360   -0.318000   -2.402059
  H      6.414855   -0.403433   -3.642587
  C      6.608718   -2.917014   -2.435655
  H      6.190324   -1.561115   -0.820948
  H      4.919250   -1.651245   -2.016586
  H      7.066975   -2.374258   -4.475514
  H      6.887808   -4.089747   -4.215332
  H      6.135197   -3.755573   -1.915159
  H      7.671142   -2.955503   -2.172291
  F      2.851546   -0.783683   -4.956789

----------------------------
CARTESIAN COORDINATES (A.U.)
----------------------------
  NO LB      ZA    FRAG     MASS         X           Y           Z
   0 C     6.0000    0    12.011    8.485982    2.184332   -4.666282
   1 C     6.0000    0    12.011    8.136015    2.310685   -7.385649
   2 C     6.0000    0    12.011    9.271862   -5.863473  -11.253025
   3 C     6.0000    0    12.011    6.636285   -5.302977  -12.268638
   4 H     1.0000    0     1.008    5.170374   -6.374888  -11.288724
   5 H     1.0000    0     1.008    6.509926   -5.746338  -14.277412
   6 S    16.0000    0    32.060    5.677904   -2.071530  -12.073950
   7 C     6.0000    0    12.011    8.753057    4.245015   -8.826831
   8 N     7.0000    0    14.007    8.582543    4.051553  -11.314052
   9 N     7.0000    0    14.007    9.607530    6.412945   -7.782923
  10 H     1.0000    0     1.008    9.298728    6.747268   -5.925936
  11 H     1.0000    0     1.008    9.929852    7.931917   -8.894858
  12 H     1.0000    0     1.008    7.227314    0.848701   -8.222058
  13 H     1.0000    0     1.008    8.207786    2.360868  -12.125704
  14 H     1.0000    0     1.008    8.837705    5.587209  -12.423274
  15 O     8.0000    0    15.999    7.802408   -0.622942  -13.140621
  16 O     8.0000    0    15.999    3.366140   -1.891199  -13.485840
  17 C     6.0000    0    12.011   11.228997    1.775397   -3.849170
  18 H     1.0000    0     1.008    7.302479    0.620836   -4.037610
  19 H     1.0000    0     1.008    7.702964    3.873927   -3.758685
  20 C     6.0000    0    12.011   12.212689   -5.891741   -7.454347
  21 C     6.0000    0    12.011    9.495831   -5.717705   -8.385896
  22 H     1.0000    0     1.008    8.358866   -7.216284   -7.516666
  23 H     1.0000    0     1.008    8.653718   -3.944106   -7.764369
  24 H     1.0000    0     1.008    9.829473   -7.748269  -11.899427
  25 H     1.0000    0     1.008   10.593657   -4.531226  -12.119509
  26 C     6.0000    0    12.011   12.396522   -0.673291   -4.835971
  27 H     1.0000    0     1.008   11.277840    1.800090   -1.780961
  28 H     1.0000    0     1.008   12.372385    3.379455   -4.476477
  29 C     6.0000    0    12.011   11.350230   -3.053641   -3.589158
  30 H     1.0000    0     1.008   14.441966   -0.600934   -4.539234
  31 H     1.0000    0     1.008   12.122318   -0.762378   -6.883492
  32 C     6.0000    0    12.011   12.488666   -5.512358   -4.602721
  33 H     1.0000    0     1.008   11.698016   -2.950080   -1.551366
  34 H     1.0000    0     1.008    9.296035   -3.120400   -3.810796
  35 H     1.0000    0     1.008   13.354648   -4.486697   -8.457496
  36 H     1.0000    0     1.008   13.016070   -7.728501   -7.965822
  37 H     1.0000    0     1.008   11.593841   -7.097005   -3.619127
  38 H     1.0000    0     1.008   14.496357   -5.585092   -4.105035
  39 F     9.0000    0    18.998    5.388641   -1.480946   -9.366974

--------------------------------
INTERNAL COORDINATES (ANGSTROEM)
--------------------------------
 C      0   0   0     0.000000000000     0.00000000     0.00000000
 C      1   0   0     1.452434888732     0.00000000     0.00000000
 C      2   1   0     4.822880648060   111.29935464     0.00000000
 C      3   2   1     1.523799819616    82.01111056   124.72570022
 H      4   3   2     1.091968299252   112.43309611   255.51929182
 H      4   3   2     1.090632873150   110.97759244   134.54655122
 S      4   3   2     1.786602224664   115.19977359    16.50892478
 C      2   1   3     1.317574833962   125.28497018   214.05519914
 N      8   2   1     1.323236350905   119.91604121   173.18858040
 N      8   2   1     1.351194480527   120.39094198   354.48825376
 H     10   8   2     1.011757151303   119.43893893   342.13916756
 H     10   8   2     1.010654769343   119.58539038   185.29571941
 H      2   1   3     1.012750840265   117.28239304    38.84614007
 H      9   8   2     1.012048706728   120.25757225   351.78674532
 H      9   8   2     1.011506480060   120.39405507   172.23609159
 O      7   4   3     1.473139212620   105.02973514    49.07238667
 O      7   4   3     1.436617023222   105.98041552   170.73821441
 C      1   2   3     1.529956533456   114.04751046    71.27147181
 H      1   2   3     1.089697165343   105.31628314   309.84494500
 H      1   2   3     1.096250554262   110.38499465   196.36075284
 C      3   2   1     2.542211031985    75.28786529   328.63877310
 C     21   3   2     1.522650424266    33.45203408    62.46988994
 H     22  21   3     1.096558425421   109.78678321   123.00138599
 H     22  21   3     1.089784085482   109.90626334   238.94967961
 H      3   2   1     1.094926392967   169.46526939   316.66150389
 H      3   2   1     1.093851646948    71.30795148   237.06279558
 C     18   1   2     1.527569327213   114.02213033   299.75436756
 H     18   1   2     1.094832037269   107.65179087   177.40351951
 H     18   1   2     1.093983651653   109.22173402    62.36298160
 C     27  18   1     1.525952470352   113.93276277   288.90034571
 H     27  18   1     1.094403426518   108.74093275   167.10616769
 H     27  18   1     1.094190161747   108.74874272    52.17399198
 C     21   3   2     1.529300762752   146.92063230    53.80488115
 H     30  27  18     1.095317124906   108.86941482   300.75108730
 H     30  27  18     1.093912987644   109.92906200    56.35085961
 H     21   3   2     1.095348999413    87.16372703   291.04892433
 H     21   3   2     1.094861915024    92.71949470   185.57163885
 H     33  21   3     1.094677724411   109.10507473    72.09358689
 H     33  21   3     1.095256828209   108.98305469   187.60350442
 F      7   4   3     1.474133937430   106.76381078   292.33403201

---------------------------
INTERNAL COORDINATES (A.U.)
---------------------------
 C      0   0   0     0.000000000000     0.00000000     0.00000000
 C      1   0   0     2.744704167055     0.00000000     0.00000000
 C      2   1   0     9.113923601421   111.29935464     0.00000000
 C      3   2   1     2.879564341994    82.01111056   124.72570022
 H      4   3   2     2.063521032510   112.43309611   255.51929182
 H      4   3   2     2.060997442905   110.97759244   134.54655122
 S      4   3   2     3.376188914869   115.19977359    16.50892478
 C      2   1   3     2.489855597135   125.28497018   214.05519914
 N      8   2   1     2.500554313659   119.91604121   173.18858040
 N      8   2   1     2.553387521862   120.39094198   354.48825376
 H     10   8   2     1.911943930000   119.43893893   342.13916756
 H     10   8   2     1.909860730000   119.58539038   185.29571941
 H      2   1   3     1.913821729999   117.28239304    38.84614007
 H      9   8   2     1.912494889904   120.25757225   351.78674532
 H      9   8   2     1.911470230000   120.39405507   172.23609159
 O      7   4   3     2.783829668993   105.02973514    49.07238667
 O      7   4   3     2.714812733219   105.98041552   170.73821441
 C      1   2   3     2.891198845036   114.04751046    71.27147181
 H      1   2   3     2.059229211409   105.31628314   309.84494500
 H      1   2   3     2.071613321715   110.38499465   196.36075284
 C      3   2   1     4.804082625084    75.28786529   328.63877310
 C     21   3   2     2.877392299561    33.45203408    62.46988994
 H     22  21   3     2.072195113889   109.78678321   123.00138599
 H     22  21   3     2.059393466667   109.90626334   238.94967961
 H      3   2   1     2.069111019509   169.46526939   316.66150389
 H      3   2   1     2.067080043870    71.30795148   237.06279558
 C     18   1   2     2.886687679010   114.02213033   299.75436756
 H     18   1   2     2.068932713082   107.65179087   177.40351951
 H     18   1   2     2.067329496612   109.22173402    62.36298160
 C     27  18   1     2.883632262346   113.93276277   288.90034571
 H     27  18   1     2.068122756144   108.74093275   167.10616769
 H     27  18   1     2.067719744133   108.74874272    52.17399198
 C     21   3   2     2.889959617997   146.92063230    53.80488115
 H     30  27  18     2.069849395866   108.86941482   300.75108730
 H     30  27  18     2.067195960987   109.92906200    56.35085961
 H     21   3   2     2.069909629955    87.16372703   291.04892433
 H     21   3   2     2.068989173855    92.71949470   185.57163885
 H     33  21   3     2.068641104040   109.10507473    72.09358689
 H     33  21   3     2.069735451623   108.98305469   187.60350442
 F      7   4   3     2.785709426462   106.76381078   292.33403201

---------------------
BASIS SET INFORMATION
---------------------
There are 6 groups of distinct atoms

 Group   1 Type C   : 8s4p2d contracted to 4s2p2d pattern {5111/31/11}
 Group   2 Type H   : 4s2p contracted to 2s2p pattern {31/11}
 Group   3 Type S   : 11s8p2d contracted to 5s4p2d pattern {53111/5111/11}
 Group   4 Type N   : 8s4p2d contracted to 4s2p2d pattern {5111/31/11}
 Group   5 Type O   : 8s5p2d contracted to 4s3p2d pattern {5111/311/11}
 Group   6 Type F   : 8s5p2d contracted to 4s3p2d pattern {5111/311/11}

Atom   0C    basis set group =>   1
Atom   1C    basis set group =>   1
Atom   2C    basis set group =>   1
Atom   3C    basis set group =>   1
Atom   4H    basis set group =>   2
Atom   5H    basis set group =>   2
Atom   6S    basis set group =>   3
Atom   7C    basis set group =>   1
Atom   8N    basis set group =>   4
Atom   9N    basis set group =>   4
Atom  10H    basis set group =>   2
Atom  11H    basis set group =>   2
Atom  12H    basis set group =>   2
Atom  13H    basis set group =>   2
Atom  14H    basis set group =>   2
Atom  15O    basis set group =>   5
Atom  16O    basis set group =>   5
Atom  17C    basis set group =>   1
Atom  18H    basis set group =>   2
Atom  19H    basis set group =>   2
Atom  20C    basis set group =>   1
Atom  21C    basis set group =>   1
Atom  22H    basis set group =>   2
Atom  23H    basis set group =>   2
Atom  24H    basis set group =>   2
Atom  25H    basis set group =>   2
Atom  26C    basis set group =>   1
Atom  27H    basis set group =>   2
Atom  28H    basis set group =>   2
Atom  29C    basis set group =>   1
Atom  30H    basis set group =>   2
Atom  31H    basis set group =>   2
Atom  32C    basis set group =>   1
Atom  33H    basis set group =>   2
Atom  34H    basis set group =>   2
Atom  35H    basis set group =>   2
Atom  36H    basis set group =>   2
Atom  37H    basis set group =>   2
Atom  38H    basis set group =>   2
Atom  39F    basis set group =>   6
---------------------------------
AUXILIARY/J BASIS SET INFORMATION
---------------------------------
There are 6 groups of distinct atoms

 Group   1 Type C   : 12s5p4d2f1g contracted to 6s4p3d1f1g pattern {711111/2111/211/2/1}
 Group   2 Type H   : 5s2p1d contracted to 3s1p1d pattern {311/2/1}
 Group   3 Type S   : 14s5p5d2f1g contracted to 8s4p3d1f1g pattern {71111111/2111/311/2/1}
 Group   4 Type N   : 12s5p4d2f1g contracted to 6s4p3d1f1g pattern {711111/2111/211/2/1}
 Group   5 Type O   : 12s5p4d2f1g contracted to 6s4p3d1f1g pattern {711111/2111/211/2/1}
 Group   6 Type F   : 12s5p4d2f1g contracted to 6s4p3d1f1g pattern {711111/2111/211/2/1}

Atom   0C    basis set group =>   1
Atom   1C    basis set group =>   1
Atom   2C    basis set group =>   1
Atom   3C    basis set group =>   1
Atom   4H    basis set group =>   2
Atom   5H    basis set group =>   2
Atom   6S    basis set group =>   3
Atom   7C    basis set group =>   1
Atom   8N    basis set group =>   4
Atom   9N    basis set group =>   4
Atom  10H    basis set group =>   2
Atom  11H    basis set group =>   2
Atom  12H    basis set group =>   2
Atom  13H    basis set group =>   2
Atom  14H    basis set group =>   2
Atom  15O    basis set group =>   5
Atom  16O    basis set group =>   5
Atom  17C    basis set group =>   1
Atom  18H    basis set group =>   2
Atom  19H    basis set group =>   2
Atom  20C    basis set group =>   1
Atom  21C    basis set group =>   1
Atom  22H    basis set group =>   2
Atom  23H    basis set group =>   2
Atom  24H    basis set group =>   2
Atom  25H    basis set group =>   2
Atom  26C    basis set group =>   1
Atom  27H    basis set group =>   2
Atom  28H    basis set group =>   2
Atom  29C    basis set group =>   1
Atom  30H    basis set group =>   2
Atom  31H    basis set group =>   2
Atom  32C    basis set group =>   1
Atom  33H    basis set group =>   2
Atom  34H    basis set group =>   2
Atom  35H    basis set group =>   2
Atom  36H    basis set group =>   2
Atom  37H    basis set group =>   2
Atom  38H    basis set group =>   2
Atom  39F    basis set group =>   6


           ************************************************************
           *        Program running with 4 parallel MPI-processes     *
           *              working on a common directory               *
           ************************************************************
------------------------------------------------------------------------------
                           ORCA GTO INTEGRAL CALCULATION
                           -- RI-GTO INTEGRALS CHOSEN --
------------------------------------------------------------------------------
------------------------------------------------------------------------------
                   ___                                                        
                  /   \      - P O W E R E D   B Y -                         
                 /     \                                                     
                 |  |  |   _    _      __       _____    __    __             
                 |  |  |  | |  | |    /  \     |  _  \  |  |  /  |          
                  \  \/   | |  | |   /    \    | | | |  |  | /  /          
                 / \  \   | |__| |  /  /\  \   | |_| |  |  |/  /          
                |  |  |   |  __  | /  /__\  \  |    /   |      \           
                |  |  |   | |  | | |   __   |  |    \   |  |\   \          
                \     /   | |  | | |  |  |  |  | |\  \  |  | \   \       
                 \___/    |_|  |_| |__|  |__|  |_| \__\ |__|  \__/        
                                                                              
                      - O R C A' S   B I G   F R I E N D -                    
                                      &                                       
                       - I N T E G R A L  F E E D E R -                       
                                                                              
 v1 FN, 2020, v2 2021                                                         
------------------------------------------------------------------------------


Reading SHARK input file 28Oct_SVPD_TPSS_D7_wb97.SHARKINP.tmp ... ok
----------------------
SHARK INTEGRAL PACKAGE
----------------------

Number of atoms                             ...     40
Number of basis functions                   ...    540
Number of shells                            ...    234
Maximum angular momentum                    ...      2
Integral batch strategy                     ... SHARK/LIBINT Hybrid
RI-J (if used) integral strategy            ... SPLIT-RIJ (Revised 2003 algorithm where possible)
Printlevel                                  ...      1
Contraction scheme used                     ... SEGMENTED contraction
Coulomb Range Separation                    ... NOT USED
Exchange Range Separation                   ... NOT USED
Finite Nucleus Model                        ... NOT USED
Auxiliary Coulomb fitting basis             ... AVAILABLE
   # of basis functions in Aux-J            ...   1088
   # of shells in Aux-J                     ...    372
   Maximum angular momentum in Aux-J        ...      4
Auxiliary J/K fitting basis                 ... NOT available
Auxiliary Correlation fitting basis         ... NOT available
Auxiliary 'external' fitting basis          ... NOT available
Integral threshold                          ...     2.500000e-11
Primitive cut-off                           ...     2.500000e-12
Primitive pair pre-selection threshold      ...     2.500000e-12

Calculating pre-screening integrals         ... done (  0.1 sec) Dimension = 234
Organizing shell pair data                  ... done (  0.2 sec)
Shell pair information
Total number of shell pairs                 ...     27495
Shell pairs after pre-screening             ...     24613
Total number of primitive shell pairs       ...     74991
Primitive shell pairs kept                  ...     49903
          la=0 lb=0:   5925 shell pairs
          la=1 lb=0:   8753 shell pairs
          la=1 lb=1:   3277 shell pairs
          la=2 lb=0:   3510 shell pairs
          la=2 lb=1:   2612 shell pairs
          la=2 lb=2:    536 shell pairs

Calculating one electron integrals          ... done (  0.1 sec)
Calculating RI/J V-Matrix + Cholesky decomp.... done (  0.2 sec)
Calculating Nuclear repulsion               ... done (  0.0 sec) ENN=   1571.858307194944 Eh

SHARK setup successfully completed in   0.6 seconds

Maximum memory used throughout the entire GTOINT-calculation: 36.0 MB


           ************************************************************
           *        Program running with 4 parallel MPI-processes     *
           *              working on a common directory               *
           ************************************************************
-------------------------------------------------------------------------------
                                 ORCA SCF
-------------------------------------------------------------------------------

------------
SCF SETTINGS
------------
Hamiltonian:
 Density Functional     Method          .... DFT(GTOs)
 Exchange Functional    Exchange        .... TPSS
 Correlation Functional Correlation     .... TPSS
 LDA part of GGA corr.  LDAOpt          .... PW91-LDA
 Gradients option       PostSCFGGA      .... off
   Density functional embedding theory  .... OFF
   NL short-range parameter             ....  5.000000
 RI-approximation to the Coulomb term is turned on
   Number of AuxJ basis functions       .... 1088


General Settings:
 Integral files         IntName         .... 28Oct_SVPD_TPSS_D7_wb97
 Hartree-Fock type      HFTyp           .... RHF
 Total Charge           Charge          ....    0
 Multiplicity           Mult            ....    1
 Number of Electrons    NEL             ....  144
 Basis Dimension        Dim             ....  540
 Nuclear Repulsion      ENuc            ....   1571.8583071949 Eh

Convergence Acceleration:
 DIIS                   CNVDIIS         .... on
   Start iteration      DIISMaxIt       ....    12
   Startup error        DIISStart       ....  0.200000
   # of expansion vecs  DIISMaxEq       ....     5
   Bias factor          DIISBfac        ....   1.050
   Max. coefficient     DIISMaxC        ....  10.000
 Trust-Rad. Augm. Hess. CNVTRAH         .... auto
   Auto Start mean grad. ratio tolernc. ....  1.125000
   Auto Start start iteration           ....    20
   Auto Start num. interpolation iter.  ....    10
   Max. Number of Micro iterations      ....    16
   Max. Number of Macro iterations      .... Maxiter - #DIIS iter
   Number of Davidson start vectors     ....     2
   Converg. threshold I  (grad. norm)   ....   1.000e-05
   Converg. threshold II (energy diff.) ....   1.000e-08
   Grad. Scal. Fac. for Micro threshold ....   0.100
   Minimum threshold for Micro iter.    ....   0.010
   NR start threshold (gradient norm)   ....   0.001
   Initial trust radius                 ....   0.400
   Minimum AH scaling param. (alpha)    ....   1.000
   Maximum AH scaling param. (alpha)    .... 1000.000
   Orbital update algorithm             .... Taylor
   White noise on init. David. guess    .... on
   Maximum white noise                  ....   0.010
   Quad. conv. algorithm                .... NR
 SOSCF                  CNVSOSCF        .... on
   Start iteration      SOSCFMaxIt      ....   150
   Startup grad/error   SOSCFStart      ....  0.003300
 Level Shifting         CNVShift        .... on
   Level shift para.    LevelShift      ....    0.2500
   Turn off err/grad.   ShiftErr        ....    0.0010
 Zerner damping         CNVZerner       .... off
 Static damping         CNVDamp         .... on
   Fraction old density DampFac         ....    0.7000
   Max. Damping (<1)    DampMax         ....    0.9800
   Min. Damping (>=0)   DampMin         ....    0.0000
   Turn off err/grad.   DampErr         ....    0.1000
 Fernandez-Rico         CNVRico         .... off

SCF Procedure:
 Maximum # iterations   MaxIter         ....   150
 SCF integral mode      SCFMode         .... Direct
   Integral package                     .... SHARK and LIBINT hybrid scheme
 Reset frequency        DirectResetFreq ....    20
 Integral Threshold     Thresh          ....  2.500e-11 Eh
 Primitive CutOff       TCut            ....  2.500e-12 Eh

Convergence Tolerance:
 Convergence Check Mode ConvCheckMode   .... Total+1el-Energy
 Convergence forced     ConvForced      .... 0
 Energy Change          TolE            ....  1.000e-08 Eh
 1-El. energy change                    ....  1.000e-05 Eh
 Orbital Gradient       TolG            ....  1.000e-05
 Orbital Rotation angle TolX            ....  1.000e-05
 DIIS Error             TolErr          ....  5.000e-07


Diagonalization of the overlap matrix:
Smallest eigenvalue                        ... 1.382e-05
Time for diagonalization                   ...    0.074 sec
Threshold for overlap eigenvalues          ... 1.000e-08
Number of eigenvalues below threshold      ... 0
Time for construction of square roots      ...    0.085 sec
Total time needed                          ...    0.162 sec

Time for model grid setup =    0.510 sec

------------------------------
INITIAL GUESS: MODEL POTENTIAL
------------------------------
Loading Hartree-Fock densities                     ... done
Calculating cut-offs                               ... done
Initializing the effective Hamiltonian             ... done
Setting up the integral package (SHARK)            ... done
Starting the Coulomb interaction                   ... done (   0.7 sec)
Reading the grid                                   ... done
Mapping shells                                     ... done
Starting the XC term evaluation                    ... done (   0.7 sec)
  promolecular density results
     # of electrons  =    143.981034588
     EX              =   -127.661249766
     EC              =     -4.952475867
     EX+EC           =   -132.613725633
Transforming the Hamiltonian                       ... done (   0.0 sec)
Diagonalizing the Hamiltonian                      ... done (   0.1 sec)
Back transforming the eigenvectors                 ... done (   0.0 sec)
Now organizing SCF variables                       ... done
                      ------------------
                      INITIAL GUESS DONE (   2.0 sec)
                      ------------------
-------------------
DFT GRID GENERATION
-------------------

General Integration Accuracy     IntAcc      ... 4.388
Radial Grid Type                 RadialGrid  ... OptM3 with GC (2021)
Angular Grid (max. ang.)         AngularGrid ... 4 (Lebedev-302)
Angular grid pruning method      GridPruning ... 4 (adaptive)
Weight generation scheme         WeightScheme... Becke
Basis function cutoff            BFCut       ... 1.0000e-11
Integration weight cutoff        WCut        ... 1.0000e-14
Angular grids for H and He will be reduced by one unit
Partially contracted basis set               ... off
Rotationally invariant grid construction     ... off

Total number of grid points                  ...   179802
Total number of batches                      ...     2828
Average number of points per batch           ...       63
Average number of grid points per atom       ...     4495
Time for grid setup =    1.907 sec

--------------
SCF ITERATIONS
--------------
ITER       Energy         Delta-E        Max-DP      RMS-DP      [F,P]     Damp
               ***  Starting incremental Fock matrix formation  ***
  0  -1189.6591425641   0.000000000000 0.38593719  0.00348584  0.2666150 0.7000
  1  -1190.0215715883  -0.362429024263 0.52606907  0.00262529  0.0978956 0.7000
                               ***Turning on DIIS***
  2  -1190.1309196113  -0.109348022960 0.97382242  0.00487626  0.0275605 0.0000
  3  -1190.3248848856  -0.193965274339 0.48735578  0.00188622  0.0611685 0.0000
  4  -1190.3694484868  -0.044563601123 0.27155479  0.00098135  0.0275699 0.0000
  5  -1190.3745961692  -0.005147682435 0.12084935  0.00044788  0.0085170 0.0000
                      *** Initiating the SOSCF procedure ***
                           *** Shutting down DIIS ***
                      *** Re-Reading the Fockian *** 
                      *** Removing any level shift *** 
ITER      Energy       Delta-E        Grad      Rot      Max-DP    RMS-DP
  6  -1190.37496378  -0.0003676133  0.000435  0.000435  0.045206  0.000199
               *** Restarting incremental Fock matrix formation ***
  7  -1190.37499853  -0.0000347480  0.000312  0.003243  0.034875  0.000176
  8  -1190.37499861  -0.0000000763  0.000333  0.000852  0.007162  0.000045
  9  -1190.37500644  -0.0000078337  0.000081  0.001028  0.012011  0.000056
 10  -1190.37500623   0.0000002152  0.000101  0.000111  0.000460  0.000008
 11  -1190.37500729  -0.0000010604  0.000049  0.000461  0.005587  0.000026
 12  -1190.37500731  -0.0000000210  0.000031  0.000063  0.001480  0.000007
 13  -1190.37500748  -0.0000001717  0.000018  0.000184  0.001490  0.000009
 14  -1190.37500745   0.0000000269  0.000029  0.000060  0.001118  0.000005
 15  -1190.37500751  -0.0000000555  0.000003  0.000056  0.000631  0.000003
 16  -1190.37500749   0.0000000181  0.000004  0.000020  0.000320  0.000002
                  ***Gradient check signals convergence***
              ***Rediagonalizing the Fockian in SOSCF/NRSCF***

               *****************************************************
               *                     SUCCESS                       *
               *           SCF CONVERGED AFTER  17 CYCLES          *
               *****************************************************


----------------
TOTAL SCF ENERGY
----------------

Total Energy       :        -1190.37500749 Eh          -32391.75072 eV

Components:
Nuclear Repulsion  :         1571.85830719 Eh           42772.43905 eV
Electronic Energy  :        -2762.23331469 Eh          -75164.18977 eV
One Electron Energy:        -4751.86265056 Eh         -129304.75645 eV
Two Electron Energy:         1989.62933587 Eh           54140.56668 eV

Virial components:
Potential Energy   :        -2372.46979077 Eh          -64558.18508 eV
Kinetic Energy     :         1182.09478328 Eh           32166.43436 eV
Virial Ratio       :            2.00700470


DFT components:
N(Alpha)           :       71.999857436405 electrons
N(Beta)            :       71.999857436405 electrons
N(Total)           :      143.999714872810 electrons
E(X)               :     -130.981481811131 Eh       
E(C)               :       -4.953167366443 Eh       
E(XC)              :     -135.934649177574 Eh       
DFET-embed. en.    :        0.000000000000 Eh       

---------------
SCF CONVERGENCE
---------------

  Last Energy change         ...   -1.9779e-09  Tolerance :   1.0000e-08
  Last MAX-Density change    ...    5.0395e-04  Tolerance :   1.0000e-07
  Last RMS-Density change    ...    2.7447e-06  Tolerance :   5.0000e-09
  Last Orbital Gradient      ...    1.8906e-06  Tolerance :   1.0000e-05
  Last Orbital Rotation      ...    2.0787e-05  Tolerance :   1.0000e-05

             **** THE GBW FILE WAS UPDATED (28Oct_SVPD_TPSS_D7_wb97.gbw) ****
             **** DENSITY 28Oct_SVPD_TPSS_D7_wb97.scfp WAS UPDATED ****
             **** ENERGY FILE WAS UPDATED (28Oct_SVPD_TPSS_D7_wb97.en.tmp) ****
             **** THE GBW FILE WAS UPDATED (28Oct_SVPD_TPSS_D7_wb97.gbw) ****
             **** DENSITY 28Oct_SVPD_TPSS_D7_wb97.scfp WAS UPDATED ****
----------------
ORBITAL ENERGIES
----------------

  NO   OCC          E(Eh)            E(eV) 
   0   2.0000     -88.632329     -2411.8083 
   1   2.0000     -24.533193      -667.5821 
   2   2.0000     -18.923658      -514.9389 
   3   2.0000     -18.920114      -514.8425 
   4   2.0000     -14.109204      -383.9310 
   5   2.0000     -14.087343      -383.3361 
   6   2.0000     -10.066504      -273.9235 
   7   2.0000     -10.028486      -272.8890 
   8   2.0000     -10.022687      -272.7312 
   9   2.0000     -10.009912      -272.3836 
  10   2.0000     -10.000285      -272.1216 
  11   2.0000      -9.993786      -271.9448 
  12   2.0000      -9.986175      -271.7376 
  13   2.0000      -9.977373      -271.4981 
  14   2.0000      -9.972335      -271.3610 
  15   2.0000      -9.969525      -271.2846 
  16   2.0000      -9.904712      -269.5209 
  17   2.0000      -7.992077      -217.4755 
  18   2.0000      -5.982330      -162.7875 
  19   2.0000      -5.976287      -162.6230 
  20   2.0000      -5.973989      -162.5605 
  21   2.0000      -1.275637       -34.7119 
  22   2.0000      -1.049588       -28.5607 
  23   2.0000      -0.957739       -26.0614 
  24   2.0000      -0.869226       -23.6528 
  25   2.0000      -0.784970       -21.3601 
  26   2.0000      -0.780136       -21.2286 
  27   2.0000      -0.745139       -20.2763 
  28   2.0000      -0.717726       -19.5303 
  29   2.0000      -0.694280       -18.8923 
  30   2.0000      -0.661060       -17.9884 
  31   2.0000      -0.648217       -17.6389 
  32   2.0000      -0.613499       -16.6942 
  33   2.0000      -0.588774       -16.0214 
  34   2.0000      -0.568903       -15.4806 
  35   2.0000      -0.539756       -14.6875 
  36   2.0000      -0.533060       -14.5053 
  37   2.0000      -0.526648       -14.3308 
  38   2.0000      -0.521972       -14.2036 
  39   2.0000      -0.503299       -13.6955 
  40   2.0000      -0.496763       -13.5176 
  41   2.0000      -0.480012       -13.0618 
  42   2.0000      -0.454901       -12.3785 
  43   2.0000      -0.444336       -12.0910 
  44   2.0000      -0.443115       -12.0578 
  45   2.0000      -0.433672       -11.8008 
  46   2.0000      -0.430783       -11.7222 
  47   2.0000      -0.417040       -11.3482 
  48   2.0000      -0.409183       -11.1344 
  49   2.0000      -0.399887       -10.8815 
  50   2.0000      -0.389384       -10.5957 
  51   2.0000      -0.384191       -10.4544 
  52   2.0000      -0.380297       -10.3484 
  53   2.0000      -0.362463        -9.8631 
  54   2.0000      -0.354117        -9.6360 
  55   2.0000      -0.344363        -9.3706 
  56   2.0000      -0.338606        -9.2139 
  57   2.0000      -0.334653        -9.1064 
  58   2.0000      -0.324333        -8.8256 
  59   2.0000      -0.318669        -8.6714 
  60   2.0000      -0.309243        -8.4149 
  61   2.0000      -0.306089        -8.3291 
  62   2.0000      -0.299144        -8.1401 
  63   2.0000      -0.293761        -7.9936 
  64   2.0000      -0.293286        -7.9807 
  65   2.0000      -0.285392        -7.7659 
  66   2.0000      -0.283843        -7.7238 
  67   2.0000      -0.270874        -7.3709 
  68   2.0000      -0.264895        -7.2081 
  69   2.0000      -0.260312        -7.0834 
  70   2.0000      -0.207691        -5.6516 
  71   2.0000      -0.119128        -3.2416 
  72   0.0000      -0.023261        -0.6330 
  73   0.0000       0.002826         0.0769 
  74   0.0000       0.010163         0.2766 
  75   0.0000       0.012047         0.3278 
  76   0.0000       0.019129         0.5205 
  77   0.0000       0.023191         0.6311 
  78   0.0000       0.032648         0.8884 
  79   0.0000       0.033743         0.9182 
  80   0.0000       0.039023         1.0619 
  81   0.0000       0.043701         1.1892 
  82   0.0000       0.047980         1.3056 
  83   0.0000       0.050553         1.3756 
  84   0.0000       0.055662         1.5146 
  85   0.0000       0.062610         1.7037 
  86   0.0000       0.066246         1.8027 
  87   0.0000       0.070336         1.9139 
  88   0.0000       0.074085         2.0160 
  89   0.0000       0.080568         2.1924 
  90   0.0000       0.082833         2.2540 
  91   0.0000       0.091127         2.4797 
  92   0.0000       0.094727         2.5777 
  93   0.0000       0.098238         2.6732 
  94   0.0000       0.105309         2.8656 
  95   0.0000       0.105809         2.8792 
  96   0.0000       0.109876         2.9899 
  97   0.0000       0.113732         3.0948 
  98   0.0000       0.120335         3.2745 
  99   0.0000       0.126028         3.4294 
 100   0.0000       0.128895         3.5074 
 101   0.0000       0.137604         3.7444 
 102   0.0000       0.142368         3.8740 
 103   0.0000       0.147955         4.0261 
 104   0.0000       0.151401         4.1198 
 105   0.0000       0.154190         4.1957 
 106   0.0000       0.156206         4.2506 
 107   0.0000       0.158853         4.3226 
 108   0.0000       0.161359         4.3908 
 109   0.0000       0.167372         4.5544 
 110   0.0000       0.169488         4.6120 
 111   0.0000       0.173352         4.7171 
 112   0.0000       0.181804         4.9471 
 113   0.0000       0.183013         4.9800 
 114   0.0000       0.186827         5.0838 
 115   0.0000       0.188489         5.1290 
 116   0.0000       0.195510         5.3201 
 117   0.0000       0.197663         5.3787 
 118   0.0000       0.205551         5.5933 
 119   0.0000       0.209122         5.6905 
 120   0.0000       0.213015         5.7964 
 121   0.0000       0.214576         5.8389 
 122   0.0000       0.216375         5.8879 
 123   0.0000       0.220686         6.0052 
 124   0.0000       0.222481         6.0540 
 125   0.0000       0.227293         6.1850 
 126   0.0000       0.232297         6.3211 
 127   0.0000       0.236396         6.4327 
 128   0.0000       0.237951         6.4750 
 129   0.0000       0.244630         6.6567 
 130   0.0000       0.245590         6.6829 
 131   0.0000       0.250642         6.8203 
 132   0.0000       0.254597         6.9279 
 133   0.0000       0.261136         7.1059 
 134   0.0000       0.264067         7.1856 
 135   0.0000       0.269015         7.3203 
 136   0.0000       0.276105         7.5132 
 137   0.0000       0.278099         7.5674 
 138   0.0000       0.281168         7.6510 
 139   0.0000       0.285587         7.7712 
 140   0.0000       0.290382         7.9017 
 141   0.0000       0.290827         7.9138 
 142   0.0000       0.294473         8.0130 
 143   0.0000       0.298687         8.1277 
 144   0.0000       0.300306         8.1717 
 145   0.0000       0.304526         8.2866 
 146   0.0000       0.307860         8.3773 
 147   0.0000       0.310036         8.4365 
 148   0.0000       0.312464         8.5026 
 149   0.0000       0.318970         8.6796 
 150   0.0000       0.321448         8.7471 
 151   0.0000       0.324811         8.8386 
 152   0.0000       0.325755         8.8642 
 153   0.0000       0.329813         8.9747 
 154   0.0000       0.331023         9.0076 
 155   0.0000       0.336088         9.1454 
 156   0.0000       0.338752         9.2179 
 157   0.0000       0.339423         9.2362 
 158   0.0000       0.344136         9.3644 
 159   0.0000       0.349715         9.5162 
 160   0.0000       0.351657         9.5691 
 161   0.0000       0.355905         9.6847 
 162   0.0000       0.360525         9.8104 
 163   0.0000       0.360873         9.8198 
 164   0.0000       0.364124         9.9083 
 165   0.0000       0.370017        10.0687 
 166   0.0000       0.373256        10.1568 
 167   0.0000       0.374950        10.2029 
 168   0.0000       0.376784        10.2528 
 169   0.0000       0.380718        10.3599 
 170   0.0000       0.381686        10.3862 
 171   0.0000       0.387174        10.5355 
 172   0.0000       0.389405        10.5962 
 173   0.0000       0.395305        10.7568 
 174   0.0000       0.396314        10.7843 
 175   0.0000       0.401770        10.9327 
 176   0.0000       0.404188        10.9985 
 177   0.0000       0.410437        11.1686 
 178   0.0000       0.415191        11.2979 
 179   0.0000       0.415636        11.3100 
 180   0.0000       0.418269        11.3817 
 181   0.0000       0.423816        11.5326 
 182   0.0000       0.424216        11.5435 
 183   0.0000       0.428733        11.6664 
 184   0.0000       0.432167        11.7599 
 185   0.0000       0.436684        11.8828 
 186   0.0000       0.437858        11.9147 
 187   0.0000       0.444993        12.1089 
 188   0.0000       0.448571        12.2062 
 189   0.0000       0.451835        12.2951 
 190   0.0000       0.455113        12.3843 
 191   0.0000       0.458487        12.4761 
 192   0.0000       0.459743        12.5102 
 193   0.0000       0.466421        12.6919 
 194   0.0000       0.468328        12.7439 
 195   0.0000       0.471307        12.8249 
 196   0.0000       0.476216        12.9585 
 197   0.0000       0.479498        13.0478 
 198   0.0000       0.485284        13.2053 
 199   0.0000       0.490441        13.3456 
 200   0.0000       0.494486        13.4557 
 201   0.0000       0.497037        13.5251 
 202   0.0000       0.498925        13.5764 
 203   0.0000       0.502335        13.6692 
 204   0.0000       0.506817        13.7912 
 205   0.0000       0.509350        13.8601 
 206   0.0000       0.514166        13.9912 
 207   0.0000       0.518765        14.1163 
 208   0.0000       0.519306        14.1310 
 209   0.0000       0.522823        14.2267 
 210   0.0000       0.527930        14.3657 
 211   0.0000       0.533864        14.5272 
 212   0.0000       0.534483        14.5440 
 213   0.0000       0.536778        14.6065 
 214   0.0000       0.542292        14.7565 
 215   0.0000       0.543793        14.7974 
 216   0.0000       0.548501        14.9255 
 217   0.0000       0.553619        15.0648 
 218   0.0000       0.554812        15.0972 
 219   0.0000       0.558318        15.1926 
 220   0.0000       0.562740        15.3129 
 221   0.0000       0.567340        15.4381 
 222   0.0000       0.569895        15.5076 
 223   0.0000       0.573803        15.6140 
 224   0.0000       0.578312        15.7367 
 225   0.0000       0.582259        15.8441 
 226   0.0000       0.586393        15.9566 
 227   0.0000       0.592462        16.1217 
 228   0.0000       0.594292        16.1715 
 229   0.0000       0.596110        16.2210 
 230   0.0000       0.601208        16.3597 
 231   0.0000       0.607572        16.5329 
 232   0.0000       0.610973        16.6254 
 233   0.0000       0.617467        16.8021 
 234   0.0000       0.620144        16.8750 
 235   0.0000       0.623718        16.9722 
 236   0.0000       0.628449        17.1010 
 237   0.0000       0.630345        17.1526 
 238   0.0000       0.635172        17.2839 
 239   0.0000       0.638063        17.3626 
 240   0.0000       0.641909        17.4672 
 241   0.0000       0.644388        17.5347 
 242   0.0000       0.652800        17.7636 
 243   0.0000       0.659646        17.9499 
 244   0.0000       0.662431        18.0257 
 245   0.0000       0.665372        18.1057 
 246   0.0000       0.667544        18.1648 
 247   0.0000       0.672415        18.2973 
 248   0.0000       0.677303        18.4304 
 249   0.0000       0.682298        18.5663 
 250   0.0000       0.684069        18.6145 
 251   0.0000       0.692411        18.8415 
 252   0.0000       0.696815        18.9613 
 253   0.0000       0.698510        19.0074 
 254   0.0000       0.702098        19.1051 
 255   0.0000       0.710823        19.3425 
 256   0.0000       0.715429        19.4678 
 257   0.0000       0.719169        19.5696 
 258   0.0000       0.722996        19.6737 
 259   0.0000       0.728875        19.8337 
 260   0.0000       0.737914        20.0797 
 261   0.0000       0.742262        20.1980 
 262   0.0000       0.746854        20.3229 
 263   0.0000       0.755305        20.5529 
 264   0.0000       0.758269        20.6335 
 265   0.0000       0.760885        20.7047 
 266   0.0000       0.771520        20.9941 
 267   0.0000       0.773664        21.0525 
 268   0.0000       0.779415        21.2090 
 269   0.0000       0.784103        21.3365 
 270   0.0000       0.786815        21.4103 
 271   0.0000       0.794386        21.6163 
 272   0.0000       0.801063        21.7980 
 273   0.0000       0.804628        21.8950 
 274   0.0000       0.812989        22.1226 
 275   0.0000       0.823735        22.4150 
 276   0.0000       0.824118        22.4254 
 277   0.0000       0.830230        22.5917 
 278   0.0000       0.833781        22.6883 
 279   0.0000       0.840687        22.8763 
 280   0.0000       0.848363        23.0851 
 281   0.0000       0.850559        23.1449 
 282   0.0000       0.858428        23.3590 
 283   0.0000       0.863910        23.5082 
 284   0.0000       0.869251        23.6535 
 285   0.0000       0.871929        23.7264 
 286   0.0000       0.883697        24.0466 
 287   0.0000       0.888359        24.1735 
 288   0.0000       0.890690        24.2369 
 289   0.0000       0.905674        24.6446 
 290   0.0000       0.913660        24.8620 
 291   0.0000       0.921160        25.0660 
 292   0.0000       0.929055        25.2809 
 293   0.0000       0.933908        25.4129 
 294   0.0000       0.941920        25.6309 
 295   0.0000       0.962134        26.1810 
 296   0.0000       0.971505        26.4360 
 297   0.0000       0.973843        26.4996 
 298   0.0000       0.982289        26.7295 
 299   0.0000       0.984504        26.7897 
 300   0.0000       0.993055        27.0224 
 301   0.0000       0.997573        27.1453 
 302   0.0000       1.001267        27.2459 
 303   0.0000       1.012805        27.5598 
 304   0.0000       1.018263        27.7084 
 305   0.0000       1.023199        27.8427 
 306   0.0000       1.030535        28.0423 
 307   0.0000       1.034398        28.1474 
 308   0.0000       1.042964        28.3805 
 309   0.0000       1.047463        28.5029 
 310   0.0000       1.052850        28.6495 
 311   0.0000       1.062321        28.9072 
 312   0.0000       1.064529        28.9673 
 313   0.0000       1.069646        29.1066 
 314   0.0000       1.074286        29.2328 
 315   0.0000       1.080268        29.3956 
 316   0.0000       1.089655        29.6510 
 317   0.0000       1.095101        29.7992 
 318   0.0000       1.106975        30.1223 
 319   0.0000       1.113246        30.2930 
 320   0.0000       1.121046        30.5052 
 321   0.0000       1.125150        30.6169 
 322   0.0000       1.129710        30.7410 
 323   0.0000       1.132219        30.8092 
 324   0.0000       1.140490        31.0343 
 325   0.0000       1.146019        31.1847 
 326   0.0000       1.154857        31.4252 
 327   0.0000       1.160607        31.5817 
 328   0.0000       1.178641        32.0725 
 329   0.0000       1.183178        32.1959 
 330   0.0000       1.191394        32.4195 
 331   0.0000       1.193847        32.4862 
 332   0.0000       1.209437        32.9104 
 333   0.0000       1.213246        33.0141 
 334   0.0000       1.215705        33.0810 
 335   0.0000       1.225106        33.3368 
 336   0.0000       1.244067        33.8528 
 337   0.0000       1.249939        34.0126 
 338   0.0000       1.254178        34.1279 
 339   0.0000       1.263937        34.3935 
 340   0.0000       1.271092        34.5882 
 341   0.0000       1.282387        34.8955 
 342   0.0000       1.286407        35.0049 
 343   0.0000       1.292958        35.1832 
 344   0.0000       1.302516        35.4433 
 345   0.0000       1.310012        35.6473 
 346   0.0000       1.315837        35.8058 
 347   0.0000       1.326355        36.0919 
 348   0.0000       1.328992        36.1637 
 349   0.0000       1.344237        36.5785 
 350   0.0000       1.349559        36.7234 
 351   0.0000       1.355845        36.8944 
 352   0.0000       1.366276        37.1783 
 353   0.0000       1.370386        37.2901 
 354   0.0000       1.379661        37.5425 
 355   0.0000       1.404139        38.2086 
 356   0.0000       1.408903        38.3382 
 357   0.0000       1.435485        39.0615 
 358   0.0000       1.438896        39.1544 
 359   0.0000       1.441399        39.2225 
 360   0.0000       1.458344        39.6836 
 361   0.0000       1.469821        39.9959 
 362   0.0000       1.479011        40.2459 
 363   0.0000       1.487097        40.4660 
 364   0.0000       1.511235        41.1228 
 365   0.0000       1.529372        41.6163 
 366   0.0000       1.535685        41.7881 
 367   0.0000       1.545031        42.0424 
 368   0.0000       1.553543        42.2741 
 369   0.0000       1.572962        42.8025 
 370   0.0000       1.586332        43.1663 
 371   0.0000       1.591619        43.3102 
 372   0.0000       1.608412        43.7671 
 373   0.0000       1.612523        43.8790 
 374   0.0000       1.626249        44.2525 
 375   0.0000       1.633005        44.4363 
 376   0.0000       1.649232        44.8779 
 377   0.0000       1.661693        45.2170 
 378   0.0000       1.669916        45.4407 
 379   0.0000       1.681467        45.7550 
 380   0.0000       1.687795        45.9272 
 381   0.0000       1.700739        46.2795 
 382   0.0000       1.707834        46.4725 
 383   0.0000       1.717352        46.7315 
 384   0.0000       1.741430        47.3867 
 385   0.0000       1.743629        47.4465 
 386   0.0000       1.753156        47.7058 
 387   0.0000       1.763212        47.9794 
 388   0.0000       1.765082        48.0303 
 389   0.0000       1.778657        48.3997 
 390   0.0000       1.790214        48.7142 
 391   0.0000       1.800113        48.9836 
 392   0.0000       1.812236        49.3134 
 393   0.0000       1.816804        49.4378 
 394   0.0000       1.820624        49.5417 
 395   0.0000       1.830168        49.8014 
 396   0.0000       1.840418        50.0803 
 397   0.0000       1.860932        50.6385 
 398   0.0000       1.870905        50.9099 
 399   0.0000       1.876469        51.0613 
 400   0.0000       1.878949        51.1288 
 401   0.0000       1.890799        51.4513 
 402   0.0000       1.897929        51.6453 
 403   0.0000       1.906693        51.8838 
 404   0.0000       1.915211        52.1156 
 405   0.0000       1.926851        52.4323 
 406   0.0000       1.933435        52.6114 
 407   0.0000       1.934415        52.6381 
 408   0.0000       1.940350        52.7996 
 409   0.0000       1.947881        53.0045 
 410   0.0000       1.955404        53.2093 
 411   0.0000       1.965456        53.4828 
 412   0.0000       1.966107        53.5005 
 413   0.0000       1.976885        53.7938 
 414   0.0000       1.983902        53.9847 
 415   0.0000       1.993396        54.2431 
 416   0.0000       1.997559        54.3563 
 417   0.0000       2.000250        54.4296 
 418   0.0000       2.009672        54.6860 
 419   0.0000       2.014881        54.8277 
 420   0.0000       2.031508        55.2801 
 421   0.0000       2.034703        55.3671 
 422   0.0000       2.038499        55.4704 
 423   0.0000       2.052769        55.8587 
 424   0.0000       2.065412        56.2027 
 425   0.0000       2.071689        56.3735 
 426   0.0000       2.081393        56.6376 
 427   0.0000       2.085033        56.7366 
 428   0.0000       2.092608        56.9427 
 429   0.0000       2.093978        56.9800 
 430   0.0000       2.104470        57.2655 
 431   0.0000       2.116308        57.5877 
 432   0.0000       2.124426        57.8086 
 433   0.0000       2.133177        58.0467 
 434   0.0000       2.142759        58.3074 
 435   0.0000       2.153711        58.6055 
 436   0.0000       2.160672        58.7949 
 437   0.0000       2.164659        58.9034 
 438   0.0000       2.167347        58.9765 
 439   0.0000       2.186874        59.5079 
 440   0.0000       2.194918        59.7268 
 441   0.0000       2.200075        59.8671 
 442   0.0000       2.209716        60.1294 
 443   0.0000       2.212887        60.2157 
 444   0.0000       2.232117        60.7390 
 445   0.0000       2.238196        60.9044 
 446   0.0000       2.248363        61.1811 
 447   0.0000       2.260087        61.5001 
 448   0.0000       2.273105        61.8543 
 449   0.0000       2.279680        62.0332 
 450   0.0000       2.296418        62.4887 
 451   0.0000       2.304523        62.7092 
 452   0.0000       2.320272        63.1378 
 453   0.0000       2.341783        63.7231 
 454   0.0000       2.350003        63.9468 
 455   0.0000       2.357225        64.1433 
 456   0.0000       2.383694        64.8636 
 457   0.0000       2.390766        65.0561 
 458   0.0000       2.415467        65.7282 
 459   0.0000       2.432480        66.1911 
 460   0.0000       2.442005        66.4503 
 461   0.0000       2.454562        66.7920 
 462   0.0000       2.467926        67.1557 
 463   0.0000       2.471801        67.2611 
 464   0.0000       2.480277        67.4918 
 465   0.0000       2.491491        67.7969 
 466   0.0000       2.500714        68.0479 
 467   0.0000       2.511882        68.3518 
 468   0.0000       2.519160        68.5498 
 469   0.0000       2.533647        68.9440 
 470   0.0000       2.546529        69.2946 
 471   0.0000       2.553379        69.4810 
 472   0.0000       2.563676        69.7612 
 473   0.0000       2.576862        70.1200 
 474   0.0000       2.589369        70.4603 
 475   0.0000       2.598607        70.7117 
 476   0.0000       2.611072        71.0509 
 477   0.0000       2.615642        71.1752 
 478   0.0000       2.623873        71.3992 
 479   0.0000       2.635503        71.7157 
 480   0.0000       2.647154        72.0327 
 481   0.0000       2.667716        72.5923 
 482   0.0000       2.675900        72.8149 
 483   0.0000       2.685668        73.0807 
 484   0.0000       2.687055        73.1185 
 485   0.0000       2.710210        73.7486 
 486   0.0000       2.728880        74.2566 
 487   0.0000       2.735670        74.4414 
 488   0.0000       2.742262        74.6208 
 489   0.0000       2.749932        74.8295 
 490   0.0000       2.781909        75.6996 
 491   0.0000       2.789841        75.9154 
 492   0.0000       2.808533        76.4241 
 493   0.0000       2.818158        76.6860 
 494   0.0000       2.827011        76.9269 
 495   0.0000       2.837926        77.2239 
 496   0.0000       2.843377        77.3722 
 497   0.0000       2.848264        77.5052 
 498   0.0000       2.876403        78.2709 
 499   0.0000       2.883695        78.4693 
 500   0.0000       2.893478        78.7355 
 501   0.0000       2.915040        79.3223 
 502   0.0000       2.922972        79.5381 
 503   0.0000       2.943302        80.0913 
 504   0.0000       2.968409        80.7745 
 505   0.0000       2.987287        81.2882 
 506   0.0000       2.999446        81.6191 
 507   0.0000       3.032677        82.5233 
 508   0.0000       3.043373        82.8144 
 509   0.0000       3.068843        83.5075 
 510   0.0000       3.089808        84.0780 
 511   0.0000       3.106484        84.5317 
 512   0.0000       3.113123        84.7124 
 513   0.0000       3.125889        85.0598 
 514   0.0000       3.137931        85.3874 
 515   0.0000       3.147668        85.6524 
 516   0.0000       3.166963        86.1774 
 517   0.0000       3.182144        86.5905 
 518   0.0000       3.194828        86.9357 
 519   0.0000       3.209770        87.3423 
 520   0.0000       3.219271        87.6008 
 521   0.0000       3.261493        88.7497 
 522   0.0000       3.264767        88.8388 
 523   0.0000       3.277186        89.1768 
 524   0.0000       3.291565        89.5680 
 525   0.0000       3.302364        89.8619 
 526   0.0000       3.331507        90.6549 
 527   0.0000       3.338856        90.8549 
 528   0.0000       3.346481        91.0624 
 529   0.0000       3.357561        91.3639 
 530   0.0000       3.371425        91.7411 
 531   0.0000       3.408929        92.7617 
 532   0.0000       3.429247        93.3146 
 533   0.0000       3.457853        94.0930 
 534   0.0000       3.519600        95.7732 
 535   0.0000       3.535770        96.2132 
 536   0.0000       3.553387        96.6926 
 537   0.0000       3.711556       100.9966 
 538   0.0000       3.792824       103.2080 
 539   0.0000       3.819155       103.9245 

                    ********************************
                    * MULLIKEN POPULATION ANALYSIS *
                    ********************************

-----------------------
MULLIKEN ATOMIC CHARGES
-----------------------
   0 C :    0.080030
   1 C :    0.181297
   2 C :    0.183148
   3 C :    0.208342
   4 H :    0.064917
   5 H :    0.053247
   6 S :    1.495140
   7 C :    1.071059
   8 N :    0.173145
   9 N :   -0.022717
  10 H :   -0.038870
  11 H :   -0.271279
  12 H :   -0.618171
  13 H :   -0.201965
  14 H :   -0.211674
  15 O :   -0.711797
  16 O :   -0.699580
  17 C :    0.329280
  18 H :    0.117055
  19 H :   -0.200667
  20 C :   -0.056063
  21 C :    0.226482
  22 H :    0.057861
  23 H :   -0.528437
  24 H :   -0.058828
  25 H :    0.101048
  26 C :    0.033206
  27 H :   -0.044500
  28 H :   -0.090197
  29 C :   -0.141469
  30 H :   -0.089245
  31 H :   -0.034182
  32 C :    0.572932
  33 H :   -0.310057
  34 H :    0.135432
  35 H :    0.155869
  36 H :   -0.314040
  37 H :   -0.016000
  38 H :    0.031205
  39 F :   -0.610958
Sum of atomic charges:   -0.0000000

--------------------------------
MULLIKEN REDUCED ORBITAL CHARGES
--------------------------------
  0 C s       :     2.860490  s :     2.860490
      pz      :     1.041968  p :     2.695710
      px      :     0.942548
      py      :     0.711193
      dz2     :     0.039091  d :     0.363770
      dxz     :     0.240638
      dyz     :     0.012195
      dx2y2   :     0.008948
      dxy     :     0.062899
  1 C s       :     2.576501  s :     2.576501
      pz      :     0.856103  p :     2.543845
      px      :     1.123420
      py      :     0.564322
      dz2     :     0.120176  d :     0.698357
      dxz     :     0.151362
      dyz     :     0.272905
      dx2y2   :     0.071375
      dxy     :     0.082539
  2 C s       :     2.758424  s :     2.758424
      pz      :     1.002421  p :     2.679226
      px      :     0.850179
      py      :     0.826627
      dz2     :     0.040928  d :     0.379202
      dxz     :     0.233793
      dyz     :     0.070574
      dx2y2   :     0.028168
      dxy     :     0.005739
  3 C s       :     2.760609  s :     2.760609
      pz      :     0.959911  p :     2.824568
      px      :     1.074520
      py      :     0.790137
      dz2     :     0.097460  d :     0.206481
      dxz     :     0.044831
      dyz     :    -0.048083
      dx2y2   :     0.039555
      dxy     :     0.072719
  4 H s       :     0.915164  s :     0.915164
      pz      :    -0.022886  p :     0.019919
      px      :     0.021616
      py      :     0.021188
  5 H s       :     0.910150  s :     0.910150
      pz      :     0.042412  p :     0.036603
      px      :    -0.011810
      py      :     0.006001
  6 S s       :     4.979148  s :     4.979148
      pz      :     2.773784  p :     8.809170
      px      :     2.884087
      py      :     3.151300
      dz2     :     0.160501  d :     0.716542
      dxz     :     0.120137
      dyz     :     0.096357
      dx2y2   :     0.188251
      dxy     :     0.151296
  7 C s       :     2.899835  s :     2.899835
      pz      :     0.666701  p :     2.157135
      px      :     0.830560
      py      :     0.659874
      dz2     :    -0.000483  d :    -0.128030
      dxz     :    -0.013461
      dyz     :    -0.215817
      dx2y2   :     0.047098
      dxy     :     0.054633
  8 N s       :     3.187019  s :     3.187019
      pz      :     0.951024  p :     3.620262
      px      :     1.638413
      py      :     1.030825
      dz2     :     0.010338  d :     0.019574
      dxz     :     0.018590
      dyz     :    -0.012220
      dx2y2   :    -0.000631
      dxy     :     0.003499
  9 N s       :     3.364257  s :     3.364257
      pz      :     1.009469  p :     3.659437
      px      :     1.610195
      py      :     1.039772
      dz2     :    -0.008848  d :    -0.000978
      dxz     :     0.007173
      dyz     :    -0.030339
      dx2y2   :     0.008520
      dxy     :     0.022516
 10 H s       :     1.017014  s :     1.017014
      pz      :    -0.029877  p :     0.021857
      px      :     0.041320
      py      :     0.010414
 11 H s       :     1.202142  s :     1.202142
      pz      :    -0.027424  p :     0.069137
      px      :     0.074445
      py      :     0.022116
 12 H s       :     1.858304  s :     1.858304
      pz      :    -0.167954  p :    -0.240133
      px      :     0.051947
      py      :    -0.124125
 13 H s       :     1.203498  s :     1.203498
      pz      :    -0.022549  p :    -0.001533
      px      :     0.063896
      py      :    -0.042879
 14 H s       :     1.166593  s :     1.166593
      pz      :     0.000790  p :     0.045081
      px      :     0.081288
      py      :    -0.036997
 15 O s       :     3.940009  s :     3.940009
      pz      :     1.658207  p :     4.759030
      px      :     1.476270
      py      :     1.624552
      dz2     :     0.006649  d :     0.012759
      dxz     :     0.010621
      dyz     :     0.004798
      dx2y2   :    -0.008661
      dxy     :    -0.000648
 16 O s       :     3.953538  s :     3.953538
      pz      :     1.555460  p :     4.715956
      px      :     1.397625
      py      :     1.762871
      dz2     :     0.009800  d :     0.030086
      dxz     :     0.006155
      dyz     :     0.006084
      dx2y2   :     0.005212
      dxy     :     0.002835
 17 C s       :     2.705807  s :     2.705807
      pz      :     0.793291  p :     2.609717
      px      :     0.936428
      py      :     0.879998
      dz2     :     0.119330  d :     0.355197
      dxz     :     0.044890
      dyz     :     0.034390
      dx2y2   :     0.058817
      dxy     :     0.097769
 18 H s       :     0.871491  s :     0.871491
      pz      :    -0.013328  p :     0.011454
      px      :     0.027653
      py      :    -0.002871
 19 H s       :     1.168630  s :     1.168630
      pz      :     0.016063  p :     0.032037
      px      :    -0.020070
      py      :     0.036044
 20 C s       :     2.849182  s :     2.849182
      pz      :     0.942091  p :     2.685876
      px      :     0.958449
      py      :     0.785336
      dz2     :     0.084442  d :     0.521005
      dxz     :     0.203852
      dyz     :     0.060219
      dx2y2   :     0.038665
      dxy     :     0.133827
 21 C s       :     2.452126  s :     2.452126
      pz      :     0.819171  p :     2.756206
      px      :     0.929456
      py      :     1.007579
      dz2     :     0.053566  d :     0.565185
      dxz     :     0.166064
      dyz     :     0.149966
      dx2y2   :     0.021076
      dxy     :     0.174513
 22 H s       :     0.892999  s :     0.892999
      pz      :     0.006835  p :     0.049139
      px      :     0.017164
      py      :     0.025140
 23 H s       :     1.346141  s :     1.346141
      pz      :     0.029831  p :     0.182296
      px      :    -0.053494
      py      :     0.205959
 24 H s       :     1.066863  s :     1.066863
      pz      :    -0.011871  p :    -0.008035
      px      :    -0.023674
      py      :     0.027509
 25 H s       :     0.850456  s :     0.850456
      pz      :     0.014352  p :     0.048497
      px      :     0.038825
      py      :    -0.004680
 26 C s       :     2.760540  s :     2.760540
      pz      :     0.962903  p :     2.721435
      px      :     0.824122
      py      :     0.934409
      dz2     :     0.156064  d :     0.484820
      dxz     :     0.040954
      dyz     :     0.069251
      dx2y2   :     0.196330
      dxy     :     0.022221
 27 H s       :     1.037517  s :     1.037517
      pz      :     0.052530  p :     0.006983
      px      :    -0.022070
      py      :    -0.023477
 28 H s       :     1.069705  s :     1.069705
      pz      :    -0.036230  p :     0.020491
      px      :     0.012791
      py      :     0.043931
 29 C s       :     2.879346  s :     2.879346
      pz      :     0.819013  p :     2.749173
      px      :     0.984660
      py      :     0.945501
      dz2     :     0.218960  d :     0.512950
      dxz     :     0.003999
      dyz     :    -0.004756
      dx2y2   :     0.198922
      dxy     :     0.095824
 30 H s       :     1.079781  s :     1.079781
      pz      :    -0.027846  p :     0.009464
      px      :     0.055660
      py      :    -0.018349
 31 H s       :     1.007217  s :     1.007217
      pz      :     0.089363  p :     0.026965
      px      :    -0.038009
      py      :    -0.024389
 32 C s       :     2.538368  s :     2.538368
      pz      :     0.933635  p :     2.652708
      px      :     0.805608
      py      :     0.913466
      dz2     :     0.027120  d :     0.235992
      dxz     :     0.052373
      dyz     :     0.117316
      dx2y2   :     0.046716
      dxy     :    -0.007533
 33 H s       :     1.267898  s :     1.267898
      pz      :     0.068331  p :     0.042159
      px      :    -0.018489
      py      :    -0.007684
 34 H s       :     0.841351  s :     0.841351
      pz      :    -0.001836  p :     0.023217
      px      :     0.058448
      py      :    -0.033395
 35 H s       :     0.819369  s :     0.819369
      pz      :     0.008958  p :     0.024762
      px      :     0.030588
      py      :    -0.014784
 36 H s       :     1.292006  s :     1.292006
      pz      :    -0.015581  p :     0.022034
      px      :    -0.003231
      py      :     0.040845
 37 H s       :     1.022044  s :     1.022044
      pz      :     0.005471  p :    -0.006045
      px      :    -0.034970
      py      :     0.023454
 38 H s       :     0.968649  s :     0.968649
      pz      :    -0.021692  p :     0.000147
      px      :     0.034470
      py      :    -0.012632
 39 F s       :     4.010143  s :     4.010143
      pz      :     1.592524  p :     5.561576
      px      :     1.975820
      py      :     1.993233
      dz2     :     0.010315  d :     0.039238
      dxz     :     0.005623
      dyz     :     0.010424
      dx2y2   :     0.004004
      dxy     :     0.008872


                     *******************************
                     * LOEWDIN POPULATION ANALYSIS *
                     *******************************

----------------------
LOEWDIN ATOMIC CHARGES
----------------------
   0 C :   -0.041532
   1 C :   -0.018619
   2 C :   -0.025356
   3 C :   -0.035203
   4 H :    0.026474
   5 H :    0.032455
   6 S :    1.145890
   7 C :   -0.187483
   8 N :    0.210541
   9 N :    0.208107
  10 H :   -0.015724
  11 H :   -0.014933
  12 H :   -0.118270
  13 H :   -0.113615
  14 H :   -0.006782
  15 O :   -0.429686
  16 O :   -0.427491
  17 C :   -0.022798
  18 H :    0.003182
  19 H :    0.000447
  20 C :   -0.025286
  21 C :   -0.021842
  22 H :    0.035997
  23 H :   -0.013847
  24 H :    0.033819
  25 H :    0.026455
  26 C :   -0.023547
  27 H :    0.010763
  28 H :    0.007217
  29 C :   -0.029716
  30 H :    0.020339
  31 H :    0.004346
  32 C :   -0.023096
  33 H :    0.019575
  34 H :    0.001013
  35 H :    0.016894
  36 H :    0.020095
  37 H :    0.016289
  38 H :    0.018827
  39 F :   -0.263899

-------------------------------
LOEWDIN REDUCED ORBITAL CHARGES
-------------------------------
  0 C s       :     2.673450  s :     2.673450
      pz      :     0.915465  p :     2.669250
      px      :     0.880974
      py      :     0.872812
      dz2     :     0.149365  d :     0.698833
      dxz     :     0.196487
      dyz     :     0.127361
      dx2y2   :     0.096468
      dxy     :     0.129152
  1 C s       :     2.664843  s :     2.664843
      pz      :     0.882338  p :     2.715997
      px      :     0.927691
      py      :     0.905969
      dz2     :     0.170203  d :     0.637779
      dxz     :     0.129639
      dyz     :     0.193816
      dx2y2   :     0.060192
      dxy     :     0.083929
  2 C s       :     2.678697  s :     2.678697
      pz      :     0.902767  p :     2.680247
      px      :     0.866726
      py      :     0.910754
      dz2     :     0.148457  d :     0.666412
      dxz     :     0.178764
      dyz     :     0.130433
      dx2y2   :     0.108140
      dxy     :     0.100617
  3 C s       :     2.716273  s :     2.716273
      pz      :     0.943545  p :     2.704024
      px      :     0.939292
      py      :     0.821186
      dz2     :     0.125634  d :     0.614906
      dxz     :     0.101233
      dyz     :     0.070729
      dx2y2   :     0.141564
      dxy     :     0.175747
  4 H s       :     0.720510  s :     0.720510
      pz      :     0.082788  p :     0.253017
      px      :     0.090302
      py      :     0.079926
  5 H s       :     0.711647  s :     0.711647
      pz      :     0.126150  p :     0.255899
      px      :     0.063955
      py      :     0.065794
  6 S s       :     4.659367  s :     4.659367
      pz      :     2.720572  p :     8.385067
      px      :     2.821147
      py      :     2.843348
      dz2     :     0.413982  d :     1.809676
      dxz     :     0.388582
      dyz     :     0.253386
      dx2y2   :     0.395367
      dxy     :     0.358358
  7 C s       :     2.625001  s :     2.625001
      pz      :     0.872707  p :     2.511984
      px      :     0.760072
      py      :     0.879205
      dz2     :     0.238598  d :     1.050498
      dxz     :     0.220605
      dyz     :     0.244580
      dx2y2   :     0.166919
      dxy     :     0.179796
  8 N s       :     2.914234  s :     2.914234
      pz      :     1.058882  p :     3.507095
      px      :     1.380627
      py      :     1.067586
      dz2     :     0.092470  d :     0.368130
      dxz     :     0.085130
      dyz     :     0.146711
      dx2y2   :     0.031247
      dxy     :     0.012572
  9 N s       :     2.933995  s :     2.933995
      pz      :     1.049460  p :     3.511535
      px      :     1.380775
      py      :     1.081300
      dz2     :     0.076814  d :     0.346363
      dxz     :     0.027112
      dyz     :     0.098690
      dx2y2   :     0.071632
      dxy     :     0.072115
 10 H s       :     0.646432  s :     0.646432
      pz      :     0.155911  p :     0.369291
      px      :     0.124180
      py      :     0.089201
 11 H s       :     0.670210  s :     0.670210
      pz      :     0.101193  p :     0.344722
      px      :     0.123709
      py      :     0.119820
 12 H s       :     0.704487  s :     0.704487
      pz      :     0.109495  p :     0.413783
      px      :     0.142100
      py      :     0.162189
 13 H s       :     0.605661  s :     0.605661
      pz      :     0.114011  p :     0.507954
      px      :     0.132159
      py      :     0.261783
 14 H s       :     0.669242  s :     0.669242
      pz      :     0.090977  p :     0.337540
      px      :     0.126980
      py      :     0.119582
 15 O s       :     3.523002  s :     3.523002
      pz      :     1.564026  p :     4.614743
      px      :     1.494402
      py      :     1.556316
      dz2     :     0.044703  d :     0.291941
      dxz     :     0.048871
      dyz     :     0.040546
      dx2y2   :     0.089464
      dxy     :     0.068356
 16 O s       :     3.567886  s :     3.567886
      pz      :     1.507640  p :     4.617371
      px      :     1.492953
      py      :     1.616778
      dz2     :     0.044702  d :     0.242234
      dxz     :     0.065912
      dyz     :     0.019606
      dx2y2   :     0.053829
      dxy     :     0.058186
 17 C s       :     2.690683  s :     2.690683
      pz      :     0.890275  p :     2.665535
      px      :     0.892237
      py      :     0.883023
      dz2     :     0.162784  d :     0.666580
      dxz     :     0.089641
      dyz     :     0.082543
      dx2y2   :     0.143606
      dxy     :     0.188006
 18 H s       :     0.723908  s :     0.723908
      pz      :     0.074839  p :     0.272910
      px      :     0.079679
      py      :     0.118392
 19 H s       :     0.731890  s :     0.731890
      pz      :     0.081487  p :     0.267662
      px      :     0.069919
      py      :     0.116256
 20 C s       :     2.684545  s :     2.684545
      pz      :     0.886992  p :     2.668953
      px      :     0.883614
      py      :     0.898347
      dz2     :     0.156923  d :     0.671789
      dxz     :     0.171006
      dyz     :     0.117622
      dx2y2   :     0.095896
      dxy     :     0.130342
 21 C s       :     2.675199  s :     2.675199
      pz      :     0.863084  p :     2.661405
      px      :     0.895761
      py      :     0.902560
      dz2     :     0.161911  d :     0.685239
      dxz     :     0.162429
      dyz     :     0.128734
      dx2y2   :     0.085921
      dxy     :     0.146244
 22 H s       :     0.727335  s :     0.727335
      pz      :     0.067535  p :     0.236668
      px      :     0.076354
      py      :     0.092779
 23 H s       :     0.703432  s :     0.703432
      pz      :     0.088111  p :     0.310415
      px      :     0.087241
      py      :     0.135063
 24 H s       :     0.724727  s :     0.724727
      pz      :     0.064622  p :     0.241455
      px      :     0.063814
      py      :     0.113019
 25 H s       :     0.707176  s :     0.707176
      pz      :     0.070097  p :     0.266368
      px      :     0.088998
      py      :     0.107274
 26 C s       :     2.683868  s :     2.683868
      pz      :     0.903094  p :     2.662461
      px      :     0.889652
      py      :     0.869715
      dz2     :     0.169115  d :     0.677218
      dxz     :     0.047306
      dyz     :     0.142781
      dx2y2   :     0.190896
      dxy     :     0.127120
 27 H s       :     0.736742  s :     0.736742
      pz      :     0.124661  p :     0.252495
      px      :     0.061634
      py      :     0.066200
 28 H s       :     0.730493  s :     0.730493
      pz      :     0.079240  p :     0.262290
      px      :     0.078710
      py      :     0.104340
 29 C s       :     2.684152  s :     2.684152
      pz      :     0.892010  p :     2.665269
      px      :     0.898615
      py      :     0.874644
      dz2     :     0.173504  d :     0.680295
      dxz     :     0.045921
      dyz     :     0.125835
      dx2y2   :     0.192975
      dxy     :     0.142061
 30 H s       :     0.734053  s :     0.734053
      pz      :     0.065300  p :     0.245608
      px      :     0.119898
      py      :     0.060410
 31 H s       :     0.711661  s :     0.711661
      pz      :     0.125703  p :     0.283993
      px      :     0.081926
      py      :     0.076365
 32 C s       :     2.688370  s :     2.688370
      pz      :     0.882064  p :     2.675058
      px      :     0.900741
      py      :     0.892253
      dz2     :     0.152684  d :     0.659669
      dxz     :     0.108907
      dyz     :     0.183907
      dx2y2   :     0.124444
      dxy     :     0.089726
 33 H s       :     0.733571  s :     0.733571
      pz      :     0.119197  p :     0.246854
      px      :     0.066070
      py      :     0.061587
 34 H s       :     0.718680  s :     0.718680
      pz      :     0.083506  p :     0.280307
      px      :     0.125691
      py      :     0.071109
 35 H s       :     0.718855  s :     0.718855
      pz      :     0.077347  p :     0.264252
      px      :     0.076196
      py      :     0.110708
 36 H s       :     0.735389  s :     0.735389
      pz      :     0.064910  p :     0.244516
      px      :     0.067014
      py      :     0.112593
 37 H s       :     0.734875  s :     0.734875
      pz      :     0.071803  p :     0.248837
      px      :     0.080382
      py      :     0.096651
 38 H s       :     0.733340  s :     0.733340
      pz      :     0.062635  p :     0.247833
      px      :     0.120562
      py      :     0.064636
 39 F s       :     3.677468  s :     3.677468
      pz      :     1.613966  p :     5.291704
      px      :     1.849402
      py      :     1.828336
      dz2     :     0.090352  d :     0.294726
      dxz     :     0.076052
      dyz     :     0.075789
      dx2y2   :     0.014022
      dxy     :     0.038512


                      *****************************
                      * MAYER POPULATION ANALYSIS *
                      *****************************

  NA   - Mulliken gross atomic population
  ZA   - Total nuclear charge
  QA   - Mulliken gross atomic charge
  VA   - Mayer's total valence
  BVA  - Mayer's bonded valence
  FA   - Mayer's free valence

  ATOM       NA         ZA         QA         VA         BVA        FA
  0 C      5.9200     6.0000     0.0800     5.1701     5.1701    -0.0000
  1 C      5.8187     6.0000     0.1813     3.7085     3.7085    -0.0000
  2 C      5.8169     6.0000     0.1831     4.6827     4.6827     0.0000
  3 C      5.7917     6.0000     0.2083     4.2734     4.2734     0.0000
  4 H      0.9351     1.0000     0.0649     0.9961     0.9961     0.0000
  5 H      0.9468     1.0000     0.0532     1.0896     1.0896     0.0000
  6 S     14.5049    16.0000     1.4951     4.6632     4.6632    -0.0000
  7 C      4.9289     6.0000     1.0711     2.3829     2.3829    -0.0000
  8 N      6.8269     7.0000     0.1731     3.8507     3.8507    -0.0000
  9 N      7.0227     7.0000    -0.0227     3.7281     3.7281    -0.0000
 10 H      1.0389     1.0000    -0.0389     0.9017     0.9017    -0.0000
 11 H      1.2713     1.0000    -0.2713     0.9878     0.9878    -0.0000
 12 H      1.6182     1.0000    -0.6182     0.1196     0.1196     0.0000
 13 H      1.2020     1.0000    -0.2020     0.8320     0.8320    -0.0000
 14 H      1.2117     1.0000    -0.2117     0.9136     0.9136    -0.0000
 15 O      8.7118     8.0000    -0.7118     1.6036     1.6036    -0.0000
 16 O      8.6996     8.0000    -0.6996     1.6923     1.6923     0.0000
 17 C      5.6707     6.0000     0.3293     4.5853     4.5853     0.0000
 18 H      0.8829     1.0000     0.1171     0.9843     0.9843    -0.0000
 19 H      1.2007     1.0000    -0.2007     1.0667     1.0667    -0.0000
 20 C      6.0561     6.0000    -0.0561     5.0493     5.0493    -0.0000
 21 C      5.7735     6.0000     0.2265     4.7362     4.7362     0.0000
 22 H      0.9421     1.0000     0.0579     1.0683     1.0683    -0.0000
 23 H      1.5284     1.0000    -0.5284     1.3829     1.3829     0.0000
 24 H      1.0588     1.0000    -0.0588     1.0009     1.0009     0.0000
 25 H      0.8990     1.0000     0.1010     1.0910     1.0910    -0.0000
 26 C      5.9668     6.0000     0.0332     4.9569     4.9569    -0.0000
 27 H      1.0445     1.0000    -0.0445     1.0222     1.0222    -0.0000
 28 H      1.0902     1.0000    -0.0902     1.0246     1.0246     0.0000
 29 C      6.1415     6.0000    -0.1415     5.1050     5.1050    -0.0000
 30 H      1.0892     1.0000    -0.0892     1.0272     1.0272    -0.0000
 31 H      1.0342     1.0000    -0.0342     1.1522     1.1522    -0.0000
 32 C      5.4271     6.0000     0.5729     4.0162     4.0162    -0.0000
 33 H      1.3101     1.0000    -0.3101     1.1488     1.1488    -0.0000
 34 H      0.8646     1.0000     0.1354     1.0528     1.0528     0.0000
 35 H      0.8441     1.0000     0.1559     1.0347     1.0347    -0.0000
 36 H      1.3140     1.0000    -0.3140     1.1156     1.1156    -0.0000
 37 H      1.0160     1.0000    -0.0160     1.0013     1.0013    -0.0000
 38 H      0.9688     1.0000     0.0312     0.9945     0.9945    -0.0000
 39 F      9.6110     9.0000    -0.6110     1.0413     1.0413     0.0000

  Mayer bond orders larger than 0.100000
B(  0-C ,  1-C ) :   1.1505 B(  0-C , 12-H ) :   0.7909 B(  0-C , 17-C ) :   1.1072 
B(  0-C , 18-H ) :   0.7048 B(  0-C , 19-H ) :   0.9301 B(  0-C , 27-H ) :   0.1849 
B(  0-C , 28-H ) :   0.1663 B(  0-C , 30-H ) :  -0.1004 B(  1-C ,  7-C ) :   1.5859 
B(  1-C ,  8-N ) :   0.3662 B(  1-C ,  9-N ) :   0.3310 B(  1-C , 10-H ) :  -0.1128 
B(  1-C , 12-H ) :  -0.3674 B(  1-C , 17-C ) :   0.1082 B(  1-C , 18-H ) :   0.3315 
B(  1-C , 19-H ) :   0.1848 B(  2-C ,  3-C ) :   1.2460 B(  2-C ,  5-H ) :   0.2351 
B(  2-C , 20-C ) :   0.1184 B(  2-C , 21-C ) :   1.1529 B(  2-C , 24-H ) :   0.8184 
B(  2-C , 25-H ) :   0.8685 B(  3-C ,  4-H ) :   0.9130 B(  3-C ,  5-H ) :   0.7253 
B(  3-C ,  6-S ) :   0.9460 B(  3-C , 16-O ) :   0.1081 B(  3-C , 21-C ) :   0.1204 
B(  3-C , 25-H ) :   0.1090 B(  6-S , 15-O ) :   1.3776 B(  6-S , 16-O ) :   1.4229 
B(  6-S , 39-F ) :   0.6569 B(  7-C ,  8-N ) :   0.7645 B(  7-C ,  9-N ) :   0.7801 
B(  7-C , 11-H ) :  -0.1895 B(  7-C , 12-H ) :  -0.1325 B(  7-C , 13-H ) :  -0.2457 
B(  7-C , 14-H ) :  -0.1827 B(  8-N ,  9-N ) :   0.1144 B(  8-N , 13-H ) :   1.1561 
B(  8-N , 14-H ) :   1.3710 B(  9-N , 10-H ) :   1.0637 B(  9-N , 11-H ) :   1.3554 
B( 10-H , 11-H ) :  -0.1860 B( 11-H , 12-H ) :  -0.1106 B( 12-H , 18-H ) :  -0.1680 
B( 12-H , 39-F ) :   0.1758 B( 13-H , 14-H ) :  -0.2571 B( 16-O , 39-F ) :   0.1083 
B( 17-C , 18-H ) :   0.1243 B( 17-C , 26-C ) :   1.2961 B( 17-C , 27-H ) :   0.8151 
B( 17-C , 28-H ) :   0.7278 B( 17-C , 30-H ) :   0.1091 B( 17-C , 31-H ) :   0.1610 
B( 18-H , 19-H ) :  -0.1048 B( 20-C , 21-C ) :   1.2362 B( 20-C , 22-H ) :   0.1060 
B( 20-C , 23-H ) :   0.1458 B( 20-C , 29-C ) :   0.1329 B( 20-C , 32-C ) :   1.1451 
B( 20-C , 35-H ) :   0.8437 B( 20-C , 36-H ) :   0.9843 B( 20-C , 37-H ) :   0.1123 
B( 20-C , 38-H ) :   0.2016 B( 21-C , 22-H ) :   0.7238 B( 21-C , 23-H ) :   0.7905 
B( 21-C , 24-H ) :   0.1802 B( 21-C , 36-H ) :   0.1846 B( 22-H , 23-H ) :   0.2228 
B( 23-H , 34-H ) :   0.1144 B( 26-C , 27-H ) :   0.1311 B( 26-C , 28-H ) :   0.2047 
B( 26-C , 29-C ) :   1.2184 B( 26-C , 30-H ) :   0.8425 B( 26-C , 31-H ) :   0.8908 
B( 26-C , 33-H ) :   0.1325 B( 29-C , 30-H ) :   0.1332 B( 29-C , 32-C ) :   1.1334 
B( 29-C , 33-H ) :   1.0409 B( 29-C , 34-H ) :   0.8398 B( 29-C , 37-H ) :   0.2650 
B( 29-C , 38-H ) :   0.1330 B( 32-C , 37-H ) :   0.6909 B( 32-C , 38-H ) :   0.7103 


-------
TIMINGS
-------

Total SCF time: 0 days 0 hours 1 min 53 sec 

Total time                  ....     113.522 sec
Sum of individual times     ....     112.648 sec  ( 99.2%)

Fock matrix formation       ....     106.554 sec  ( 93.9%)
  Split-RI-J                ....      22.185 sec  ( 20.8% of F)
  XC integration            ....      84.052 sec  ( 78.9% of F)
    Basis function eval.    ....      10.732 sec  ( 12.8% of XC)
    Density eval.           ....      36.241 sec  ( 43.1% of XC)
    XC-Functional eval.     ....       1.946 sec  (  2.3% of XC)
    XC-Potential eval.      ....      32.058 sec  ( 38.1% of XC)
Diagonalization             ....       0.721 sec  (  0.6%)
Density matrix formation    ....       0.068 sec  (  0.1%)
Population analysis         ....       0.087 sec  (  0.1%)
Initial guess               ....       1.524 sec  (  1.3%)
Orbital Transformation      ....       0.000 sec  (  0.0%)
Orbital Orthonormalization  ....       0.000 sec  (  0.0%)
DIIS solution               ....       0.402 sec  (  0.4%)
SOSCF solution              ....       0.876 sec  (  0.8%)
Grid generation             ....       2.417 sec  (  2.1%)

Maximum memory used throughout the entire SCF-calculation: 97.8 MB


-------------------------------------------------------------------------------
                          DFT DISPERSION CORRECTION                            
                                                                               
                              DFTD3 V3.1  Rev 1                                
                          USING Becke-Johnson damping                          
-------------------------------------------------------------------------------
The TPSS functional is recognized
Active option DFTDOPT                   ...         4   

molecular C6(AA) [au] = 13763.795335 


            DFT-D V3
 parameters
 s6 scaling factor         :     1.0000 
 a1 scaling factor         :     0.4535 
 s8 scaling factor         :     1.9435 
 a2 scaling factor         :     4.4752 
 ad hoc parameters k1-k3   :    16.0000     1.3333    -4.0000 

 Edisp/kcal,au: -38.153886385731  -0.060802081710 
 E6   /kcal   : -19.929731442 
 E8   /kcal   : -18.224154944 
 % E8         :  47.764871866 

-------------------------   ----------------
Dispersion correction           -0.060802082
-------------------------   ----------------


-------------------------   --------------------
FINAL SINGLE POINT ENERGY     -1190.435809572507
-------------------------   --------------------


                            ***************************************
                            *     ORCA property calculations      *
                            ***************************************

                                    ---------------------
                                    Active property flags
                                    ---------------------
   (+) Dipole Moment


------------------------------------------------------------------------------
                       ORCA ELECTRIC PROPERTIES CALCULATION
------------------------------------------------------------------------------

Dipole Moment Calculation                       ... on
Quadrupole Moment Calculation                   ... off
Polarizability Calculation                      ... off
GBWName                                         ... 28Oct_SVPD_TPSS_D7_wb97.gbw
Electron density file                           ... 28Oct_SVPD_TPSS_D7_wb97.scfp
The origin for moment calculation is the CENTER OF MASS  = ( 8.550773, -1.056590 -8.835577)

-------------
DIPOLE MOMENT
-------------
                                X             Y             Z
Electronic contribution:    -18.42379       4.05605     -18.05837
Nuclear contribution   :     18.74089      -4.92611      17.99644
                        -----------------------------------------
Total Dipole Moment    :      0.31711      -0.87006      -0.06193
                        -----------------------------------------
Magnitude (a.u.)       :      0.92811
Magnitude (Debye)      :      2.35907



--------------------
Rotational spectrum 
--------------------
 
Rotational constants in cm-1:     0.014210     0.012324     0.007480 
Rotational constants in MHz :   425.991442   369.455467   224.259162 

 Dipole components along the rotational axes: 
x,y,z [a.u.] :    -0.200954     0.884087    -0.198495 
x,y,z [Debye]:    -0.510784     2.247171    -0.504534 

 

Timings for individual modules:

Sum of individual times         ...      114.859 sec (=   1.914 min)
GTO integral calculation        ...        0.967 sec (=   0.016 min)   0.8 %
SCF iterations                  ...      113.893 sec (=   1.898 min)  99.2 %
                             ****ORCA TERMINATED NORMALLY****
TOTAL RUN TIME: 0 days 0 hours 1 minutes 55 seconds 516 msec
