
                                        *****************
                                        * O   R   C   A *
                                        *****************

                                            #,                                       
                                            ###                                      
                                            ####                                     
                                            #####                                    
                                            ######                                   
                                           ########,                                 
                                     ,,################,,,,,                         
                               ,,#################################,,                 
                          ,,##########################################,,             
                       ,#########################################, ''#####,          
                    ,#############################################,,   '####,        
                  ,##################################################,,,,####,       
                ,###########''''           ''''###############################       
              ,#####''   ,,,,##########,,,,          '''####'''          '####       
            ,##' ,,,,###########################,,,                        '##       
           ' ,,###''''                  '''############,,,                           
         ,,##''                                '''############,,,,        ,,,,,,###''
      ,#''                                            '''#######################'''  
     '                                                          ''''####''''         
             ,#######,   #######,   ,#######,      ##                                
            ,#'     '#,  ##    ##  ,#'     '#,    #''#        ######   ,####,        
            ##       ##  ##   ,#'  ##            #'  '#       #        #'  '#        
            ##       ##  #######   ##           ,######,      #####,   #    #        
            '#,     ,#'  ##    ##  '#,     ,#' ,#      #,         ##   #,  ,#        
             '#######'   ##     ##  '#######'  #'      '#     #####' # '####'        



                  #######################################################
                  #                        -***-                        #
                  #          Department of theory and spectroscopy      #
                  #    Directorship and core code : Frank Neese         #
                  #        Max Planck Institute fuer Kohlenforschung    #
                  #                Kaiser Wilhelm Platz 1               #
                  #                 D-45470 Muelheim/Ruhr               #
                  #                      Germany                        #
                  #                                                     #
                  #                  All rights reserved                #
                  #                        -***-                        #
                  #######################################################


                         Program Version 5.0.0 -  RELEASE  -
                                (SVN: $Rev: 19529$)
                ($Date: 2021-06-28 11:36:33 +0200 (Mo, 28 Jun 2021) $)


 With contributions from (in alphabetic order):
   Daniel Aravena         : Magnetic Suceptibility
   Michael Atanasov       : Ab Initio Ligand Field Theory (pilot matlab implementation)
   Alexander A. Auer      : GIAO ZORA, VPT2 properties, NMR spectrum
   Ute Becker             : Parallelization
   Giovanni Bistoni       : ED, misc. LED, open-shell LED, HFLD
   Martin Brehm           : Molecular dynamics
   Dmytro Bykov           : SCF Hessian
   Vijay G. Chilkuri      : MRCI spin determinant printing, contributions to CSF-ICE
   Dipayan Datta          : RHF DLPNO-CCSD density
   Achintya Kumar Dutta   : EOM-CC, STEOM-CC
   Dmitry Ganyushin       : Spin-Orbit,Spin-Spin,Magnetic field MRCI
   Miquel Garcia          : C-PCM Hessian, Gaussian charge scheme
   Yang Guo               : DLPNO-NEVPT2, F12-NEVPT2, CIM, IAO-localization
   Andreas Hansen         : Spin unrestricted coupled pair/coupled cluster methods
   Benjamin Helmich-Paris : MC-RPA, TRAH-SCF, COSX integrals
   Lee Huntington         : MR-EOM, pCC
   Robert Izsak           : Overlap fitted RIJCOSX, COSX-SCS-MP3, EOM
   Marcus Kettner         : VPT2
   Christian Kollmar      : KDIIS, OOCD, Brueckner-CCSD(T), CCSD density, CASPT2, CASPT2-K
   Simone Kossmann        : Meta GGA functionals, TD-DFT gradient, OOMP2, MP2 Hessian
   Martin Krupicka        : Initial AUTO-CI
   Lucas Lang             : DCDCAS
   Marvin Lechner         : AUTO-CI (C++ implementation), FIC-MRCC
   Dagmar Lenk            : GEPOL surface, SMD
   Dimitrios Liakos       : Extrapolation schemes; Compound Job, initial MDCI parallelization
   Dimitrios Manganas     : Further ROCIS development; embedding schemes
   Dimitrios Pantazis     : SARC Basis sets
   Anastasios Papadopoulos: AUTO-CI, single reference methods and gradients
   Taras Petrenko         : DFT Hessian,TD-DFT gradient, ASA, ECA, R-Raman, ABS, FL, XAS/XES, NRVS
   Peter Pinski           : DLPNO-MP2, DLPNO-MP2 Gradient
   Christoph Reimann      : Effective Core Potentials
   Marius Retegan         : Local ZFS, SOC
   Christoph Riplinger    : Optimizer, TS searches, QM/MM, DLPNO-CCSD(T), (RO)-DLPNO pert. Triples
   Tobias Risthaus        : Range-separated hybrids, TD-DFT gradient, RPA, STAB
   Michael Roemelt        : Original ROCIS implementation
   Masaaki Saitow         : Open-shell DLPNO-CCSD energy and density
   Barbara Sandhoefer     : DKH picture change effects
   Avijit Sen             : IP-ROCIS
   Kantharuban Sivalingam : CASSCF convergence, NEVPT2, FIC-MRCI
   Bernardo de Souza      : ESD, SOC TD-DFT
   Georgi Stoychev        : AutoAux, RI-MP2 NMR
   Willem Van den Heuvel  : Paramagnetic NMR
   Boris Wezisla          : Elementary symmetry handling
   Frank Wennmohs         : Technical directorship


 We gratefully acknowledge several colleagues who have allowed us to
 interface, adapt or use parts of their codes:
   Stefan Grimme, W. Hujo, H. Kruse, P. Pracht,  : VdW corrections, initial TS optimization,
                  C. Bannwarth, S. Ehlert          DFT functionals, gCP, sTDA/sTD-DF
   Ed Valeev, F. Pavosevic, A. Kumar             : LibInt (2-el integral package), F12 methods
   Garnet Chan, S. Sharma, J. Yang, R. Olivares  : DMRG
   Ulf Ekstrom                                   : XCFun DFT Library
   Mihaly Kallay                                 : mrcc  (arbitrary order and MRCC methods)
   Jiri Pittner, Ondrej Demel                    : Mk-CCSD
   Frank Weinhold                                : gennbo (NPA and NBO analysis)
   Christopher J. Cramer and Donald G. Truhlar   : smd solvation model
   Lars Goerigk                                  : TD-DFT with DH, B97 family of functionals
   V. Asgeirsson, H. Jonsson                     : NEB implementation
   FAccTs GmbH                                   : IRC, NEB, NEB-TS, DLPNO-Multilevel, CI-OPT
                                                   MM, QMMM, 2- and 3-layer-ONIOM, Crystal-QMMM,
                                                   LR-CPCM, SF, NACMEs, symmetry and pop. for TD-DFT,
                                                   nearIR, NL-DFT gradient (VV10), updates on ESD,
                                                   ML-optimized integration grids
   S Lehtola, MJT Oliveira, MAL Marques          : LibXC Library
   Liviu Ungur et al                             : ANISO software


 Your calculation uses the libint2 library for the computation of 2-el integrals
 For citations please refer to: http://libint.valeyev.net

 Your ORCA version has been built with support for libXC version: 5.1.0
 For citations please refer to: https://tddft.org/programs/libxc/

 This ORCA versions uses:
   CBLAS   interface :  Fast vector & matrix operations
   LAPACKE interface :  Fast linear algebra routines
   SCALAPACK package :  Parallel linear algebra routines
   Shared memory     :  Shared parallel matrices
   BLAS/LAPACK       :  OpenBLAS 0.3.15  USE64BITINT DYNAMIC_ARCH NO_AFFINITY Haswell SINGLE_THREADED
        Core in use  :  Haswell
   Copyright (c) 2011-2014, The OpenBLAS Project


Your calculation utilizes the atom-pairwise dispersion correction
with the zero-damping scheme (D30)
Cite in your paper:
S.Grimme, J.Antony, S.Ehrlich and H.Krieg, J.Chem.Phys., 132, (2010), 154104 
   

XCFun DFT library Copyright 2009-2010 Ulf Ekstrom and contributors.
See http://admol.org/xcfun for more information.
This is free software; see the source code for copying conditions.
There is ABSOLUTELY NO WARRANTY; not even for MERCHANTABILITY or FITNESS FOR A PARTICULAR PURPOSE.
For details see the documentation.
Scientific users of this library should cite U. Ekstrom, L. Visscher, R. Bast, A. J. Thorvaldsen and K. Ruud;
J.Chem.Theor.Comp. 2010, DOI: 10.1021/ct100117s
XCFun Version 0.99 

================================================================================

----- Orbital basis set information -----
Your calculation utilizes the basis: def2-TZVP
   F. Weigend and R. Ahlrichs, Phys. Chem. Chem. Phys. 7, 3297 (2005).

----- AuxJ basis set information -----
Your calculation utilizes the auxiliary basis: def2/J
   F. Weigend, Phys. Chem. Chem. Phys. 8, 1057 (2006).

================================================================================
                                        WARNINGS
                       Please study these warnings very carefully!
================================================================================


INFO   : the flag for use of the SHARK integral package has been found!

================================================================================
                                       INPUT FILE
================================================================================
NAME = C1_pos.com
|  1> !wB97X-D3 RIJCOSX def2-TZVP def2/J TightSCF 
|  2> *xyz 0 1
|  3> C          3.34350        3.35457       -3.59200
|  4> C          4.25587        3.70385       -4.72605
|  5> C          3.73403        4.29378       -5.80077
|  6> N          5.51504        3.40725       -4.63718
|  7> H          6.14919        3.60120       -5.39905
|  8> H          5.81358        2.89950       -3.80879
|  9> H          2.74138        4.51311       -5.82470
| 10> H          4.28755        4.52126       -6.61434
| 11> H          2.34726        3.66659       -3.82664
| 12> H          3.67283        3.85124       -2.70331
| 13> H          3.35820        2.29620       -3.43538
| 14> *
| 15> %MaxCore 64000
| 16> 
| 17> %pal nprocs 18
| 18> end  
| 19> 
| 20> %scf
| 21>   MaxIter 150
| 22> end
| 23> 
| 24> 
| 25>                          ****END OF INPUT****
================================================================================

                       ****************************
                       * Single Point Calculation *
                       ****************************

---------------------------------
CARTESIAN COORDINATES (ANGSTROEM)
---------------------------------
  C      3.343500    3.354570   -3.592000
  C      4.255870    3.703850   -4.726050
  C      3.734030    4.293780   -5.800770
  N      5.515040    3.407250   -4.637180
  H      6.149190    3.601200   -5.399050
  H      5.813580    2.899500   -3.808790
  H      2.741380    4.513110   -5.824700
  H      4.287550    4.521260   -6.614340
  H      2.347260    3.666590   -3.826640
  H      3.672830    3.851240   -2.703310
  H      3.358200    2.296200   -3.435380

----------------------------
CARTESIAN COORDINATES (A.U.)
----------------------------
  NO LB      ZA    FRAG     MASS         X           Y           Z
   0 C     6.0000    0    12.011    6.318299    6.339219   -6.787896
   1 C     6.0000    0    12.011    8.042429    6.999262   -8.930940
   2 C     6.0000    0    12.011    7.056294    8.114068  -10.961867
   3 N     7.0000    0    14.007   10.421915    6.438769   -8.763000
   4 H     1.0000    0     1.008   11.620285    6.805282  -10.202726
   5 H     1.0000    0     1.008   10.986074    5.479261   -7.197570
   6 H     1.0000    0     1.008    5.180457    8.528542  -11.007088
   7 H     1.0000    0     1.008    8.102295    8.543943  -12.499291
   8 H     1.0000    0     1.008    4.435679    6.928851   -7.231302
   9 H     1.0000    0     1.008    6.940643    7.277789   -5.108516
  10 H     1.0000    0     1.008    6.346078    4.339189   -6.491927

--------------------------------
INTERNAL COORDINATES (ANGSTROEM)
--------------------------------
 C      0   0   0     0.000000000000     0.00000000     0.00000000
 C      1   0   0     1.496824952291     0.00000000     0.00000000
 C      2   1   0     1.332425408381   118.40448313     0.00000000
 N      2   1   3     1.296679808511   119.11756322   180.93967520
 H      4   2   1     1.010053821289   120.93448605   177.85655544
 H      4   2   1     1.016447827584   117.08626586     3.23412400
 H      3   2   1     1.016873795660   119.78818998     1.33777590
 H      3   2   1     1.009964200207   122.33170643   182.52570636
 H      1   2   3     1.070003059622   109.47101416   359.06065387
 H      1   2   3     1.070004324244   109.47127607   239.06029127
 H      1   2   3     1.069996715556   109.47139586   119.06020561

---------------------------
INTERNAL COORDINATES (A.U.)
---------------------------
 C      0   0   0     0.000000000000     0.00000000     0.00000000
 C      1   0   0     2.828589230249     0.00000000     0.00000000
 C      2   1   0     2.517919115719   118.40448313     0.00000000
 N      2   1   3     2.450369721471   119.11756322   180.93967520
 H      4   2   1     1.908725102756   120.93448605   177.85655544
 H      4   2   1     1.920808023553   117.08626586     3.23412400
 H      3   2   1     1.921612986558   119.78818998     1.33777590
 H      3   2   1     1.908555743456   122.33170643   182.52570636
 H      1   2   3     2.022012745143   109.47101416   359.06065387
 H      1   2   3     2.022015134932   109.47127607   239.06029127
 H      1   2   3     2.022000756596   109.47139586   119.06020561

---------------------
BASIS SET INFORMATION
---------------------
There are 3 groups of distinct atoms

 Group   1 Type C   : 11s6p2d1f contracted to 5s3p2d1f pattern {62111/411/11/1}
 Group   2 Type N   : 11s6p2d1f contracted to 5s3p2d1f pattern {62111/411/11/1}
 Group   3 Type H   : 5s1p contracted to 3s1p pattern {311/1}

Atom   0C    basis set group =>   1
Atom   1C    basis set group =>   1
Atom   2C    basis set group =>   1
Atom   3N    basis set group =>   2
Atom   4H    basis set group =>   3
Atom   5H    basis set group =>   3
Atom   6H    basis set group =>   3
Atom   7H    basis set group =>   3
Atom   8H    basis set group =>   3
Atom   9H    basis set group =>   3
Atom  10H    basis set group =>   3
---------------------------------
AUXILIARY/J BASIS SET INFORMATION
---------------------------------
There are 3 groups of distinct atoms

 Group   1 Type C   : 12s5p4d2f1g contracted to 6s4p3d1f1g pattern {711111/2111/211/2/1}
 Group   2 Type N   : 12s5p4d2f1g contracted to 6s4p3d1f1g pattern {711111/2111/211/2/1}
 Group   3 Type H   : 5s2p1d contracted to 3s1p1d pattern {311/2/1}

Atom   0C    basis set group =>   1
Atom   1C    basis set group =>   1
Atom   2C    basis set group =>   1
Atom   3N    basis set group =>   2
Atom   4H    basis set group =>   3
Atom   5H    basis set group =>   3
Atom   6H    basis set group =>   3
Atom   7H    basis set group =>   3
Atom   8H    basis set group =>   3
Atom   9H    basis set group =>   3
Atom  10H    basis set group =>   3


           ************************************************************
           *        Program running with 18 parallel MPI-processes    *
           *              working on a common directory               *
           ************************************************************
------------------------------------------------------------------------------
                           ORCA GTO INTEGRAL CALCULATION
                           -- RI-GTO INTEGRALS CHOSEN --
------------------------------------------------------------------------------
------------------------------------------------------------------------------
                   ___                                                        
                  /   \      - P O W E R E D   B Y -                         
                 /     \                                                     
                 |  |  |   _    _      __       _____    __    __             
                 |  |  |  | |  | |    /  \     |  _  \  |  |  /  |          
                  \  \/   | |  | |   /    \    | | | |  |  | /  /          
                 / \  \   | |__| |  /  /\  \   | |_| |  |  |/  /          
                |  |  |   |  __  | /  /__\  \  |    /   |      \           
                |  |  |   | |  | | |   __   |  |    \   |  |\   \          
                \     /   | |  | | |  |  |  |  | |\  \  |  | \   \       
                 \___/    |_|  |_| |__|  |__|  |_| \__\ |__|  \__/        
                                                                              
                      - O R C A' S   B I G   F R I E N D -                    
                                      &                                       
                       - I N T E G R A L  F E E D E R -                       
                                                                              
 v1 FN, 2020, v2 2021                                                         
------------------------------------------------------------------------------


Reading SHARK input file C1_pos.SHARKINP.tmp ... ok
----------------------
SHARK INTEGRAL PACKAGE
----------------------

Number of atoms                             ...     11
Number of basis functions                   ...    166
Number of shells                            ...     72
Maximum angular momentum                    ...      3
Integral batch strategy                     ... SHARK/LIBINT Hybrid
RI-J (if used) integral strategy            ... SPLIT-RIJ (Revised 2003 algorithm where possible)
Printlevel                                  ...      1
Contraction scheme used                     ... SEGMENTED contraction
Coulomb Range Separation                    ... NOT USED
Exchange Range Separation                   ... Long Range
   Mu parameter                             ...  0.250000
   Scaling (regular/separated)              ...  0.195728  0.804272
Finite Nucleus Model                        ... NOT USED
Auxiliary Coulomb fitting basis             ... AVAILABLE
   # of basis functions in Aux-J            ...    273
   # of shells in Aux-J                     ...     95
   Maximum angular momentum in Aux-J        ...      4
Auxiliary J/K fitting basis                 ... NOT available
Auxiliary Correlation fitting basis         ... NOT available
Auxiliary 'external' fitting basis          ... NOT available
Integral threshold                          ...     2.500000e-11
Primitive cut-off                           ...     2.500000e-12
Primitive pair pre-selection threshold      ...     2.500000e-12

Calculating pre-screening integrals         ... done (  0.1 sec) Dimension = 72
Organizing shell pair data                  ... done (  0.0 sec)
Shell pair information
Total number of shell pairs                 ...      2628
Shell pairs after pre-screening             ...      2580
Total number of primitive shell pairs       ...      7612
Primitive shell pairs kept                  ...      6163
          la=0 lb=0:    821 shell pairs
          la=1 lb=0:    772 shell pairs
          la=1 lb=1:    190 shell pairs
          la=2 lb=0:    327 shell pairs
          la=2 lb=1:    152 shell pairs
          la=2 lb=2:     36 shell pairs
          la=3 lb=0:    164 shell pairs
          la=3 lb=1:     76 shell pairs
          la=3 lb=2:     32 shell pairs
          la=3 lb=3:     10 shell pairs

Calculating one electron integrals          ... done (  0.0 sec)
Calculating RI/J V-Matrix + Cholesky decomp.... done (  0.0 sec)
Calculating Nuclear repulsion               ... done (  0.0 sec) ENN=    124.629517299598 Eh

SHARK setup successfully completed in   0.2 seconds

Maximum memory used throughout the entire GTOINT-calculation: 13.8 MB


           ************************************************************
           *        Program running with 18 parallel MPI-processes    *
           *              working on a common directory               *
           ************************************************************
-------------------------------------------------------------------------------
                                 ORCA SCF
-------------------------------------------------------------------------------

------------
SCF SETTINGS
------------
Hamiltonian:
 Density Functional     Method          .... DFT(GTOs)
 Exchange Functional    Exchange        .... WB97X-D3
 Correlation Functional Correlation     .... WB97X-D3
 Gradients option       PostSCFGGA      .... off
 Hybrid DFT is turned on
   Fraction HF Exchange ScalHFX         ....  0.195728
   Scaling of DF-GGA-X  ScalDFX         ....  0.000000
   Scaling of DF-GGA-C  ScalDFC         ....  1.000000
   Scaling of DF-LDA-C  ScalLDAC        ....  1.000000
   Perturbative correction              ....  0.000000
   Density functional embedding theory  .... OFF
 Long-range corrected/Screened/Range-Separated Hybrid DFT is turned on
   Amount of maximum screened exact exchange              ....  0.804272
   Range separation parameter mu (erf(mu*r12)/r12)        ....  0.250000
 RI-approximation to the Coulomb term is turned on
   Number of AuxJ basis functions       .... 273
   RIJ-COSX (HFX calculated with COS-X)).... on


General Settings:
 Integral files         IntName         .... C1_pos
 Hartree-Fock type      HFTyp           .... RHF
 Total Charge           Charge          ....    0
 Multiplicity           Mult            ....    1
 Number of Electrons    NEL             ....   32
 Basis Dimension        Dim             ....  166
 Nuclear Repulsion      ENuc            ....    124.6295172996 Eh

Convergence Acceleration:
 DIIS                   CNVDIIS         .... on
   Start iteration      DIISMaxIt       ....    12
   Startup error        DIISStart       ....  0.200000
   # of expansion vecs  DIISMaxEq       ....     5
   Bias factor          DIISBfac        ....   1.050
   Max. coefficient     DIISMaxC        ....  10.000
 Trust-Rad. Augm. Hess. CNVTRAH         .... auto
   Auto Start mean grad. ratio tolernc. ....  1.125000
   Auto Start start iteration           ....    20
   Auto Start num. interpolation iter.  ....    10
   Max. Number of Micro iterations      ....    16
   Max. Number of Macro iterations      .... Maxiter - #DIIS iter
   Number of Davidson start vectors     ....     2
   Converg. threshold I  (grad. norm)   ....   1.000e-05
   Converg. threshold II (energy diff.) ....   1.000e-08
   Grad. Scal. Fac. for Micro threshold ....   0.100
   Minimum threshold for Micro iter.    ....   0.010
   NR start threshold (gradient norm)   ....   0.001
   Initial trust radius                 ....   0.400
   Minimum AH scaling param. (alpha)    ....   1.000
   Maximum AH scaling param. (alpha)    .... 1000.000
   Orbital update algorithm             .... Taylor
   White noise on init. David. guess    .... on
   Maximum white noise                  ....   0.010
   Quad. conv. algorithm                .... NR
 SOSCF                  CNVSOSCF        .... on
   Start iteration      SOSCFMaxIt      ....   150
   Startup grad/error   SOSCFStart      ....  0.003300
 Level Shifting         CNVShift        .... on
   Level shift para.    LevelShift      ....    0.2500
   Turn off err/grad.   ShiftErr        ....    0.0010
 Zerner damping         CNVZerner       .... off
 Static damping         CNVDamp         .... on
   Fraction old density DampFac         ....    0.7000
   Max. Damping (<1)    DampMax         ....    0.9800
   Min. Damping (>=0)   DampMin         ....    0.0000
   Turn off err/grad.   DampErr         ....    0.1000
 Fernandez-Rico         CNVRico         .... off

SCF Procedure:
 Maximum # iterations   MaxIter         ....   150
 SCF integral mode      SCFMode         .... Direct
   Integral package                     .... SHARK and LIBINT hybrid scheme
 Reset frequency        DirectResetFreq ....    20
 Integral Threshold     Thresh          ....  2.500e-11 Eh
 Primitive CutOff       TCut            ....  2.500e-12 Eh

Convergence Tolerance:
 Convergence Check Mode ConvCheckMode   .... Total+1el-Energy
 Convergence forced     ConvForced      .... 0
 Energy Change          TolE            ....  1.000e-08 Eh
 1-El. energy change                    ....  1.000e-05 Eh
 Orbital Gradient       TolG            ....  1.000e-05
 Orbital Rotation angle TolX            ....  1.000e-05
 DIIS Error             TolErr          ....  5.000e-07


Diagonalization of the overlap matrix:
Smallest eigenvalue                        ... 1.359e-04
Time for diagonalization                   ...    0.008 sec
Threshold for overlap eigenvalues          ... 1.000e-08
Number of eigenvalues below threshold      ... 0
Time for construction of square roots      ...    0.012 sec
Total time needed                          ...    0.021 sec

Time for model grid setup =    0.049 sec

------------------------------
INITIAL GUESS: MODEL POTENTIAL
------------------------------
Loading Hartree-Fock densities                     ... done
Calculating cut-offs                               ... done
Initializing the effective Hamiltonian             ... done
Setting up the integral package (SHARK)            ... done
Starting the Coulomb interaction                   ... done (   0.0 sec)
Reading the grid                                   ... done
Mapping shells                                     ... done
Starting the XC term evaluation                    ... done (   0.0 sec)
  promolecular density results
     # of electrons  =     31.996962938
     EX              =    -24.002737084
     EC              =     -1.035815274
     EX+EC           =    -25.038552357
Transforming the Hamiltonian                       ... done (   0.0 sec)
Diagonalizing the Hamiltonian                      ... done (   0.0 sec)
Back transforming the eigenvectors                 ... done (   0.0 sec)
Now organizing SCF variables                       ... done
                      ------------------
                      INITIAL GUESS DONE (   0.1 sec)
                      ------------------
-------------------
DFT GRID GENERATION
-------------------

General Integration Accuracy     IntAcc      ... 4.388
Radial Grid Type                 RadialGrid  ... OptM3 with GC (2021)
Angular Grid (max. ang.)         AngularGrid ... 4 (Lebedev-302)
Angular grid pruning method      GridPruning ... 4 (adaptive)
Weight generation scheme         WeightScheme... Becke
Basis function cutoff            BFCut       ... 1.0000e-11
Integration weight cutoff        WCut        ... 1.0000e-14
Angular grids for H and He will be reduced by one unit
Partially contracted basis set               ... off
Rotationally invariant grid construction     ... off

Total number of grid points                  ...    46898
Total number of batches                      ...      738
Average number of points per batch           ...       63
Average number of grid points per atom       ...     4263
Time for grid setup =    0.311 sec

--------------------
COSX GRID GENERATION
--------------------

GRIDX 1
-------
General Integration Accuracy     IntAcc      ... 3.816
Radial Grid Type                 RadialGrid  ... OptM3 with GC (2021)
Angular Grid (max. ang.)         AngularGrid ... 1 (Lebedev-50)
Angular grid pruning method      GridPruning ... 4 (adaptive)
Weight generation scheme         WeightScheme... Becke
Basis function cutoff            BFCut       ... 1.0000e-11
Integration weight cutoff        WCut        ... 1.0000e-14
Angular grids for H and He will be reduced by one unit
Partially contracted basis set               ... on
Rotationally invariant grid construction     ... off

Total number of grid points                  ...     6060
Total number of batches                      ...      101
Average number of points per batch           ...       60
Average number of grid points per atom       ...      551
UseSFitting                                  ... on

GRIDX 2
-------
General Integration Accuracy     IntAcc      ... 4.020
Radial Grid Type                 RadialGrid  ... OptM3 with GC (2021)
Angular Grid (max. ang.)         AngularGrid ... 2 (Lebedev-110)
Angular grid pruning method      GridPruning ... 4 (adaptive)
Weight generation scheme         WeightScheme... Becke
Basis function cutoff            BFCut       ... 1.0000e-11
Integration weight cutoff        WCut        ... 1.0000e-14
Angular grids for H and He will be reduced by one unit
Partially contracted basis set               ... on
Rotationally invariant grid construction     ... off

Total number of grid points                  ...    12764
Total number of batches                      ...      206
Average number of points per batch           ...       61
Average number of grid points per atom       ...     1160
UseSFitting                                  ... on

GRIDX 3
-------
General Integration Accuracy     IntAcc      ... 4.338
Radial Grid Type                 RadialGrid  ... OptM3 with GC (2021)
Angular Grid (max. ang.)         AngularGrid ... 3 (Lebedev-194)
Angular grid pruning method      GridPruning ... 4 (adaptive)
Weight generation scheme         WeightScheme... Becke
Basis function cutoff            BFCut       ... 1.0000e-11
Integration weight cutoff        WCut        ... 1.0000e-14
Angular grids for H and He will be reduced by one unit
Partially contracted basis set               ... on
Rotationally invariant grid construction     ... off

Total number of grid points                  ...    28005
Total number of batches                      ...      445
Average number of points per batch           ...       62
Average number of grid points per atom       ...     2546
UseSFitting                                  ... on

Time for X-Grid setup             =    0.204 sec

--------------
SCF ITERATIONS
--------------
ITER       Energy         Delta-E        Max-DP      RMS-DP      [F,P]     Damp
               ***  Starting incremental Fock matrix formation  ***
  0   -173.0493270195   0.000000000000 0.04243748  0.00115728  0.2340014 0.7000
  1   -173.1375820105  -0.088254990982 0.02833734  0.00089949  0.1337968 0.7000
                               ***Turning on DIIS***
  2   -173.1831883584  -0.045606347906 0.05495429  0.00183449  0.0663251 0.0000
  3   -173.2542173946  -0.071029036258 0.02319765  0.00054899  0.0566005 0.0000
  4   -173.2656751409  -0.011457746297 0.00418899  0.00013973  0.0103371 0.0000
  5   -173.2660317378  -0.000356596918 0.00169930  0.00005637  0.0034948 0.0000
                      *** Initiating the SOSCF procedure ***
                           *** Shutting down DIIS ***
                      *** Re-Reading the Fockian *** 
                      *** Removing any level shift *** 
ITER      Energy       Delta-E        Grad      Rot      Max-DP    RMS-DP
  6   -173.26606212  -0.0000303805  0.000547  0.000547  0.000909  0.000039
               *** Restarting incremental Fock matrix formation ***
  7   -173.26606042   0.0000016982  0.000212  0.000520  0.000583  0.000019
  8   -173.26606104  -0.0000006216  0.000063  0.000331  0.000307  0.000011
  9   -173.26606115  -0.0000001132  0.000036  0.000048  0.000112  0.000003
 10   -173.26606118  -0.0000000262  0.000015  0.000038  0.000030  0.000001
 11   -173.26606118  -0.0000000004  0.000003  0.000005  0.000006  0.000000
                 **** Energy Check signals convergence ****
              ***Rediagonalizing the Fockian in SOSCF/NRSCF***

               *****************************************************
               *                     SUCCESS                       *
               *           SCF CONVERGED AFTER  12 CYCLES          *
               *****************************************************

Old exchange energy                            =     -8.272182257 Eh
New exchange energy                            =     -8.272183500 Eh
Exchange energy change after final integration =     -0.000001243 Eh
Total energy after final integration           =   -173.266062426 Eh
Final COS-X integration done in                =     0.714 sec

----------------
TOTAL SCF ENERGY
----------------

Total Energy       :         -173.26606243 Eh           -4714.80925 eV

Components:
Nuclear Repulsion  :          124.62951730 Eh            3391.34158 eV
Electronic Energy  :         -297.89557973 Eh           -8106.15083 eV
One Electron Energy:         -479.07870989 Eh          -13036.39445 eV
Two Electron Energy:          181.18313016 Eh            4930.24362 eV
Max COSX asymmetry :            0.00000072 Eh               0.00002 eV

Virial components:
Potential Energy   :         -346.22737244 Eh           -9421.32578 eV
Kinetic Energy     :          172.96131001 Eh            4706.51652 eV
Virial Ratio       :            2.00176197


DFT components:
N(Alpha)           :       15.999991856545 electrons
N(Beta)            :       15.999991856545 electrons
N(Total)           :       31.999983713090 electrons
E(XC)              :      -17.648535765142 Eh       
DFET-embed. en.    :        0.000000000000 Eh       

---------------
SCF CONVERGENCE
---------------

  Last Energy change         ...   -1.2534e-09  Tolerance :   1.0000e-08
  Last MAX-Density change    ...    9.9920e-16  Tolerance :   1.0000e-07
  Last RMS-Density change    ...    2.1572e-17  Tolerance :   5.0000e-09
  Last Orbital Gradient      ...    1.2703e-06  Tolerance :   1.0000e-05
  Last Orbital Rotation      ...    4.1532e-06  Tolerance :   1.0000e-05

             **** THE GBW FILE WAS UPDATED (C1_pos.gbw) ****
             **** DENSITY C1_pos.scfp WAS UPDATED ****
             **** ENERGY FILE WAS UPDATED (C1_pos.en.tmp) ****
             **** THE GBW FILE WAS UPDATED (C1_pos.gbw) ****
             **** DENSITY C1_pos.scfp WAS UPDATED ****
----------------
ORBITAL ENERGIES
----------------

  NO   OCC          E(Eh)            E(eV) 
   0   2.0000     -14.422488      -392.4558 
   1   2.0000     -10.297453      -280.2079 
   2   2.0000     -10.262589      -279.2593 
   3   2.0000     -10.201482      -277.5964 
   4   2.0000      -1.053676       -28.6720 
   5   2.0000      -0.871114       -23.7042 
   6   2.0000      -0.799099       -21.7446 
   7   2.0000      -0.680172       -18.5084 
   8   2.0000      -0.634343       -17.2614 
   9   2.0000      -0.574457       -15.6318 
  10   2.0000      -0.534730       -14.5507 
  11   2.0000      -0.493579       -13.4310 
  12   2.0000      -0.486957       -13.2508 
  13   2.0000      -0.444361       -12.0917 
  14   2.0000      -0.435839       -11.8598 
  15   2.0000      -0.274357        -7.4656 
  16   0.0000       0.109728         2.9859 
  17   0.0000       0.134105         3.6492 
  18   0.0000       0.153116         4.1665 
  19   0.0000       0.167927         4.5695 
  20   0.0000       0.185468         5.0468 
  21   0.0000       0.212659         5.7867 
  22   0.0000       0.214360         5.8330 
  23   0.0000       0.225559         6.1378 
  24   0.0000       0.250032         6.8037 
  25   0.0000       0.273373         7.4389 
  26   0.0000       0.300974         8.1899 
  27   0.0000       0.331379         9.0173 
  28   0.0000       0.335718         9.1354 
  29   0.0000       0.362019         9.8510 
  30   0.0000       0.391036        10.6406 
  31   0.0000       0.398522        10.8443 
  32   0.0000       0.421112        11.4591 
  33   0.0000       0.427888        11.6434 
  34   0.0000       0.467039        12.7088 
  35   0.0000       0.477700        12.9989 
  36   0.0000       0.511738        13.9251 
  37   0.0000       0.515311        14.0223 
  38   0.0000       0.552461        15.0332 
  39   0.0000       0.555173        15.1070 
  40   0.0000       0.570529        15.5249 
  41   0.0000       0.574477        15.6323 
  42   0.0000       0.586370        15.9559 
  43   0.0000       0.606665        16.5082 
  44   0.0000       0.629277        17.1235 
  45   0.0000       0.679306        18.4848 
  46   0.0000       0.695276        18.9194 
  47   0.0000       0.730317        19.8729 
  48   0.0000       0.747876        20.3507 
  49   0.0000       0.777486        21.1565 
  50   0.0000       0.811378        22.0787 
  51   0.0000       0.871579        23.7169 
  52   0.0000       0.915024        24.8991 
  53   0.0000       0.939206        25.5571 
  54   0.0000       1.020433        27.7674 
  55   0.0000       1.048815        28.5397 
  56   0.0000       1.065666        28.9982 
  57   0.0000       1.084215        29.5030 
  58   0.0000       1.110710        30.2240 
  59   0.0000       1.135888        30.9091 
  60   0.0000       1.175131        31.9770 
  61   0.0000       1.216213        33.0948 
  62   0.0000       1.290478        35.1157 
  63   0.0000       1.309055        35.6212 
  64   0.0000       1.369438        37.2643 
  65   0.0000       1.405657        38.2499 
  66   0.0000       1.422104        38.6974 
  67   0.0000       1.553106        42.2622 
  68   0.0000       1.557542        42.3829 
  69   0.0000       1.579572        42.9823 
  70   0.0000       1.610806        43.8323 
  71   0.0000       1.627474        44.2858 
  72   0.0000       1.643819        44.7306 
  73   0.0000       1.672255        45.5044 
  74   0.0000       1.686237        45.8848 
  75   0.0000       1.703832        46.3636 
  76   0.0000       1.722022        46.8586 
  77   0.0000       1.754126        47.7322 
  78   0.0000       1.781331        48.4725 
  79   0.0000       1.821370        49.5620 
  80   0.0000       1.880115        51.1605 
  81   0.0000       1.918368        52.2014 
  82   0.0000       1.964411        53.4544 
  83   0.0000       1.997008        54.3413 
  84   0.0000       2.008103        54.6432 
  85   0.0000       2.039270        55.4913 
  86   0.0000       2.066447        56.2309 
  87   0.0000       2.163853        58.8814 
  88   0.0000       2.171385        59.0864 
  89   0.0000       2.195556        59.7441 
  90   0.0000       2.211062        60.1661 
  91   0.0000       2.238203        60.9046 
  92   0.0000       2.351382        63.9843 
  93   0.0000       2.425064        65.9894 
  94   0.0000       2.451531        66.7096 
  95   0.0000       2.464603        67.0653 
  96   0.0000       2.497836        67.9696 
  97   0.0000       2.539862        69.1132 
  98   0.0000       2.550565        69.4044 
  99   0.0000       2.569268        69.9133 
 100   0.0000       2.637556        71.7715 
 101   0.0000       2.657277        72.3082 
 102   0.0000       2.676607        72.8342 
 103   0.0000       2.722386        74.0799 
 104   0.0000       2.773926        75.4824 
 105   0.0000       2.800651        76.2096 
 106   0.0000       2.837681        77.2172 
 107   0.0000       2.855700        77.7076 
 108   0.0000       2.881245        78.4027 
 109   0.0000       2.967036        80.7372 
 110   0.0000       3.015747        82.0627 
 111   0.0000       3.030433        82.4623 
 112   0.0000       3.055850        83.1539 
 113   0.0000       3.097406        84.2847 
 114   0.0000       3.114171        84.7409 
 115   0.0000       3.127027        85.0907 
 116   0.0000       3.169639        86.2503 
 117   0.0000       3.244090        88.2762 
 118   0.0000       3.263492        88.8041 
 119   0.0000       3.313599        90.1676 
 120   0.0000       3.344159        90.9992 
 121   0.0000       3.364920        91.5641 
 122   0.0000       3.376257        91.8726 
 123   0.0000       3.403015        92.6007 
 124   0.0000       3.408190        92.7416 
 125   0.0000       3.431277        93.3698 
 126   0.0000       3.444451        93.7283 
 127   0.0000       3.517822        95.7248 
 128   0.0000       3.526211        95.9531 
 129   0.0000       3.546720        96.5111 
 130   0.0000       3.656078        99.4869 
 131   0.0000       3.724410       101.3463 
 132   0.0000       3.780695       102.8780 
 133   0.0000       3.858171       104.9862 
 134   0.0000       3.903056       106.2075 
 135   0.0000       3.940433       107.2246 
 136   0.0000       3.958060       107.7043 
 137   0.0000       4.025873       109.5496 
 138   0.0000       4.122949       112.1911 
 139   0.0000       4.132446       112.4496 
 140   0.0000       4.272668       116.2652 
 141   0.0000       4.348081       118.3173 
 142   0.0000       4.439622       120.8083 
 143   0.0000       4.480346       121.9164 
 144   0.0000       4.504409       122.5712 
 145   0.0000       4.549988       123.8115 
 146   0.0000       4.614235       125.5597 
 147   0.0000       4.627106       125.9100 
 148   0.0000       4.667450       127.0078 
 149   0.0000       4.780179       130.0753 
 150   0.0000       4.876555       132.6978 
 151   0.0000       4.952814       134.7729 
 152   0.0000       4.958093       134.9166 
 153   0.0000       5.012334       136.3925 
 154   0.0000       5.151134       140.1695 
 155   0.0000       5.311853       144.5429 
 156   0.0000       5.347315       145.5078 
 157   0.0000       5.405682       147.0961 
 158   0.0000       5.478081       149.0662 
 159   0.0000       5.636459       153.3758 
 160   0.0000       5.863425       159.5519 
 161   0.0000       6.128857       166.7747 
 162   0.0000      22.550401       613.6276 
 163   0.0000      22.696160       617.5939 
 164   0.0000      23.350278       635.3934 
 165   0.0000      32.153127       874.9311 

                    ********************************
                    * MULLIKEN POPULATION ANALYSIS *
                    ********************************

-----------------------
MULLIKEN ATOMIC CHARGES
-----------------------
   0 C :   -0.345232
   1 C :    0.230315
   2 C :   -0.453442
   3 N :   -0.482478
   4 H :    0.247123
   5 H :    0.244416
   6 H :    0.101325
   7 H :    0.098430
   8 H :    0.120368
   9 H :    0.120099
  10 H :    0.119075
Sum of atomic charges:   -0.0000000

--------------------------------
MULLIKEN REDUCED ORBITAL CHARGES
--------------------------------
  0 C s       :     3.268158  s :     3.268158
      pz      :     0.975609  p :     3.025174
      px      :     1.004756
      py      :     1.044809
      dz2     :     0.015907  d :     0.048890
      dxz     :     0.006381
      dyz     :     0.011008
      dx2y2   :     0.011045
      dxy     :     0.004549
      f0      :     0.000475  f :     0.003010
      f+1     :     0.000620
      f-1     :     0.000448
      f+2     :     0.000647
      f-2     :     0.000260
      f+3     :     0.000114
      f-3     :     0.000445
  1 C s       :     3.066012  s :     3.066012
      pz      :     0.906385  p :     2.520084
      px      :     0.746990
      py      :     0.866709
      dz2     :     0.037557  d :     0.168993
      dxz     :     0.042435
      dyz     :     0.019851
      dx2y2   :     0.032608
      dxy     :     0.036542
      f0      :     0.002990  f :     0.014596
      f+1     :     0.001417
      f-1     :     0.001027
      f+2     :     0.002997
      f-2     :     0.001339
      f+3     :     0.002249
      f-3     :     0.002577
  2 C s       :     3.250772  s :     3.250772
      pz      :     0.955257  p :     3.160889
      px      :     1.035564
      py      :     1.170069
      dz2     :     0.011702  d :     0.036613
      dxz     :     0.006253
      dyz     :     0.007577
      dx2y2   :     0.007276
      dxy     :     0.003805
      f0      :     0.001072  f :     0.005168
      f+1     :     0.000782
      f-1     :     0.000622
      f+2     :     0.001228
      f-2     :     0.000493
      f+3     :     0.000618
      f-3     :     0.000353
  3 N s       :     3.442555  s :     3.442555
      pz      :     1.242507  p :     3.996414
      px      :     1.153735
      py      :     1.600172
      dz2     :     0.003891  d :     0.039809
      dxz     :     0.016133
      dyz     :     0.004089
      dx2y2   :     0.007117
      dxy     :     0.008580
      f0      :     0.000245  f :     0.003700
      f+1     :     0.000456
      f-1     :     0.000606
      f+2     :     0.000738
      f-2     :     0.000404
      f+3     :     0.000616
      f-3     :     0.000637
  4 H s       :     0.716106  s :     0.716106
      pz      :     0.014239  p :     0.036771
      px      :     0.010953
      py      :     0.011579
  5 H s       :     0.718917  s :     0.718917
      pz      :     0.015602  p :     0.036668
      px      :     0.006455
      py      :     0.014610
  6 H s       :     0.872825  s :     0.872825
      pz      :     0.004678  p :     0.025850
      px      :     0.013269
      py      :     0.007904
  7 H s       :     0.876505  s :     0.876505
      pz      :     0.010844  p :     0.025065
      px      :     0.006534
      py      :     0.007687
  8 H s       :     0.857103  s :     0.857103
      pz      :     0.004781  p :     0.022529
      px      :     0.012547
      py      :     0.005201
  9 H s       :     0.858005  s :     0.858005
      pz      :     0.010622  p :     0.021895
      px      :     0.005021
      py      :     0.006252
 10 H s       :     0.859055  s :     0.859055
      pz      :     0.004853  p :     0.021869
      px      :     0.004371
      py      :     0.012645


                     *******************************
                     * LOEWDIN POPULATION ANALYSIS *
                     *******************************

----------------------
LOEWDIN ATOMIC CHARGES
----------------------
   0 C :   -0.244393
   1 C :   -0.394889
   2 C :   -0.290344
   3 N :    0.004382
   4 H :    0.177528
   5 H :    0.177113
   6 H :    0.102762
   7 H :    0.093485
   8 H :    0.131423
   9 H :    0.121401
  10 H :    0.121532

-------------------------------
LOEWDIN REDUCED ORBITAL CHARGES
-------------------------------
  0 C s       :     2.803734  s :     2.803734
      pz      :     1.044200  p :     3.165477
      px      :     1.056340
      py      :     1.064937
      dz2     :     0.072064  d :     0.249468
      dxz     :     0.044210
      dyz     :     0.047428
      dx2y2   :     0.064715
      dxy     :     0.021052
      f0      :     0.003673  f :     0.025714
      f+1     :     0.004460
      f-1     :     0.004655
      f+2     :     0.003220
      f-2     :     0.004614
      f+3     :     0.001441
      f-3     :     0.003651
  1 C s       :     2.712847  s :     2.712847
      pz      :     1.030469  p :     2.855846
      px      :     0.961585
      py      :     0.863792
      dz2     :     0.146804  d :     0.731780
      dxz     :     0.199797
      dyz     :     0.080819
      dx2y2   :     0.140947
      dxy     :     0.163414
      f0      :     0.018985  f :     0.094416
      f+1     :     0.011432
      f-1     :     0.008148
      f+2     :     0.015190
      f-2     :     0.010053
      f+3     :     0.013423
      f-3     :     0.017184
  2 C s       :     2.803118  s :     2.803118
      pz      :     1.066045  p :     3.230116
      px      :     1.039977
      py      :     1.124093
      dz2     :     0.070110  d :     0.228490
      dxz     :     0.066048
      dyz     :     0.033386
      dx2y2   :     0.032814
      dxy     :     0.026132
      f0      :     0.004829  f :     0.028620
      f+1     :     0.005431
      f-1     :     0.004933
      f+2     :     0.004902
      f-2     :     0.004259
      f+3     :     0.002444
      f-3     :     0.001821
  3 N s       :     2.949207  s :     2.949207
      pz      :     1.195939  p :     3.867668
      px      :     1.210660
      py      :     1.461069
      dz2     :     0.016591  d :     0.165853
      dxz     :     0.072662
      dyz     :     0.011779
      dx2y2   :     0.030098
      dxy     :     0.034724
      f0      :     0.001468  f :     0.012891
      f+1     :     0.001529
      f-1     :     0.001666
      f+2     :     0.002197
      f-2     :     0.000927
      f+3     :     0.002672
      f-3     :     0.002433
  4 H s       :     0.715265  s :     0.715265
      pz      :     0.044142  p :     0.107207
      px      :     0.030229
      py      :     0.032836
  5 H s       :     0.716792  s :     0.716792
      pz      :     0.046594  p :     0.106095
      px      :     0.018044
      py      :     0.041457
  6 H s       :     0.821796  s :     0.821796
      pz      :     0.015918  p :     0.075442
      px      :     0.035919
      py      :     0.023606
  7 H s       :     0.830017  s :     0.830017
      pz      :     0.029673  p :     0.076497
      px      :     0.023025
      py      :     0.023800
  8 H s       :     0.805420  s :     0.805420
      pz      :     0.014592  p :     0.063157
      px      :     0.032478
      py      :     0.016087
  9 H s       :     0.814078  s :     0.814078
      pz      :     0.028470  p :     0.064521
      px      :     0.016579
      py      :     0.019472
 10 H s       :     0.813999  s :     0.813999
      pz      :     0.014826  p :     0.064469
      px      :     0.014491
      py      :     0.035152


                      *****************************
                      * MAYER POPULATION ANALYSIS *
                      *****************************

  NA   - Mulliken gross atomic population
  ZA   - Total nuclear charge
  QA   - Mulliken gross atomic charge
  VA   - Mayer's total valence
  BVA  - Mayer's bonded valence
  FA   - Mayer's free valence

  ATOM       NA         ZA         QA         VA         BVA        FA
  0 C      6.3452     6.0000    -0.3452     3.9053     3.9053    -0.0000
  1 C      5.7697     6.0000     0.2303     3.8095     3.8095    -0.0000
  2 C      6.4534     6.0000    -0.4534     3.8526     3.8526    -0.0000
  3 N      7.4825     7.0000    -0.4825     3.0930     3.0930    -0.0000
  4 H      0.7529     1.0000     0.2471     0.9487     0.9487    -0.0000
  5 H      0.7556     1.0000     0.2444     0.9454     0.9454    -0.0000
  6 H      0.8987     1.0000     0.1013     0.9949     0.9949    -0.0000
  7 H      0.9016     1.0000     0.0984     0.9944     0.9944     0.0000
  8 H      0.8796     1.0000     0.1204     0.9871     0.9871     0.0000
  9 H      0.8799     1.0000     0.1201     0.9636     0.9636    -0.0000
 10 H      0.8809     1.0000     0.1191     0.9637     0.9637    -0.0000

  Mayer bond orders larger than 0.100000
B(  0-C ,  1-C ) :   0.9442 B(  0-C ,  8-H ) :   0.9906 B(  0-C ,  9-H ) :   0.9734 
B(  0-C , 10-H ) :   0.9690 B(  1-C ,  2-C ) :   1.7368 B(  1-C ,  3-N ) :   1.1865 
B(  2-C ,  6-H ) :   0.9979 B(  2-C ,  7-H ) :   0.9999 B(  3-N ,  4-H ) :   0.9166 
B(  3-N ,  5-H ) :   0.9221 

-------
TIMINGS
-------

Total SCF time: 0 days 0 hours 0 min 8 sec 

Total time                  ....       8.037 sec
Sum of individual times     ....       7.798 sec  ( 97.0%)

Fock matrix formation       ....       6.989 sec  ( 87.0%)
  Split-RI-J                ....       0.590 sec  (  8.4% of F)
  Chain of spheres X        ....       5.472 sec  ( 78.3% of F)
  XC integration            ....       0.870 sec  ( 12.4% of F)
    Basis function eval.    ....       0.244 sec  ( 28.1% of XC)
    Density eval.           ....       0.162 sec  ( 18.7% of XC)
    XC-Functional eval.     ....       0.072 sec  (  8.3% of XC)
    XC-Potential eval.      ....       0.224 sec  ( 25.7% of XC)
Diagonalization             ....       0.078 sec  (  1.0%)
Density matrix formation    ....       0.008 sec  (  0.1%)
Population analysis         ....       0.008 sec  (  0.1%)
Initial guess               ....       0.061 sec  (  0.8%)
Orbital Transformation      ....       0.000 sec  (  0.0%)
Orbital Orthonormalization  ....       0.000 sec  (  0.0%)
DIIS solution               ....       0.052 sec  (  0.6%)
SOSCF solution              ....       0.038 sec  (  0.5%)
Grid generation             ....       0.564 sec  (  7.0%)

Maximum memory used throughout the entire SCF-calculation: 64.5 MB


-------------------------------------------------------------------------------
                          DFT DISPERSION CORRECTION                            
                                                                               
                              DFTD3 V3.1  Rev 1                                
                              USING zero damping                               
-------------------------------------------------------------------------------
The omegaB97X-D3 functional is recognized. Fit by Chai et al.
Active option DFTDOPT                   ...         3   

molecular C6(AA) [au] = 933.708181 


            DFT-D V3
 parameters
 s6 scaling factor         :     1.0000 
 rs6 scaling factor        :     1.2810 
 s8 scaling factor         :     1.0000 
 rs8 scaling factor        :     1.0940 
 Damping factor alpha6     :    14.0000 
 Damping factor alpha8     :    16.0000 
 ad hoc parameters k1-k3   :    16.0000     1.3333    -4.0000 

 Edisp/kcal,au: -1.051949358445  -0.001676387831 
 E6   /kcal   :  -0.395412611 
 E8   /kcal   :  -0.656536748 
 % E8         :  62.411440463 

-------------------------   ----------------
Dispersion correction           -0.001676388
-------------------------   ----------------


-------------------------   --------------------
FINAL SINGLE POINT ENERGY      -173.267738813499
-------------------------   --------------------


                            ***************************************
                            *     ORCA property calculations      *
                            ***************************************

                                    ---------------------
                                    Active property flags
                                    ---------------------
   (+) Dipole Moment


------------------------------------------------------------------------------
                       ORCA ELECTRIC PROPERTIES CALCULATION
------------------------------------------------------------------------------

Dipole Moment Calculation                       ... on
Quadrupole Moment Calculation                   ... off
Polarizability Calculation                      ... off
GBWName                                         ... C1_pos.gbw
Electron density file                           ... C1_pos.scfp
The origin for moment calculation is the CENTER OF MASS  = ( 8.008617,  6.938148 -8.817108)

-------------
DIPOLE MOMENT
-------------
                                X             Y             Z
Electronic contribution:      1.80240      -0.06838      -0.52108
Nuclear contribution   :     -1.20871      -0.33119       0.98382
                        -----------------------------------------
Total Dipole Moment    :      0.59370      -0.39958       0.46273
                        -----------------------------------------
Magnitude (a.u.)       :      0.85221
Magnitude (Debye)      :      2.16614



--------------------
Rotational spectrum 
--------------------
 
Rotational constants in cm-1:     0.348453     0.308655     0.168735 
Rotational constants in MHz : 10446.369928  9253.232733  5058.539653 

 Dipole components along the rotational axes: 
x,y,z [a.u.] :     0.057116     0.848174    -0.059966 
x,y,z [Debye]:     0.145177     2.155887    -0.152422 

 

Timings for individual modules:

Sum of individual times         ...        9.136 sec (=   0.152 min)
GTO integral calculation        ...        0.684 sec (=   0.011 min)   7.5 %
SCF iterations                  ...        8.452 sec (=   0.141 min)  92.5 %
                             ****ORCA TERMINATED NORMALLY****
TOTAL RUN TIME: 0 days 0 hours 0 minutes 9 seconds 683 msec
