
                                        *****************
                                        * O   R   C   A *
                                        *****************

                                            #,                                       
                                            ###                                      
                                            ####                                     
                                            #####                                    
                                            ######                                   
                                           ########,                                 
                                     ,,################,,,,,                         
                               ,,#################################,,                 
                          ,,##########################################,,             
                       ,#########################################, ''#####,          
                    ,#############################################,,   '####,        
                  ,##################################################,,,,####,       
                ,###########''''           ''''###############################       
              ,#####''   ,,,,##########,,,,          '''####'''          '####       
            ,##' ,,,,###########################,,,                        '##       
           ' ,,###''''                  '''############,,,                           
         ,,##''                                '''############,,,,        ,,,,,,###''
      ,#''                                            '''#######################'''  
     '                                                          ''''####''''         
             ,#######,   #######,   ,#######,      ##                                
            ,#'     '#,  ##    ##  ,#'     '#,    #''#        ######   ,####,        
            ##       ##  ##   ,#'  ##            #'  '#       #        #'  '#        
            ##       ##  #######   ##           ,######,      #####,   #    #        
            '#,     ,#'  ##    ##  '#,     ,#' ,#      #,         ##   #,  ,#        
             '#######'   ##     ##  '#######'  #'      '#     #####' # '####'        



                  #######################################################
                  #                        -***-                        #
                  #          Department of theory and spectroscopy      #
                  #    Directorship and core code : Frank Neese         #
                  #        Max Planck Institute fuer Kohlenforschung    #
                  #                Kaiser Wilhelm Platz 1               #
                  #                 D-45470 Muelheim/Ruhr               #
                  #                      Germany                        #
                  #                                                     #
                  #                  All rights reserved                #
                  #                        -***-                        #
                  #######################################################


                         Program Version 5.0.0 -  RELEASE  -
                                (SVN: $Rev: 19529$)
                ($Date: 2021-06-28 11:36:33 +0200 (Mo, 28 Jun 2021) $)


 With contributions from (in alphabetic order):
   Daniel Aravena         : Magnetic Suceptibility
   Michael Atanasov       : Ab Initio Ligand Field Theory (pilot matlab implementation)
   Alexander A. Auer      : GIAO ZORA, VPT2 properties, NMR spectrum
   Ute Becker             : Parallelization
   Giovanni Bistoni       : ED, misc. LED, open-shell LED, HFLD
   Martin Brehm           : Molecular dynamics
   Dmytro Bykov           : SCF Hessian
   Vijay G. Chilkuri      : MRCI spin determinant printing, contributions to CSF-ICE
   Dipayan Datta          : RHF DLPNO-CCSD density
   Achintya Kumar Dutta   : EOM-CC, STEOM-CC
   Dmitry Ganyushin       : Spin-Orbit,Spin-Spin,Magnetic field MRCI
   Miquel Garcia          : C-PCM Hessian, Gaussian charge scheme
   Yang Guo               : DLPNO-NEVPT2, F12-NEVPT2, CIM, IAO-localization
   Andreas Hansen         : Spin unrestricted coupled pair/coupled cluster methods
   Benjamin Helmich-Paris : MC-RPA, TRAH-SCF, COSX integrals
   Lee Huntington         : MR-EOM, pCC
   Robert Izsak           : Overlap fitted RIJCOSX, COSX-SCS-MP3, EOM
   Marcus Kettner         : VPT2
   Christian Kollmar      : KDIIS, OOCD, Brueckner-CCSD(T), CCSD density, CASPT2, CASPT2-K
   Simone Kossmann        : Meta GGA functionals, TD-DFT gradient, OOMP2, MP2 Hessian
   Martin Krupicka        : Initial AUTO-CI
   Lucas Lang             : DCDCAS
   Marvin Lechner         : AUTO-CI (C++ implementation), FIC-MRCC
   Dagmar Lenk            : GEPOL surface, SMD
   Dimitrios Liakos       : Extrapolation schemes; Compound Job, initial MDCI parallelization
   Dimitrios Manganas     : Further ROCIS development; embedding schemes
   Dimitrios Pantazis     : SARC Basis sets
   Anastasios Papadopoulos: AUTO-CI, single reference methods and gradients
   Taras Petrenko         : DFT Hessian,TD-DFT gradient, ASA, ECA, R-Raman, ABS, FL, XAS/XES, NRVS
   Peter Pinski           : DLPNO-MP2, DLPNO-MP2 Gradient
   Christoph Reimann      : Effective Core Potentials
   Marius Retegan         : Local ZFS, SOC
   Christoph Riplinger    : Optimizer, TS searches, QM/MM, DLPNO-CCSD(T), (RO)-DLPNO pert. Triples
   Tobias Risthaus        : Range-separated hybrids, TD-DFT gradient, RPA, STAB
   Michael Roemelt        : Original ROCIS implementation
   Masaaki Saitow         : Open-shell DLPNO-CCSD energy and density
   Barbara Sandhoefer     : DKH picture change effects
   Avijit Sen             : IP-ROCIS
   Kantharuban Sivalingam : CASSCF convergence, NEVPT2, FIC-MRCI
   Bernardo de Souza      : ESD, SOC TD-DFT
   Georgi Stoychev        : AutoAux, RI-MP2 NMR
   Willem Van den Heuvel  : Paramagnetic NMR
   Boris Wezisla          : Elementary symmetry handling
   Frank Wennmohs         : Technical directorship


 We gratefully acknowledge several colleagues who have allowed us to
 interface, adapt or use parts of their codes:
   Stefan Grimme, W. Hujo, H. Kruse, P. Pracht,  : VdW corrections, initial TS optimization,
                  C. Bannwarth, S. Ehlert          DFT functionals, gCP, sTDA/sTD-DF
   Ed Valeev, F. Pavosevic, A. Kumar             : LibInt (2-el integral package), F12 methods
   Garnet Chan, S. Sharma, J. Yang, R. Olivares  : DMRG
   Ulf Ekstrom                                   : XCFun DFT Library
   Mihaly Kallay                                 : mrcc  (arbitrary order and MRCC methods)
   Jiri Pittner, Ondrej Demel                    : Mk-CCSD
   Frank Weinhold                                : gennbo (NPA and NBO analysis)
   Christopher J. Cramer and Donald G. Truhlar   : smd solvation model
   Lars Goerigk                                  : TD-DFT with DH, B97 family of functionals
   V. Asgeirsson, H. Jonsson                     : NEB implementation
   FAccTs GmbH                                   : IRC, NEB, NEB-TS, DLPNO-Multilevel, CI-OPT
                                                   MM, QMMM, 2- and 3-layer-ONIOM, Crystal-QMMM,
                                                   LR-CPCM, SF, NACMEs, symmetry and pop. for TD-DFT,
                                                   nearIR, NL-DFT gradient (VV10), updates on ESD,
                                                   ML-optimized integration grids
   S Lehtola, MJT Oliveira, MAL Marques          : LibXC Library
   Liviu Ungur et al                             : ANISO software


 Your calculation uses the libint2 library for the computation of 2-el integrals
 For citations please refer to: http://libint.valeyev.net

 Your ORCA version has been built with support for libXC version: 5.1.0
 For citations please refer to: https://tddft.org/programs/libxc/

 This ORCA versions uses:
   CBLAS   interface :  Fast vector & matrix operations
   LAPACKE interface :  Fast linear algebra routines
   SCALAPACK package :  Parallel linear algebra routines
   Shared memory     :  Shared parallel matrices
   BLAS/LAPACK       :  OpenBLAS 0.3.15  USE64BITINT DYNAMIC_ARCH NO_AFFINITY Haswell SINGLE_THREADED
        Core in use  :  Haswell
   Copyright (c) 2011-2014, The OpenBLAS Project


Your calculation utilizes the atom-pairwise dispersion correction
with the Becke-Johnson damping scheme (D3BJ)
Cite in your paper:
S.Grimme, S.Ehrlich, L.Goerigk, J Comput Chem, (2011), 32, 1456–1465 
S.Grimme, J.Antony, S.Ehrlich and H.Krieg, J.Chem.Phys., 132, (2010), 154104 
   

================================================================================

----- Orbital basis set information -----
Your calculation utilizes the basis: def2-TZVP
   F. Weigend and R. Ahlrichs, Phys. Chem. Chem. Phys. 7, 3297 (2005).

----- AuxJ basis set information -----
Your calculation utilizes the auxiliary basis: def2/J
   F. Weigend, Phys. Chem. Chem. Phys. 8, 1057 (2006).

================================================================================
                                        WARNINGS
                       Please study these warnings very carefully!
================================================================================



WARNING: Found flag for RIJCOSX approximation but no HF exchange needed!
  ===> : RIJCOSX  will be disabled and Split-RI-J is turned on

INFO   : the flag for use of the SHARK integral package has been found!

================================================================================
                                       INPUT FILE
================================================================================
NAME = TZVP_PBE_C2_wt_dlpno_pos.com
|  1> !PBE D3BJ RIJCOSX def2-TZVP def2/J TightSCF
|  2> *xyz 0 1 
|  3> C          2.23447       -2.98975       -2.39762
|  4> N          2.75680       -2.94555       -3.76503
|  5> C          1.98721       -2.59045       -4.81898
|  6> C          0.74322       -3.01749       -4.91352
|  7> N          2.49964       -1.84860       -5.80324
|  8> H          3.30978       -1.29282       -5.55895
|  9> H          1.80103       -1.30430       -6.28913
| 10> H          3.71612       -2.62880       -3.82953
| 11> H          0.39583       -3.62775       -4.18502
| 12> H          0.03920       -2.45438       -5.37137
| 13> C          2.19120       -1.61950       -1.71549
| 14> H          2.87278       -3.66637       -1.82801
| 15> H          1.24619       -3.44744       -2.40784
| 16> H          1.56387       -0.96046       -2.27853
| 17> H          3.18033       -1.21449       -1.66568
| 18> H          1.79916       -1.72608       -0.72562
| 19> *
| 20> 
| 21> %MaxCore 64000
| 22> 
| 23> %pal nprocs 4
| 24> end  
| 25> 
| 26> %scf
| 27>   MaxIter 150
| 28> end
| 29> 
| 30> 
| 31>                          ****END OF INPUT****
================================================================================

                       ****************************
                       * Single Point Calculation *
                       ****************************

---------------------------------
CARTESIAN COORDINATES (ANGSTROEM)
---------------------------------
  C      2.234470   -2.989750   -2.397620
  N      2.756800   -2.945550   -3.765030
  C      1.987210   -2.590450   -4.818980
  C      0.743220   -3.017490   -4.913520
  N      2.499640   -1.848600   -5.803240
  H      3.309780   -1.292820   -5.558950
  H      1.801030   -1.304300   -6.289130
  H      3.716120   -2.628800   -3.829530
  H      0.395830   -3.627750   -4.185020
  H      0.039200   -2.454380   -5.371370
  C      2.191200   -1.619500   -1.715490
  H      2.872780   -3.666370   -1.828010
  H      1.246190   -3.447440   -2.407840
  H      1.563870   -0.960460   -2.278530
  H      3.180330   -1.214490   -1.665680
  H      1.799160   -1.726080   -0.725620

----------------------------
CARTESIAN COORDINATES (A.U.)
----------------------------
  NO LB      ZA    FRAG     MASS         X           Y           Z
   0 C     6.0000    0    12.011    4.222536   -5.649809   -4.530845
   1 N     7.0000    0    14.007    5.209597   -5.566283   -7.114876
   2 C     6.0000    0    12.011    3.755283   -4.895241   -9.106552
   3 C     6.0000    0    12.011    1.404482   -5.702230   -9.285207
   4 N     7.0000    0    14.007    4.723635   -3.493348  -10.966534
   5 H     1.0000    0     1.008    6.254578   -2.443076  -10.504893
   6 H     1.0000    0     1.008    3.403453   -2.464770  -11.884733
   7 H     1.0000    0     1.008    7.022449   -4.967712   -7.236763
   8 H     1.0000    0     1.008    0.748010   -6.855454   -7.908542
   9 H     1.0000    0     1.008    0.074077   -4.638106  -10.150418
  10 C     6.0000    0    12.011    4.140768   -3.060411   -3.241806
  11 H     1.0000    0     1.008    5.428767   -6.928435   -3.454438
  12 H     1.0000    0     1.008    2.354958   -6.514717   -4.550158
  13 H     1.0000    0     1.008    2.955286   -1.815006   -4.305798
  14 H     1.0000    0     1.008    6.009953   -2.295053   -3.147679
  15 H     1.0000    0     1.008    3.399920   -3.261818   -1.371223

--------------------------------
INTERNAL COORDINATES (ANGSTROEM)
--------------------------------
 C      0   0   0     0.000000000000     0.00000000     0.00000000
 N      1   0   0     1.464442684778     0.00000000     0.00000000
 C      2   1   0     1.352470103403   122.18203773     0.00000000
 C      3   2   1     1.318640244077   120.50767980   318.92429323
 N      3   2   1     1.334800987039   120.13904926   141.74971655
 H      5   3   2     1.012371390400   115.74663211   337.06352916
 H      5   3   2     1.010152223281   112.87076652   206.24150258
 H      2   1   3     1.012316983410   114.01273014   143.83776254
 H      4   3   2     1.011834635551   117.87810276   358.89629827
 H      4   3   2     1.011120000297   120.59509601   149.18334512
 C      1   2   3     1.531260491327   113.51714716   278.62684038
 H      1   2   3     1.090738205345   107.31445173   157.09827707
 H      1   2   3     1.089165709569   109.12067806    42.69223128
 H     11   1   2     1.069995650505   109.47048990    59.87999947
 H     11   1   2     1.069996398639   109.47101499   299.88007507
 H     11   1   2     1.069998726588   109.47097671   179.87986464

---------------------------
INTERNAL COORDINATES (A.U.)
---------------------------
 C      0   0   0     0.000000000000     0.00000000     0.00000000
 N      1   0   0     2.767395613055     0.00000000     0.00000000
 C      2   1   0     2.555798099749   122.18203773     0.00000000
 C      3   2   1     2.491868930473   120.50767980   318.92429323
 N      3   2   1     2.522408308791   120.13904926   141.74971655
 H      5   3   2     1.913104673673   115.74663211   337.06352916
 H      5   3   2     1.908911055573   112.87076652   206.24150258
 H      2   1   3     1.913001859362   114.01273014   143.83776254
 H      4   3   2     1.912090354007   117.87810276   358.89629827
 H      4   3   2     1.910739889091   120.59509601   149.18334512
 C      1   2   3     2.893662968302   113.51714716   278.62684038
 H      1   2   3     2.061196491907   107.31445173   157.09827707
 H      1   2   3     2.058224905543   109.12067806    42.69223128
 H     11   1   2     2.021998743942   109.47048990    59.87999947
 H     11   1   2     2.022000157709   109.47101499   299.88007507
 H     11   1   2     2.022004556896   109.47097671   179.87986464

---------------------
BASIS SET INFORMATION
---------------------
There are 3 groups of distinct atoms

 Group   1 Type C   : 11s6p2d1f contracted to 5s3p2d1f pattern {62111/411/11/1}
 Group   2 Type N   : 11s6p2d1f contracted to 5s3p2d1f pattern {62111/411/11/1}
 Group   3 Type H   : 5s1p contracted to 3s1p pattern {311/1}

Atom   0C    basis set group =>   1
Atom   1N    basis set group =>   2
Atom   2C    basis set group =>   1
Atom   3C    basis set group =>   1
Atom   4N    basis set group =>   2
Atom   5H    basis set group =>   3
Atom   6H    basis set group =>   3
Atom   7H    basis set group =>   3
Atom   8H    basis set group =>   3
Atom   9H    basis set group =>   3
Atom  10C    basis set group =>   1
Atom  11H    basis set group =>   3
Atom  12H    basis set group =>   3
Atom  13H    basis set group =>   3
Atom  14H    basis set group =>   3
Atom  15H    basis set group =>   3
---------------------------------
AUXILIARY/J BASIS SET INFORMATION
---------------------------------
There are 3 groups of distinct atoms

 Group   1 Type C   : 12s5p4d2f1g contracted to 6s4p3d1f1g pattern {711111/2111/211/2/1}
 Group   2 Type N   : 12s5p4d2f1g contracted to 6s4p3d1f1g pattern {711111/2111/211/2/1}
 Group   3 Type H   : 5s2p1d contracted to 3s1p1d pattern {311/2/1}

Atom   0C    basis set group =>   1
Atom   1N    basis set group =>   2
Atom   2C    basis set group =>   1
Atom   3C    basis set group =>   1
Atom   4N    basis set group =>   2
Atom   5H    basis set group =>   3
Atom   6H    basis set group =>   3
Atom   7H    basis set group =>   3
Atom   8H    basis set group =>   3
Atom   9H    basis set group =>   3
Atom  10C    basis set group =>   1
Atom  11H    basis set group =>   3
Atom  12H    basis set group =>   3
Atom  13H    basis set group =>   3
Atom  14H    basis set group =>   3
Atom  15H    basis set group =>   3


           ************************************************************
           *        Program running with 4 parallel MPI-processes     *
           *              working on a common directory               *
           ************************************************************
------------------------------------------------------------------------------
                           ORCA GTO INTEGRAL CALCULATION
                           -- RI-GTO INTEGRALS CHOSEN --
------------------------------------------------------------------------------
------------------------------------------------------------------------------
                   ___                                                        
                  /   \      - P O W E R E D   B Y -                         
                 /     \                                                     
                 |  |  |   _    _      __       _____    __    __             
                 |  |  |  | |  | |    /  \     |  _  \  |  |  /  |          
                  \  \/   | |  | |   /    \    | | | |  |  | /  /          
                 / \  \   | |__| |  /  /\  \   | |_| |  |  |/  /          
                |  |  |   |  __  | /  /__\  \  |    /   |      \           
                |  |  |   | |  | | |   __   |  |    \   |  |\   \          
                \     /   | |  | | |  |  |  |  | |\  \  |  | \   \       
                 \___/    |_|  |_| |__|  |__|  |_| \__\ |__|  \__/        
                                                                              
                      - O R C A' S   B I G   F R I E N D -                    
                                      &                                       
                       - I N T E G R A L  F E E D E R -                       
                                                                              
 v1 FN, 2020, v2 2021                                                         
------------------------------------------------------------------------------


Reading SHARK input file TZVP_PBE_C2_wt_dlpno_pos.SHARKINP.tmp ... ok
----------------------
SHARK INTEGRAL PACKAGE
----------------------

Number of atoms                             ...     16
Number of basis functions                   ...    246
Number of shells                            ...    106
Maximum angular momentum                    ...      3
Integral batch strategy                     ... SHARK/LIBINT Hybrid
RI-J (if used) integral strategy            ... SPLIT-RIJ (Revised 2003 algorithm where possible)
Printlevel                                  ...      1
Contraction scheme used                     ... SEGMENTED contraction
Coulomb Range Separation                    ... NOT USED
Exchange Range Separation                   ... NOT USED
Finite Nucleus Model                        ... NOT USED
Auxiliary Coulomb fitting basis             ... AVAILABLE
   # of basis functions in Aux-J            ...    404
   # of shells in Aux-J                     ...    140
   Maximum angular momentum in Aux-J        ...      4
Auxiliary J/K fitting basis                 ... NOT available
Auxiliary Correlation fitting basis         ... NOT available
Auxiliary 'external' fitting basis          ... NOT available
Integral threshold                          ...     2.500000e-11
Primitive cut-off                           ...     2.500000e-12
Primitive pair pre-selection threshold      ...     2.500000e-12

Calculating pre-screening integrals         ... done (  0.1 sec) Dimension = 106
Organizing shell pair data                  ... done (  0.1 sec)
Shell pair information
Total number of shell pairs                 ...      5671
Shell pairs after pre-screening             ...      5371
Total number of primitive shell pairs       ...     16452
Primitive shell pairs kept                  ...     12111
          la=0 lb=0:   1687 shell pairs
          la=1 lb=0:   1590 shell pairs
          la=1 lb=1:    395 shell pairs
          la=2 lb=0:    690 shell pairs
          la=2 lb=1:    328 shell pairs
          la=2 lb=2:     77 shell pairs
          la=3 lb=0:    344 shell pairs
          la=3 lb=1:    167 shell pairs
          la=3 lb=2:     72 shell pairs
          la=3 lb=3:     21 shell pairs

Calculating one electron integrals          ... done (  0.0 sec)
Calculating RI/J V-Matrix + Cholesky decomp.... done (  0.0 sec)
Calculating Nuclear repulsion               ... done (  0.0 sec) ENN=    249.420797831242 Eh

SHARK setup successfully completed in   0.3 seconds

Maximum memory used throughout the entire GTOINT-calculation: 13.9 MB


           ************************************************************
           *        Program running with 4 parallel MPI-processes     *
           *              working on a common directory               *
           ************************************************************
-------------------------------------------------------------------------------
                                 ORCA SCF
-------------------------------------------------------------------------------

------------
SCF SETTINGS
------------
Hamiltonian:
 Density Functional     Method          .... DFT(GTOs)
 Exchange Functional    Exchange        .... PBE
   PBE kappa parameter   XKappa         ....  0.804000
   PBE mue parameter    XMuePBE         ....  0.219520
 Correlation Functional Correlation     .... PBE
   PBE beta parameter  CBetaPBE         ....  0.066725
 LDA part of GGA corr.  LDAOpt          .... PW91-LDA
 Gradients option       PostSCFGGA      .... off
   Density functional embedding theory  .... OFF
   NL short-range parameter             ....  6.400000
 RI-approximation to the Coulomb term is turned on
   Number of AuxJ basis functions       .... 404


General Settings:
 Integral files         IntName         .... TZVP_PBE_C2_wt_dlpno_pos
 Hartree-Fock type      HFTyp           .... RHF
 Total Charge           Charge          ....    0
 Multiplicity           Mult            ....    1
 Number of Electrons    NEL             ....   48
 Basis Dimension        Dim             ....  246
 Nuclear Repulsion      ENuc            ....    249.4207978312 Eh

Convergence Acceleration:
 DIIS                   CNVDIIS         .... on
   Start iteration      DIISMaxIt       ....    12
   Startup error        DIISStart       ....  0.200000
   # of expansion vecs  DIISMaxEq       ....     5
   Bias factor          DIISBfac        ....   1.050
   Max. coefficient     DIISMaxC        ....  10.000
 Trust-Rad. Augm. Hess. CNVTRAH         .... auto
   Auto Start mean grad. ratio tolernc. ....  1.125000
   Auto Start start iteration           ....    20
   Auto Start num. interpolation iter.  ....    10
   Max. Number of Micro iterations      ....    16
   Max. Number of Macro iterations      .... Maxiter - #DIIS iter
   Number of Davidson start vectors     ....     2
   Converg. threshold I  (grad. norm)   ....   1.000e-05
   Converg. threshold II (energy diff.) ....   1.000e-08
   Grad. Scal. Fac. for Micro threshold ....   0.100
   Minimum threshold for Micro iter.    ....   0.010
   NR start threshold (gradient norm)   ....   0.001
   Initial trust radius                 ....   0.400
   Minimum AH scaling param. (alpha)    ....   1.000
   Maximum AH scaling param. (alpha)    .... 1000.000
   Orbital update algorithm             .... Taylor
   White noise on init. David. guess    .... on
   Maximum white noise                  ....   0.010
   Quad. conv. algorithm                .... NR
 SOSCF                  CNVSOSCF        .... on
   Start iteration      SOSCFMaxIt      ....   150
   Startup grad/error   SOSCFStart      ....  0.003300
 Level Shifting         CNVShift        .... on
   Level shift para.    LevelShift      ....    0.2500
   Turn off err/grad.   ShiftErr        ....    0.0010
 Zerner damping         CNVZerner       .... off
 Static damping         CNVDamp         .... on
   Fraction old density DampFac         ....    0.7000
   Max. Damping (<1)    DampMax         ....    0.9800
   Min. Damping (>=0)   DampMin         ....    0.0000
   Turn off err/grad.   DampErr         ....    0.1000
 Fernandez-Rico         CNVRico         .... off

SCF Procedure:
 Maximum # iterations   MaxIter         ....   150
 SCF integral mode      SCFMode         .... Direct
   Integral package                     .... SHARK and LIBINT hybrid scheme
 Reset frequency        DirectResetFreq ....    20
 Integral Threshold     Thresh          ....  2.500e-11 Eh
 Primitive CutOff       TCut            ....  2.500e-12 Eh

Convergence Tolerance:
 Convergence Check Mode ConvCheckMode   .... Total+1el-Energy
 Convergence forced     ConvForced      .... 0
 Energy Change          TolE            ....  1.000e-08 Eh
 1-El. energy change                    ....  1.000e-05 Eh
 Orbital Gradient       TolG            ....  1.000e-05
 Orbital Rotation angle TolX            ....  1.000e-05
 DIIS Error             TolErr          ....  5.000e-07


Diagonalization of the overlap matrix:
Smallest eigenvalue                        ... 1.452e-04
Time for diagonalization                   ...    0.014 sec
Threshold for overlap eigenvalues          ... 1.000e-08
Number of eigenvalues below threshold      ... 0
Time for construction of square roots      ...    0.011 sec
Total time needed                          ...    0.025 sec

Time for model grid setup =    0.103 sec

------------------------------
INITIAL GUESS: MODEL POTENTIAL
------------------------------
Loading Hartree-Fock densities                     ... done
Calculating cut-offs                               ... done
Initializing the effective Hamiltonian             ... done
Setting up the integral package (SHARK)            ... done
Starting the Coulomb interaction                   ... done (   0.1 sec)
Reading the grid                                   ... done
Mapping shells                                     ... done
Starting the XC term evaluation                    ... done (   0.1 sec)
  promolecular density results
     # of electrons  =     47.995286563
     EX              =    -36.575620670
     EC              =     -1.576282025
     EX+EC           =    -38.151902695
Transforming the Hamiltonian                       ... done (   0.0 sec)
Diagonalizing the Hamiltonian                      ... done (   0.0 sec)
Back transforming the eigenvectors                 ... done (   0.0 sec)
Now organizing SCF variables                       ... done
                      ------------------
                      INITIAL GUESS DONE (   0.3 sec)
                      ------------------
-------------------
DFT GRID GENERATION
-------------------

General Integration Accuracy     IntAcc      ... 4.388
Radial Grid Type                 RadialGrid  ... OptM3 with GC (2021)
Angular Grid (max. ang.)         AngularGrid ... 4 (Lebedev-302)
Angular grid pruning method      GridPruning ... 4 (adaptive)
Weight generation scheme         WeightScheme... Becke
Basis function cutoff            BFCut       ... 1.0000e-11
Integration weight cutoff        WCut        ... 1.0000e-14
Angular grids for H and He will be reduced by one unit
Partially contracted basis set               ... off
Rotationally invariant grid construction     ... off

Total number of grid points                  ...    68360
Total number of batches                      ...     1077
Average number of points per batch           ...       63
Average number of grid points per atom       ...     4272
Time for grid setup =    0.460 sec

--------------
SCF ITERATIONS
--------------
ITER       Energy         Delta-E        Max-DP      RMS-DP      [F,P]     Damp
               ***  Starting incremental Fock matrix formation  ***
  0   -267.3567515154   0.000000000000 0.05135680  0.00153032  0.2392276 0.7000
  1   -267.5033416136  -0.146590098265 0.03565348  0.00122678  0.1114074 0.7000
                               ***Turning on DIIS***
  2   -267.5527672065  -0.049425592840 0.05495012  0.00188579  0.0275392 0.0000
  3   -267.6205502485  -0.067783042050 0.02711025  0.00090065  0.0772365 0.0000
  4   -267.6462374232  -0.025687174687 0.01008123  0.00037605  0.0183095 0.0000
  5   -267.6481059537  -0.001868530481 0.00477783  0.00016934  0.0050506 0.0000
                      *** Initiating the SOSCF procedure ***
                           *** Shutting down DIIS ***
                      *** Re-Reading the Fockian *** 
                      *** Removing any level shift *** 
ITER      Energy       Delta-E        Grad      Rot      Max-DP    RMS-DP
  6   -267.64825902  -0.0001530651  0.000621  0.000621  0.002295  0.000070
               *** Restarting incremental Fock matrix formation ***
  7   -267.64827961  -0.0000205914  0.000264  0.001855  0.002534  0.000063
  8   -267.64828258  -0.0000029743  0.000158  0.000890  0.000611  0.000019
  9   -267.64828193   0.0000006571  0.000318  0.000758  0.000616  0.000018
 10   -267.64828320  -0.0000012688  0.000028  0.000100  0.000119  0.000004
 11   -267.64828317   0.0000000217  0.000040  0.000062  0.000054  0.000002
 12   -267.64828323  -0.0000000557  0.000007  0.000011  0.000048  0.000001
 13   -267.64828323  -0.0000000002  0.000007  0.000008  0.000031  0.000001
                  ***Gradient check signals convergence***
              ***Rediagonalizing the Fockian in SOSCF/NRSCF***

               *****************************************************
               *                     SUCCESS                       *
               *           SCF CONVERGED AFTER  14 CYCLES          *
               *****************************************************


----------------
TOTAL SCF ENERGY
----------------

Total Energy       :         -267.64828323 Eh           -7283.08005 eV

Components:
Nuclear Repulsion  :          249.42079783 Eh            6787.08496 eV
Electronic Energy  :         -517.06908106 Eh          -14070.16501 eV
One Electron Energy:         -854.74743230 Eh          -23258.86009 eV
Two Electron Energy:          337.67835123 Eh            9188.69508 eV

Virial components:
Potential Energy   :         -534.81086213 Eh          -14552.94342 eV
Kinetic Energy     :          267.16257889 Eh            7269.86336 eV
Virial Ratio       :            2.00181801


DFT components:
N(Alpha)           :       23.999990032647 electrons
N(Beta)            :       23.999990032647 electrons
N(Total)           :       47.999980065294 electrons
E(X)               :      -37.537579462534 Eh       
E(C)               :       -1.579553558783 Eh       
E(XC)              :      -39.117133021317 Eh       
DFET-embed. en.    :        0.000000000000 Eh       

---------------
SCF CONVERGENCE
---------------

  Last Energy change         ...   -2.4105e-09  Tolerance :   1.0000e-08
  Last MAX-Density change    ...    5.5375e-06  Tolerance :   1.0000e-07
  Last RMS-Density change    ...    1.9353e-07  Tolerance :   5.0000e-09
  Last Orbital Gradient      ...    1.4012e-06  Tolerance :   1.0000e-05
  Last Orbital Rotation      ...    3.8087e-06  Tolerance :   1.0000e-05

             **** THE GBW FILE WAS UPDATED (TZVP_PBE_C2_wt_dlpno_pos.gbw) ****
             **** DENSITY TZVP_PBE_C2_wt_dlpno_pos.scfp WAS UPDATED ****
             **** ENERGY FILE WAS UPDATED (TZVP_PBE_C2_wt_dlpno_pos.en.tmp) ****
             **** THE GBW FILE WAS UPDATED (TZVP_PBE_C2_wt_dlpno_pos.gbw) ****
             **** DENSITY TZVP_PBE_C2_wt_dlpno_pos.scfp WAS UPDATED ****
----------------
ORBITAL ENERGIES
----------------

  NO   OCC          E(Eh)            E(eV) 
   0   2.0000     -13.988079      -380.6350 
   1   2.0000     -13.983132      -380.5004 
   2   2.0000      -9.918919      -269.9075 
   3   2.0000      -9.912474      -269.7321 
   4   2.0000      -9.868425      -268.5335 
   5   2.0000      -9.797428      -266.6016 
   6   2.0000      -0.885528       -24.0964 
   7   2.0000      -0.811421       -22.0799 
   8   2.0000      -0.685988       -18.6667 
   9   2.0000      -0.645153       -17.5555 
  10   2.0000      -0.579166       -15.7599 
  11   2.0000      -0.506887       -13.7931 
  12   2.0000      -0.491559       -13.3760 
  13   2.0000      -0.461286       -12.5522 
  14   2.0000      -0.413846       -11.2613 
  15   2.0000      -0.398646       -10.8477 
  16   2.0000      -0.370089       -10.0706 
  17   2.0000      -0.351411        -9.5624 
  18   2.0000      -0.347695        -9.4613 
  19   2.0000      -0.326887        -8.8950 
  20   2.0000      -0.313304        -8.5254 
  21   2.0000      -0.304664        -8.2903 
  22   2.0000      -0.211341        -5.7509 
  23   2.0000      -0.145223        -3.9517 
  24   0.0000      -0.003199        -0.0870 
  25   0.0000       0.022941         0.6242 
  26   0.0000       0.034364         0.9351 
  27   0.0000       0.045923         1.2496 
  28   0.0000       0.061717         1.6794 
  29   0.0000       0.066309         1.8044 
  30   0.0000       0.087267         2.3747 
  31   0.0000       0.100441         2.7331 
  32   0.0000       0.104243         2.8366 
  33   0.0000       0.121834         3.3153 
  34   0.0000       0.130568         3.5529 
  35   0.0000       0.144464         3.9311 
  36   0.0000       0.161540         4.3957 
  37   0.0000       0.174418         4.7462 
  38   0.0000       0.185879         5.0580 
  39   0.0000       0.193638         5.2692 
  40   0.0000       0.210856         5.7377 
  41   0.0000       0.223380         6.0785 
  42   0.0000       0.248768         6.7693 
  43   0.0000       0.256812         6.9882 
  44   0.0000       0.286534         7.7970 
  45   0.0000       0.299642         8.1537 
  46   0.0000       0.304879         8.2962 
  47   0.0000       0.313193         8.5224 
  48   0.0000       0.324535         8.8310 
  49   0.0000       0.339657         9.2425 
  50   0.0000       0.345321         9.3967 
  51   0.0000       0.365339         9.9414 
  52   0.0000       0.371087        10.0978 
  53   0.0000       0.383010        10.4222 
  54   0.0000       0.388276        10.5655 
  55   0.0000       0.414310        11.2740 
  56   0.0000       0.417232        11.3535 
  57   0.0000       0.421165        11.4605 
  58   0.0000       0.428024        11.6471 
  59   0.0000       0.434137        11.8135 
  60   0.0000       0.448206        12.1963 
  61   0.0000       0.460767        12.5381 
  62   0.0000       0.470443        12.8014 
  63   0.0000       0.482680        13.1344 
  64   0.0000       0.507262        13.8033 
  65   0.0000       0.524129        14.2623 
  66   0.0000       0.528797        14.3893 
  67   0.0000       0.552662        15.0387 
  68   0.0000       0.554405        15.0861 
  69   0.0000       0.588890        16.0245 
  70   0.0000       0.613265        16.6878 
  71   0.0000       0.630957        17.1692 
  72   0.0000       0.650560        17.7026 
  73   0.0000       0.669214        18.2102 
  74   0.0000       0.710285        19.3278 
  75   0.0000       0.727871        19.8064 
  76   0.0000       0.774133        21.0652 
  77   0.0000       0.793268        21.5859 
  78   0.0000       0.826487        22.4899 
  79   0.0000       0.840868        22.8812 
  80   0.0000       0.892232        24.2789 
  81   0.0000       0.905443        24.6384 
  82   0.0000       0.929803        25.3012 
  83   0.0000       0.960176        26.1277 
  84   0.0000       0.989470        26.9248 
  85   0.0000       1.011720        27.5303 
  86   0.0000       1.033078        28.1115 
  87   0.0000       1.034986        28.1634 
  88   0.0000       1.048176        28.5223 
  89   0.0000       1.091799        29.7094 
  90   0.0000       1.104284        30.0491 
  91   0.0000       1.120015        30.4772 
  92   0.0000       1.140064        31.0227 
  93   0.0000       1.208739        32.8915 
  94   0.0000       1.220903        33.2225 
  95   0.0000       1.274499        34.6809 
  96   0.0000       1.298510        35.3343 
  97   0.0000       1.340219        36.4692 
  98   0.0000       1.359674        36.9986 
  99   0.0000       1.405642        38.2495 
 100   0.0000       1.427410        38.8418 
 101   0.0000       1.437582        39.1186 
 102   0.0000       1.462415        39.7943 
 103   0.0000       1.473066        40.0842 
 104   0.0000       1.492805        40.6213 
 105   0.0000       1.500862        40.8405 
 106   0.0000       1.506945        41.0061 
 107   0.0000       1.527355        41.5614 
 108   0.0000       1.531647        41.6782 
 109   0.0000       1.564103        42.5614 
 110   0.0000       1.570488        42.7352 
 111   0.0000       1.596629        43.4465 
 112   0.0000       1.601322        43.5742 
 113   0.0000       1.631863        44.4052 
 114   0.0000       1.634575        44.4790 
 115   0.0000       1.673015        45.5251 
 116   0.0000       1.675165        45.5836 
 117   0.0000       1.722788        46.8795 
 118   0.0000       1.734417        47.1959 
 119   0.0000       1.744788        47.4781 
 120   0.0000       1.769498        48.1505 
 121   0.0000       1.799647        48.9709 
 122   0.0000       1.831852        49.8472 
 123   0.0000       1.845576        50.2207 
 124   0.0000       1.902581        51.7719 
 125   0.0000       1.906231        51.8712 
 126   0.0000       1.930262        52.5251 
 127   0.0000       1.940039        52.7912 
 128   0.0000       1.959586        53.3230 
 129   0.0000       2.007527        54.6276 
 130   0.0000       2.022287        55.0292 
 131   0.0000       2.045910        55.6720 
 132   0.0000       2.105727        57.2997 
 133   0.0000       2.122409        57.7537 
 134   0.0000       2.178376        59.2766 
 135   0.0000       2.218698        60.3739 
 136   0.0000       2.247813        61.1661 
 137   0.0000       2.261494        61.5384 
 138   0.0000       2.276334        61.9422 
 139   0.0000       2.295363        62.4600 
 140   0.0000       2.305219        62.7282 
 141   0.0000       2.337073        63.5950 
 142   0.0000       2.345829        63.8333 
 143   0.0000       2.379605        64.7524 
 144   0.0000       2.396835        65.2212 
 145   0.0000       2.421984        65.9055 
 146   0.0000       2.455616        66.8207 
 147   0.0000       2.477339        67.4118 
 148   0.0000       2.481831        67.5340 
 149   0.0000       2.518101        68.5210 
 150   0.0000       2.524829        68.7041 
 151   0.0000       2.551759        69.4369 
 152   0.0000       2.576386        70.1070 
 153   0.0000       2.592548        70.5468 
 154   0.0000       2.614304        71.1388 
 155   0.0000       2.621384        71.3315 
 156   0.0000       2.643796        71.9413 
 157   0.0000       2.683573        73.0237 
 158   0.0000       2.721971        74.0686 
 159   0.0000       2.745061        74.6969 
 160   0.0000       2.787586        75.8541 
 161   0.0000       2.808933        76.4349 
 162   0.0000       2.857147        77.7469 
 163   0.0000       2.878026        78.3151 
 164   0.0000       2.883453        78.4628 
 165   0.0000       2.919891        79.4543 
 166   0.0000       2.938443        79.9591 
 167   0.0000       2.965215        80.6876 
 168   0.0000       2.977498        81.0218 
 169   0.0000       3.000237        81.6406 
 170   0.0000       3.010667        81.9244 
 171   0.0000       3.051609        83.0385 
 172   0.0000       3.063954        83.3744 
 173   0.0000       3.108995        84.6001 
 174   0.0000       3.132689        85.2448 
 175   0.0000       3.147180        85.6391 
 176   0.0000       3.150879        85.7398 
 177   0.0000       3.161988        86.0421 
 178   0.0000       3.196812        86.9897 
 179   0.0000       3.212383        87.4134 
 180   0.0000       3.251863        88.4877 
 181   0.0000       3.254944        88.5715 
 182   0.0000       3.287317        89.4524 
 183   0.0000       3.307591        90.0041 
 184   0.0000       3.321845        90.3920 
 185   0.0000       3.343437        90.9795 
 186   0.0000       3.357248        91.3554 
 187   0.0000       3.386153        92.1419 
 188   0.0000       3.439046        93.5812 
 189   0.0000       3.457264        94.0769 
 190   0.0000       3.497083        95.1605 
 191   0.0000       3.523760        95.8864 
 192   0.0000       3.574103        97.2563 
 193   0.0000       3.656170        99.4895 
 194   0.0000       3.669094        99.8411 
 195   0.0000       3.711916       101.0064 
 196   0.0000       3.744235       101.8858 
 197   0.0000       3.771012       102.6145 
 198   0.0000       3.796543       103.3092 
 199   0.0000       3.829318       104.2010 
 200   0.0000       3.848558       104.7246 
 201   0.0000       3.865062       105.1737 
 202   0.0000       3.926939       106.8575 
 203   0.0000       4.039001       109.9068 
 204   0.0000       4.055445       110.3543 
 205   0.0000       4.125807       112.2689 
 206   0.0000       4.171777       113.5198 
 207   0.0000       4.196418       114.1904 
 208   0.0000       4.274348       116.3109 
 209   0.0000       4.290768       116.7577 
 210   0.0000       4.340710       118.1167 
 211   0.0000       4.378324       119.1402 
 212   0.0000       4.405250       119.8730 
 213   0.0000       4.443786       120.9216 
 214   0.0000       4.454658       121.2174 
 215   0.0000       4.484456       122.0283 
 216   0.0000       4.605995       125.3355 
 217   0.0000       4.647595       126.4675 
 218   0.0000       4.685175       127.4901 
 219   0.0000       4.703615       127.9919 
 220   0.0000       4.723013       128.5197 
 221   0.0000       4.792022       130.3975 
 222   0.0000       4.812804       130.9630 
 223   0.0000       4.869931       132.5176 
 224   0.0000       4.937915       134.3675 
 225   0.0000       4.978356       135.4679 
 226   0.0000       5.023723       136.7025 
 227   0.0000       5.059209       137.6681 
 228   0.0000       5.115953       139.2122 
 229   0.0000       5.127916       139.5377 
 230   0.0000       5.149415       140.1227 
 231   0.0000       5.193722       141.3284 
 232   0.0000       5.255375       143.0060 
 233   0.0000       5.351460       145.6206 
 234   0.0000       5.384529       146.5205 
 235   0.0000       5.583909       151.9459 
 236   0.0000       5.610491       152.6692 
 237   0.0000       5.749391       156.4489 
 238   0.0000       5.823125       158.4553 
 239   0.0000       6.038460       164.3148 
 240   0.0000      22.127958       602.1323 
 241   0.0000      22.230515       604.9231 
 242   0.0000      22.381638       609.0353 
 243   0.0000      23.108999       628.8278 
 244   0.0000      31.670092       861.7870 
 245   0.0000      32.178284       875.6156 

                    ********************************
                    * MULLIKEN POPULATION ANALYSIS *
                    ********************************

-----------------------
MULLIKEN ATOMIC CHARGES
-----------------------
   0 C :   -0.089868
   1 N :   -0.262315
   2 C :    0.275738
   3 C :   -0.473284
   4 N :   -0.401319
   5 H :    0.189536
   6 H :    0.226854
   7 H :    0.172539
   8 H :    0.073794
   9 H :    0.085094
  10 C :   -0.343848
  11 H :    0.106556
  12 H :    0.106333
  13 H :    0.126215
  14 H :    0.096994
  15 H :    0.110981
Sum of atomic charges:    0.0000000

--------------------------------
MULLIKEN REDUCED ORBITAL CHARGES
--------------------------------
  0 C s       :     3.175684  s :     3.175684
      pz      :     0.810514  p :     2.792834
      px      :     1.026247
      py      :     0.956072
      dz2     :     0.024764  d :     0.113734
      dxz     :     0.016923
      dyz     :     0.038800
      dx2y2   :     0.009395
      dxy     :     0.023852
      f0      :     0.001443  f :     0.007617
      f+1     :     0.001077
      f-1     :     0.002163
      f+2     :     0.000619
      f-2     :     0.001114
      f+3     :     0.000604
      f-3     :     0.000597
  1 N s       :     3.433373  s :     3.433373
      pz      :     1.064161  p :     3.764120
      px      :     1.069062
      py      :     1.630897
      dz2     :     0.019281  d :     0.061023
      dxz     :     0.012906
      dyz     :     0.014495
      dx2y2   :     0.007386
      dxy     :     0.006954
      f0      :     0.000837  f :     0.003800
      f+1     :     0.000689
      f-1     :     0.000578
      f+2     :     0.000601
      f-2     :     0.000332
      f+3     :     0.000290
      f-3     :     0.000473
  2 C s       :     3.040391  s :     3.040391
      pz      :     0.707435  p :     2.466829
      px      :     0.863010
      py      :     0.896384
      dz2     :     0.034186  d :     0.199925
      dxz     :     0.054631
      dyz     :     0.035755
      dx2y2   :     0.025951
      dxy     :     0.049403
      f0      :     0.003159  f :     0.017116
      f+1     :     0.002189
      f-1     :     0.002407
      f+2     :     0.003281
      f-2     :     0.002918
      f+3     :     0.001911
      f-3     :     0.001251
  3 C s       :     3.231568  s :     3.231568
      pz      :     1.202393  p :     3.201944
      px      :     0.905279
      py      :     1.094273
      dz2     :     0.003577  d :     0.035050
      dxz     :     0.009770
      dyz     :     0.005036
      dx2y2   :     0.007261
      dxy     :     0.009405
      f0      :     0.000600  f :     0.004722
      f+1     :     0.000203
      f-1     :     0.000526
      f+2     :     0.000807
      f-2     :     0.000949
      f+3     :     0.001000
      f-3     :     0.000637
  4 N s       :     3.462154  s :     3.462154
      pz      :     1.394882  p :     3.898070
      px      :     1.179853
      py      :     1.323335
      dz2     :     0.010478  d :     0.038249
      dxz     :     0.007826
      dyz     :     0.006641
      dx2y2   :     0.002892
      dxy     :     0.010413
      f0      :     0.000544  f :     0.002847
      f+1     :     0.000110
      f-1     :     0.000485
      f+2     :     0.000501
      f-2     :     0.000720
      f+3     :     0.000087
      f-3     :     0.000401
  5 H s       :     0.773301  s :     0.773301
      pz      :     0.009166  p :     0.037164
      px      :     0.015336
      py      :     0.012662
  6 H s       :     0.736238  s :     0.736238
      pz      :     0.012400  p :     0.036908
      px      :     0.012255
      py      :     0.012253
  7 H s       :     0.788462  s :     0.788462
      pz      :     0.006284  p :     0.038999
      px      :     0.019028
      py      :     0.013687
  8 H s       :     0.899419  s :     0.899419
      pz      :     0.010618  p :     0.026787
      px      :     0.006035
      py      :     0.010133
  9 H s       :     0.889228  s :     0.889228
      pz      :     0.008858  p :     0.025678
      px      :     0.008357
      py      :     0.008462
 10 C s       :     3.235923  s :     3.235923
      pz      :     1.039331  p :     3.058907
      px      :     1.047941
      py      :     0.971635
      dz2     :     0.010549  d :     0.045895
      dxz     :     0.003639
      dyz     :     0.009069
      dx2y2   :     0.005223
      dxy     :     0.017416
      f0      :     0.000312  f :     0.003122
      f+1     :     0.000275
      f-1     :     0.000730
      f+2     :     0.000285
      f-2     :     0.000474
      f+3     :     0.000575
      f-3     :     0.000472
 11 H s       :     0.872458  s :     0.872458
      pz      :     0.006131  p :     0.020986
      px      :     0.006784
      py      :     0.008071
 12 H s       :     0.871286  s :     0.871286
      pz      :     0.004233  p :     0.022381
      px      :     0.011689
      py      :     0.006459
 13 H s       :     0.851929  s :     0.851929
      pz      :     0.006695  p :     0.021856
      px      :     0.007354
      py      :     0.007807
 14 H s       :     0.881263  s :     0.881263
      pz      :     0.004911  p :     0.021743
      px      :     0.010435
      py      :     0.006397
 15 H s       :     0.866991  s :     0.866991
      pz      :     0.011064  p :     0.022028
      px      :     0.005866
      py      :     0.005098


                     *******************************
                     * LOEWDIN POPULATION ANALYSIS *
                     *******************************

----------------------
LOEWDIN ATOMIC CHARGES
----------------------
   0 C :   -0.308612
   1 N :    0.115741
   2 C :   -0.482143
   3 C :   -0.318057
   4 N :   -0.010811
   5 H :    0.151650
   6 H :    0.177242
   7 H :    0.171469
   8 H :    0.101117
   9 H :    0.098966
  10 C :   -0.313612
  11 H :    0.128854
  12 H :    0.136585
  13 H :    0.120382
  14 H :    0.112162
  15 H :    0.119066

-------------------------------
LOEWDIN REDUCED ORBITAL CHARGES
-------------------------------
  0 C s       :     2.791356  s :     2.791356
      pz      :     0.905537  p :     2.998094
      px      :     1.044375
      py      :     1.048182
      dz2     :     0.104302  d :     0.466600
      dxz     :     0.073575
      dyz     :     0.146712
      dx2y2   :     0.050592
      dxy     :     0.091419
      f0      :     0.009089  f :     0.052562
      f+1     :     0.008336
      f-1     :     0.012884
      f+2     :     0.005317
      f-2     :     0.008682
      f+3     :     0.003984
      f-3     :     0.004270
  1 N s       :     2.933117  s :     2.933117
      pz      :     1.137088  p :     3.709776
      px      :     1.117691
      py      :     1.454997
      dz2     :     0.074836  d :     0.225449
      dxz     :     0.057497
      dyz     :     0.041120
      dx2y2   :     0.027649
      dxy     :     0.024347
      f0      :     0.003307  f :     0.015916
      f+1     :     0.002796
      f-1     :     0.002802
      f+2     :     0.002682
      f-2     :     0.002232
      f+3     :     0.000685
      f-3     :     0.001412
  2 C s       :     2.699641  s :     2.699641
      pz      :     0.900862  p :     2.828296
      px      :     1.048172
      py      :     0.879262
      dz2     :     0.165034  d :     0.840152
      dxz     :     0.238608
      dyz     :     0.140745
      dx2y2   :     0.133850
      dxy     :     0.161915
      f0      :     0.023334  f :     0.114054
      f+1     :     0.016596
      f-1     :     0.014995
      f+2     :     0.018691
      f-2     :     0.016329
      f+3     :     0.012602
      f-3     :     0.011507
  3 C s       :     2.803710  s :     2.803710
      pz      :     1.097557  p :     3.254759
      px      :     1.055736
      py      :     1.101466
      dz2     :     0.020376  d :     0.228147
      dxz     :     0.066658
      dyz     :     0.023216
      dx2y2   :     0.044668
      dxy     :     0.073228
      f0      :     0.003821  f :     0.031441
      f+1     :     0.003543
      f-1     :     0.002485
      f+2     :     0.004061
      f-2     :     0.004456
      f+3     :     0.006490
      f-3     :     0.006585
  4 N s       :     3.003031  s :     3.003031
      pz      :     1.362423  p :     3.836218
      px      :     1.179018
      py      :     1.294777
      dz2     :     0.036504  d :     0.158922
      dxz     :     0.032997
      dyz     :     0.026314
      dx2y2   :     0.014751
      dxy     :     0.048355
      f0      :     0.003029  f :     0.012641
      f+1     :     0.001132
      f-1     :     0.001854
      f+2     :     0.002247
      f-2     :     0.002002
      f+3     :     0.000692
      f-3     :     0.001684
  5 H s       :     0.740049  s :     0.740049
      pz      :     0.028562  p :     0.108301
      px      :     0.043608
      py      :     0.036132
  6 H s       :     0.715749  s :     0.715749
      pz      :     0.034185  p :     0.107010
      px      :     0.039285
      py      :     0.033539
  7 H s       :     0.721956  s :     0.721956
      pz      :     0.017297  p :     0.106575
      px      :     0.049156
      py      :     0.040121
  8 H s       :     0.819863  s :     0.819863
      pz      :     0.032900  p :     0.079020
      px      :     0.017542
      py      :     0.028579
  9 H s       :     0.821782  s :     0.821782
      pz      :     0.027342  p :     0.079251
      px      :     0.024449
      py      :     0.027461
 10 C s       :     2.830452  s :     2.830452
      pz      :     1.065549  p :     3.207431
      px      :     1.077363
      py      :     1.064519
      dz2     :     0.056542  d :     0.250743
      dxz     :     0.027807
      dyz     :     0.048234
      dx2y2   :     0.043092
      dxy     :     0.075067
      f0      :     0.002364  f :     0.024986
      f+1     :     0.002619
      f-1     :     0.004377
      f+2     :     0.003183
      f-2     :     0.004440
      f+3     :     0.004111
      f-3     :     0.003892
 11 H s       :     0.811684  s :     0.811684
      pz      :     0.016579  p :     0.059461
      px      :     0.021068
      py      :     0.021814
 12 H s       :     0.801583  s :     0.801583
      pz      :     0.010891  p :     0.061832
      px      :     0.033673
      py      :     0.017267
 13 H s       :     0.813627  s :     0.813627
      pz      :     0.021123  p :     0.065991
      px      :     0.022359
      py      :     0.022510
 14 H s       :     0.822378  s :     0.822378
      pz      :     0.014914  p :     0.065460
      px      :     0.032570
      py      :     0.017977
 15 H s       :     0.815356  s :     0.815356
      pz      :     0.032779  p :     0.065578
      px      :     0.017783
      py      :     0.015015


                      *****************************
                      * MAYER POPULATION ANALYSIS *
                      *****************************

  NA   - Mulliken gross atomic population
  ZA   - Total nuclear charge
  QA   - Mulliken gross atomic charge
  VA   - Mayer's total valence
  BVA  - Mayer's bonded valence
  FA   - Mayer's free valence

  ATOM       NA         ZA         QA         VA         BVA        FA
  0 C      6.0899     6.0000    -0.0899     3.9552     3.9552    -0.0000
  1 N      7.2623     7.0000    -0.2623     3.1610     3.1610     0.0000
  2 C      5.7243     6.0000     0.2757     4.0456     4.0456     0.0000
  3 C      6.4733     6.0000    -0.4733     3.8324     3.8324     0.0000
  4 N      7.4013     7.0000    -0.4013     3.1110     3.1110     0.0000
  5 H      0.8105     1.0000     0.1895     0.9748     0.9748    -0.0000
  6 H      0.7731     1.0000     0.2269     0.9587     0.9587    -0.0000
  7 H      0.8275     1.0000     0.1725     0.9772     0.9772     0.0000
  8 H      0.9262     1.0000     0.0738     1.0106     1.0106     0.0000
  9 H      0.9149     1.0000     0.0851     0.9874     0.9874     0.0000
 10 C      6.3438     6.0000    -0.3438     3.8682     3.8682     0.0000
 11 H      0.8934     1.0000     0.1066     0.9665     0.9665    -0.0000
 12 H      0.8937     1.0000     0.1063     0.9874     0.9874    -0.0000
 13 H      0.8738     1.0000     0.1262     0.9758     0.9758     0.0000
 14 H      0.9030     1.0000     0.0970     0.9840     0.9840     0.0000
 15 H      0.8890     1.0000     0.1110     0.9795     0.9795     0.0000

  Mayer bond orders larger than 0.100000
B(  0-C ,  1-N ) :   0.9750 B(  0-C , 10-C ) :   0.9927 B(  0-C , 11-H ) :   0.9617 
B(  0-C , 12-H ) :   0.9554 B(  1-N ,  2-C ) :   1.1515 B(  1-N ,  7-H ) :   0.9271 
B(  2-C ,  3-C ) :   1.6363 B(  2-C ,  4-N ) :   1.1796 B(  3-C ,  8-H ) :   1.0018 
B(  3-C ,  9-H ) :   0.9676 B(  4-N ,  5-H ) :   0.9167 B(  4-N ,  6-H ) :   0.9175 
B( 10-C , 13-H ) :   0.9688 B( 10-C , 14-H ) :   0.9683 B( 10-C , 15-H ) :   0.9597 


-------
TIMINGS
-------

Total SCF time: 0 days 0 hours 0 min 8 sec 

Total time                  ....       8.655 sec
Sum of individual times     ....       8.416 sec  ( 97.2%)

Fock matrix formation       ....       7.342 sec  ( 84.8%)
  Split-RI-J                ....       2.143 sec  ( 29.2% of F)
  XC integration            ....       5.135 sec  ( 69.9% of F)
    Basis function eval.    ....       1.713 sec  ( 33.4% of XC)
    Density eval.           ....       1.322 sec  ( 25.7% of XC)
    XC-Functional eval.     ....       0.249 sec  (  4.8% of XC)
    XC-Potential eval.      ....       1.631 sec  ( 31.8% of XC)
Diagonalization             ....       0.106 sec  (  1.2%)
Density matrix formation    ....       0.009 sec  (  0.1%)
Population analysis         ....       0.014 sec  (  0.2%)
Initial guess               ....       0.233 sec  (  2.7%)
Orbital Transformation      ....       0.000 sec  (  0.0%)
Orbital Orthonormalization  ....       0.000 sec  (  0.0%)
DIIS solution               ....       0.061 sec  (  0.7%)
SOSCF solution              ....       0.088 sec  (  1.0%)
Grid generation             ....       0.563 sec  (  6.5%)

Maximum memory used throughout the entire SCF-calculation: 28.1 MB


-------------------------------------------------------------------------------
                          DFT DISPERSION CORRECTION                            
                                                                               
                              DFTD3 V3.1  Rev 1                                
                          USING Becke-Johnson damping                          
-------------------------------------------------------------------------------
The PBE functional is recognized
Active option DFTDOPT                   ...         4   

molecular C6(AA) [au] = 1935.206142 


            DFT-D V3
 parameters
 s6 scaling factor         :     1.0000 
 a1 scaling factor         :     0.4289 
 s8 scaling factor         :     0.7875 
 a2 scaling factor         :     4.4407 
 ad hoc parameters k1-k3   :    16.0000     1.3333    -4.0000 

 Edisp/kcal,au: -8.055596281857  -0.012837408446 
 E6   /kcal   :  -5.827017694 
 E8   /kcal   :  -2.228578587 
 % E8         :  27.664973635 

-------------------------   ----------------
Dispersion correction           -0.012837408
-------------------------   ----------------


-------------------------   --------------------
FINAL SINGLE POINT ENERGY      -267.661120641249
-------------------------   --------------------


                            ***************************************
                            *     ORCA property calculations      *
                            ***************************************

                                    ---------------------
                                    Active property flags
                                    ---------------------
   (+) Dipole Moment


------------------------------------------------------------------------------
                       ORCA ELECTRIC PROPERTIES CALCULATION
------------------------------------------------------------------------------

Dipole Moment Calculation                       ... on
Quadrupole Moment Calculation                   ... off
Polarizability Calculation                      ... off
GBWName                                         ... TZVP_PBE_C2_wt_dlpno_pos.gbw
Electron density file                           ... TZVP_PBE_C2_wt_dlpno_pos.scfp
The origin for moment calculation is the CENTER OF MASS  = ( 3.941501, -4.659088 -7.343540)

-------------
DIPOLE MOMENT
-------------
                                X             Y             Z
Electronic contribution:      1.53336      -1.25894      -3.87940
Nuclear contribution   :     -0.86957       2.18853       4.41892
                        -----------------------------------------
Total Dipole Moment    :      0.66379       0.92959       0.53951
                        -----------------------------------------
Magnitude (a.u.)       :      1.26327
Magnitude (Debye)      :      3.21097



--------------------
Rotational spectrum 
--------------------
 
Rotational constants in cm-1:     0.214718     0.075736     0.068547 
Rotational constants in MHz :  6437.075121  2270.519635  2054.974198 

 Dipole components along the rotational axes: 
x,y,z [a.u.] :     0.632572     1.014155     0.408880 
x,y,z [Debye]:     1.607869     2.577778     1.039291 

 

Timings for individual modules:

Sum of individual times         ...       11.265 sec (=   0.188 min)
GTO integral calculation        ...        1.556 sec (=   0.026 min)  13.8 %
SCF iterations                  ...        9.710 sec (=   0.162 min)  86.2 %
                             ****ORCA TERMINATED NORMALLY****
TOTAL RUN TIME: 0 days 0 hours 0 minutes 11 seconds 867 msec
