
                                        *****************
                                        * O   R   C   A *
                                        *****************

                                            #,                                       
                                            ###                                      
                                            ####                                     
                                            #####                                    
                                            ######                                   
                                           ########,                                 
                                     ,,################,,,,,                         
                               ,,#################################,,                 
                          ,,##########################################,,             
                       ,#########################################, ''#####,          
                    ,#############################################,,   '####,        
                  ,##################################################,,,,####,       
                ,###########''''           ''''###############################       
              ,#####''   ,,,,##########,,,,          '''####'''          '####       
            ,##' ,,,,###########################,,,                        '##       
           ' ,,###''''                  '''############,,,                           
         ,,##''                                '''############,,,,        ,,,,,,###''
      ,#''                                            '''#######################'''  
     '                                                          ''''####''''         
             ,#######,   #######,   ,#######,      ##                                
            ,#'     '#,  ##    ##  ,#'     '#,    #''#        ######   ,####,        
            ##       ##  ##   ,#'  ##            #'  '#       #        #'  '#        
            ##       ##  #######   ##           ,######,      #####,   #    #        
            '#,     ,#'  ##    ##  '#,     ,#' ,#      #,         ##   #,  ,#        
             '#######'   ##     ##  '#######'  #'      '#     #####' # '####'        



                  #######################################################
                  #                        -***-                        #
                  #          Department of theory and spectroscopy      #
                  #    Directorship and core code : Frank Neese         #
                  #        Max Planck Institute fuer Kohlenforschung    #
                  #                Kaiser Wilhelm Platz 1               #
                  #                 D-45470 Muelheim/Ruhr               #
                  #                      Germany                        #
                  #                                                     #
                  #                  All rights reserved                #
                  #                        -***-                        #
                  #######################################################


                         Program Version 5.0.0 -  RELEASE  -
                                (SVN: $Rev: 19529$)
                ($Date: 2021-06-28 11:36:33 +0200 (Mo, 28 Jun 2021) $)


 With contributions from (in alphabetic order):
   Daniel Aravena         : Magnetic Suceptibility
   Michael Atanasov       : Ab Initio Ligand Field Theory (pilot matlab implementation)
   Alexander A. Auer      : GIAO ZORA, VPT2 properties, NMR spectrum
   Ute Becker             : Parallelization
   Giovanni Bistoni       : ED, misc. LED, open-shell LED, HFLD
   Martin Brehm           : Molecular dynamics
   Dmytro Bykov           : SCF Hessian
   Vijay G. Chilkuri      : MRCI spin determinant printing, contributions to CSF-ICE
   Dipayan Datta          : RHF DLPNO-CCSD density
   Achintya Kumar Dutta   : EOM-CC, STEOM-CC
   Dmitry Ganyushin       : Spin-Orbit,Spin-Spin,Magnetic field MRCI
   Miquel Garcia          : C-PCM Hessian, Gaussian charge scheme
   Yang Guo               : DLPNO-NEVPT2, F12-NEVPT2, CIM, IAO-localization
   Andreas Hansen         : Spin unrestricted coupled pair/coupled cluster methods
   Benjamin Helmich-Paris : MC-RPA, TRAH-SCF, COSX integrals
   Lee Huntington         : MR-EOM, pCC
   Robert Izsak           : Overlap fitted RIJCOSX, COSX-SCS-MP3, EOM
   Marcus Kettner         : VPT2
   Christian Kollmar      : KDIIS, OOCD, Brueckner-CCSD(T), CCSD density, CASPT2, CASPT2-K
   Simone Kossmann        : Meta GGA functionals, TD-DFT gradient, OOMP2, MP2 Hessian
   Martin Krupicka        : Initial AUTO-CI
   Lucas Lang             : DCDCAS
   Marvin Lechner         : AUTO-CI (C++ implementation), FIC-MRCC
   Dagmar Lenk            : GEPOL surface, SMD
   Dimitrios Liakos       : Extrapolation schemes; Compound Job, initial MDCI parallelization
   Dimitrios Manganas     : Further ROCIS development; embedding schemes
   Dimitrios Pantazis     : SARC Basis sets
   Anastasios Papadopoulos: AUTO-CI, single reference methods and gradients
   Taras Petrenko         : DFT Hessian,TD-DFT gradient, ASA, ECA, R-Raman, ABS, FL, XAS/XES, NRVS
   Peter Pinski           : DLPNO-MP2, DLPNO-MP2 Gradient
   Christoph Reimann      : Effective Core Potentials
   Marius Retegan         : Local ZFS, SOC
   Christoph Riplinger    : Optimizer, TS searches, QM/MM, DLPNO-CCSD(T), (RO)-DLPNO pert. Triples
   Tobias Risthaus        : Range-separated hybrids, TD-DFT gradient, RPA, STAB
   Michael Roemelt        : Original ROCIS implementation
   Masaaki Saitow         : Open-shell DLPNO-CCSD energy and density
   Barbara Sandhoefer     : DKH picture change effects
   Avijit Sen             : IP-ROCIS
   Kantharuban Sivalingam : CASSCF convergence, NEVPT2, FIC-MRCI
   Bernardo de Souza      : ESD, SOC TD-DFT
   Georgi Stoychev        : AutoAux, RI-MP2 NMR
   Willem Van den Heuvel  : Paramagnetic NMR
   Boris Wezisla          : Elementary symmetry handling
   Frank Wennmohs         : Technical directorship


 We gratefully acknowledge several colleagues who have allowed us to
 interface, adapt or use parts of their codes:
   Stefan Grimme, W. Hujo, H. Kruse, P. Pracht,  : VdW corrections, initial TS optimization,
                  C. Bannwarth, S. Ehlert          DFT functionals, gCP, sTDA/sTD-DF
   Ed Valeev, F. Pavosevic, A. Kumar             : LibInt (2-el integral package), F12 methods
   Garnet Chan, S. Sharma, J. Yang, R. Olivares  : DMRG
   Ulf Ekstrom                                   : XCFun DFT Library
   Mihaly Kallay                                 : mrcc  (arbitrary order and MRCC methods)
   Jiri Pittner, Ondrej Demel                    : Mk-CCSD
   Frank Weinhold                                : gennbo (NPA and NBO analysis)
   Christopher J. Cramer and Donald G. Truhlar   : smd solvation model
   Lars Goerigk                                  : TD-DFT with DH, B97 family of functionals
   V. Asgeirsson, H. Jonsson                     : NEB implementation
   FAccTs GmbH                                   : IRC, NEB, NEB-TS, DLPNO-Multilevel, CI-OPT
                                                   MM, QMMM, 2- and 3-layer-ONIOM, Crystal-QMMM,
                                                   LR-CPCM, SF, NACMEs, symmetry and pop. for TD-DFT,
                                                   nearIR, NL-DFT gradient (VV10), updates on ESD,
                                                   ML-optimized integration grids
   S Lehtola, MJT Oliveira, MAL Marques          : LibXC Library
   Liviu Ungur et al                             : ANISO software


 Your calculation uses the libint2 library for the computation of 2-el integrals
 For citations please refer to: http://libint.valeyev.net

 Your ORCA version has been built with support for libXC version: 5.1.0
 For citations please refer to: https://tddft.org/programs/libxc/

 This ORCA versions uses:
   CBLAS   interface :  Fast vector & matrix operations
   LAPACKE interface :  Fast linear algebra routines
   SCALAPACK package :  Parallel linear algebra routines
   Shared memory     :  Shared parallel matrices
   BLAS/LAPACK       :  OpenBLAS 0.3.15  USE64BITINT DYNAMIC_ARCH NO_AFFINITY Haswell SINGLE_THREADED
        Core in use  :  Haswell
   Copyright (c) 2011-2014, The OpenBLAS Project




***************************************
The coordinates will be read from file: B.xyz
***************************************


XCFun DFT library Copyright 2009-2010 Ulf Ekstrom and contributors.
See http://admol.org/xcfun for more information.
This is free software; see the source code for copying conditions.
There is ABSOLUTELY NO WARRANTY; not even for MERCHANTABILITY or FITNESS FOR A PARTICULAR PURPOSE.
For details see the documentation.
Scientific users of this library should cite U. Ekstrom, L. Visscher, R. Bast, A. J. Thorvaldsen and K. Ruud;
J.Chem.Theor.Comp. 2010, DOI: 10.1021/ct100117s
XCFun Version 0.99 

================================================================================

----- Orbital basis set information -----
Your calculation utilizes the basis: def2-TZVP
   F. Weigend and R. Ahlrichs, Phys. Chem. Chem. Phys. 7, 3297 (2005).

----- AuxJ basis set information -----
Your calculation utilizes the auxiliary basis: def2/J
   F. Weigend, Phys. Chem. Chem. Phys. 8, 1057 (2006).

================================================================================
                                        WARNINGS
                       Please study these warnings very carefully!
================================================================================


INFO   : the flag for use of the SHARK integral package has been found!

================================================================================
                                       INPUT FILE
================================================================================
NAME = CAMB3LYP_B_wt_wb97.com
|  1> !CAM-B3LYP RIJCOSX def2-TZVP def2/J TightSCF xyzfile                                                                                         
|  2> 
|  3> *xyzfile 0 1 B.xyz
|  4> 
|  5> %MaxCore 64000
|  6> 
|  7> %pal nprocs 18                                                                                                                                                  
|  8> end  
|  9> 
| 10> %scf
| 11>   MaxIter 150
| 12> end
| 13> 
| 14> 
| 15>                          ****END OF INPUT****
================================================================================

                       ****************************
                       * Single Point Calculation *
                       ****************************

---------------------------------
CARTESIAN COORDINATES (ANGSTROEM)
---------------------------------
  C     -4.382623   -1.670889    1.216201
  N     -5.763539   -1.915170    0.705012
  C     -3.281728   -2.191272    0.294361
  C     -5.572364   -5.807798   -0.816445
  S     -6.903179   -4.619033   -0.528458
  H     -5.840812   -2.115205   -0.300646
  H     -6.408823   -1.148656    0.936124
  H     -6.174781   -2.790606    1.051433
  O     -8.114853   -5.250932   -0.957007
  O     -6.532715   -3.426838   -1.314848
  H     -4.328618   -2.139223    2.198103
  H     -4.261583   -0.597399    1.357248
  O     -6.865632   -4.294957    0.914118
  C     -3.474641   -3.605898   -0.259608
  H     -2.354548   -2.127602    0.871433
  H     -3.166611   -1.499693   -0.545037
  C     -3.827078   -4.661097    0.786174
  H     -2.560559   -3.889391   -0.788050
  H     -4.255932   -3.570040   -1.019300
  C     -4.457800   -5.941875    0.229195
  H     -5.177347   -5.542575   -1.797714
  H     -6.074202   -6.768894   -0.921272
  H     -4.530506   -4.253640    1.511979
  H     -2.933400   -4.932302    1.356825
  H     -3.681064   -6.562236   -0.229885
  H     -4.843942   -6.512728    1.075805

----------------------------
CARTESIAN COORDINATES (A.U.)
----------------------------
  NO LB      ZA    FRAG     MASS         X           Y           Z
   0 C     6.0000    0    12.011   -8.281957   -3.157523    2.298287
   1 N     7.0000    0    14.007  -10.891510   -3.619147    1.332280
   2 C     6.0000    0    12.011   -6.201567   -4.140905    0.556262
   3 C     6.0000    0    12.011  -10.530242  -10.975147   -1.542857
   4 S    16.0000    0    32.060  -13.045117   -8.728707   -0.998641
   5 H     1.0000    0     1.008  -11.037536   -3.997158   -0.568139
   6 H     1.0000    0     1.008  -12.110920   -2.170644    1.769018
   7 H     1.0000    0     1.008  -11.668644   -5.273482    1.986920
   8 O     8.0000    0    15.999  -15.334849   -9.922823   -1.808482
   9 O     8.0000    0    15.999  -12.345041   -6.475785   -2.484703
  10 H     1.0000    0     1.008   -8.179903   -4.042546    4.153812
  11 H     1.0000    0     1.008   -8.053225   -1.128920    2.564827
  12 O     8.0000    0    15.999  -12.974164   -8.116293    1.727433
  13 C     6.0000    0    12.011   -6.566120   -6.814159   -0.490588
  14 H     1.0000    0     1.008   -4.449451   -4.020585    1.646770
  15 H     1.0000    0     1.008   -5.984027   -2.834008   -1.029971
  16 C     6.0000    0    12.011   -7.232129   -8.808197    1.485654
  17 H     1.0000    0     1.008   -4.838755   -7.349884   -1.489199
  18 H     1.0000    0     1.008   -8.042547   -6.746398   -1.926198
  19 C     6.0000    0    12.011   -8.424022  -11.228516    0.433116
  20 H     1.0000    0     1.008   -9.783769  -10.473949   -3.397187
  21 H     1.0000    0     1.008  -11.478579  -12.791355   -1.740953
  22 H     1.0000    0     1.008   -8.561415   -8.038215    2.857225
  23 H     1.0000    0     1.008   -5.543323   -9.320699    2.564028
  24 H     1.0000    0     1.008   -6.956203  -12.400830   -0.434419
  25 H     1.0000    0     1.008   -9.153725  -12.307272    2.032977

--------------------------------
INTERNAL COORDINATES (ANGSTROEM)
--------------------------------
 C      0   0   0     0.000000000000     0.00000000     0.00000000
 N      1   0   0     1.492620404576     0.00000000     0.00000000
 C      1   2   0     1.527271165696   113.85364860     0.00000000
 C      2   1   3     4.183769830082   103.56450803    41.65278983
 S      4   2   1     1.807530340894    45.29229929   171.88188071
 H      2   1   3     1.028267675998   115.86869106   341.16570027
 H      2   1   3     1.028274655845   112.43314417   215.56454340
 H      2   1   3     1.027382923456   113.22232162    92.88232079
 O      5   4   2     1.432167869849   106.56210639   179.65209807
 O      5   4   2     1.475459680108   105.16679956    58.10432916
 H      1   2   3     1.089212531080   106.51329602   237.05832219
 H      1   2   3     1.089461707082   107.96192227   121.80372268
 O      5   4   2     1.479006672739   106.30903041   301.84106447
 C      3   1   2     1.531424886912   116.24922617   314.06375280
 H      3   1   2     1.093951362295   105.82537570   190.90535411
 H      3   1   2     1.093674824362   108.88497077    77.12130327
 C     14   3   1     1.526865075683   114.81550265   310.61575984
 H     14   3   1     1.093236557125   108.00289044   187.26461446
 H     14   3   1     1.090336855166   108.17526248    73.28183800
 C     17  14   3     1.532458496274   115.06540973   161.03160049
 H      4   2   1     1.090536698315    96.74735693   275.60637407
 H      4   2   1     1.089282104870   146.60189605   139.64586714
 H     17  14   3     1.089781485131   110.28956843    40.17259369
 H     17  14   3     1.094465523081   109.87001624   283.91065690
 H     20  17  14     1.094952852592   109.50797599    76.39555392
 H     20  17  14     1.091662821498   107.50289791   191.41833857

---------------------------
INTERNAL COORDINATES (A.U.)
---------------------------
 C      0   0   0     0.000000000000     0.00000000     0.00000000
 N      1   0   0     2.820643786551     0.00000000     0.00000000
 C      1   2   0     2.886124235400   113.85364860     0.00000000
 C      2   1   3     7.906179186217   103.56450803    41.65278983
 S      4   2   1     3.415737323043    45.29229929   171.88188071
 H      2   1   3     1.943144300000   115.86869106   341.16570027
 H      2   1   3     1.943157490000   112.43314417   215.56454340
 H      2   1   3     1.941472360000   113.22232162    92.88232079
 O      5   4   2     2.706405051817   106.56210639   179.65209807
 O      5   4   2     2.788214717047   105.16679956    58.10432916
 H      1   2   3     2.058313385376   106.51329602   237.05832219
 H      1   2   3     2.058784259779   107.96192227   121.80372268
 O      5   4   2     2.794917561719   106.30903041   301.84106447
 C      3   1   2     2.893973630936   116.24922617   314.06375280
 H      3   1   2     2.067268478568   105.82537570   190.90535411
 H      3   1   2     2.066745897609   108.88497077    77.12130327
 C     14   3   1     2.885356836490   114.81550265   310.61575984
 H     14   3   1     2.065917692557   108.00289044   187.26461446
 H     14   3   1     2.060438049985   108.17526248    73.28183800
 C     17  14   3     2.895926869558   115.06540973   161.03160049
 H      4   2   1     2.060815698807    96.74735693   275.60637407
 H      4   2   1     2.058444860785   146.60189605   139.64586714
 H     17  14   3     2.059388552715   110.28956843    40.17259369
 H     17  14   3     2.068240101641   109.87001624   283.91065690
 H     20  17  14     2.069161020955   109.50797599    76.39555392
 H     20  17  14     2.062943763215   107.50289791   191.41833857

---------------------
BASIS SET INFORMATION
---------------------
There are 5 groups of distinct atoms

 Group   1 Type C   : 11s6p2d1f contracted to 5s3p2d1f pattern {62111/411/11/1}
 Group   2 Type N   : 11s6p2d1f contracted to 5s3p2d1f pattern {62111/411/11/1}
 Group   3 Type S   : 14s9p3d1f contracted to 5s5p2d1f pattern {73211/51111/21/1}
 Group   4 Type H   : 5s1p contracted to 3s1p pattern {311/1}
 Group   5 Type O   : 11s6p2d1f contracted to 5s3p2d1f pattern {62111/411/11/1}

Atom   0C    basis set group =>   1
Atom   1N    basis set group =>   2
Atom   2C    basis set group =>   1
Atom   3C    basis set group =>   1
Atom   4S    basis set group =>   3
Atom   5H    basis set group =>   4
Atom   6H    basis set group =>   4
Atom   7H    basis set group =>   4
Atom   8O    basis set group =>   5
Atom   9O    basis set group =>   5
Atom  10H    basis set group =>   4
Atom  11H    basis set group =>   4
Atom  12O    basis set group =>   5
Atom  13C    basis set group =>   1
Atom  14H    basis set group =>   4
Atom  15H    basis set group =>   4
Atom  16C    basis set group =>   1
Atom  17H    basis set group =>   4
Atom  18H    basis set group =>   4
Atom  19C    basis set group =>   1
Atom  20H    basis set group =>   4
Atom  21H    basis set group =>   4
Atom  22H    basis set group =>   4
Atom  23H    basis set group =>   4
Atom  24H    basis set group =>   4
Atom  25H    basis set group =>   4
---------------------------------
AUXILIARY/J BASIS SET INFORMATION
---------------------------------
There are 5 groups of distinct atoms

 Group   1 Type C   : 12s5p4d2f1g contracted to 6s4p3d1f1g pattern {711111/2111/211/2/1}
 Group   2 Type N   : 12s5p4d2f1g contracted to 6s4p3d1f1g pattern {711111/2111/211/2/1}
 Group   3 Type S   : 14s5p5d2f1g contracted to 8s4p3d1f1g pattern {71111111/2111/311/2/1}
 Group   4 Type H   : 5s2p1d contracted to 3s1p1d pattern {311/2/1}
 Group   5 Type O   : 12s5p4d2f1g contracted to 6s4p3d1f1g pattern {711111/2111/211/2/1}

Atom   0C    basis set group =>   1
Atom   1N    basis set group =>   2
Atom   2C    basis set group =>   1
Atom   3C    basis set group =>   1
Atom   4S    basis set group =>   3
Atom   5H    basis set group =>   4
Atom   6H    basis set group =>   4
Atom   7H    basis set group =>   4
Atom   8O    basis set group =>   5
Atom   9O    basis set group =>   5
Atom  10H    basis set group =>   4
Atom  11H    basis set group =>   4
Atom  12O    basis set group =>   5
Atom  13C    basis set group =>   1
Atom  14H    basis set group =>   4
Atom  15H    basis set group =>   4
Atom  16C    basis set group =>   1
Atom  17H    basis set group =>   4
Atom  18H    basis set group =>   4
Atom  19C    basis set group =>   1
Atom  20H    basis set group =>   4
Atom  21H    basis set group =>   4
Atom  22H    basis set group =>   4
Atom  23H    basis set group =>   4
Atom  24H    basis set group =>   4
Atom  25H    basis set group =>   4


           ************************************************************
           *        Program running with 18 parallel MPI-processes    *
           *              working on a common directory               *
           ************************************************************
------------------------------------------------------------------------------
                           ORCA GTO INTEGRAL CALCULATION
                           -- RI-GTO INTEGRALS CHOSEN --
------------------------------------------------------------------------------
------------------------------------------------------------------------------
                   ___                                                        
                  /   \      - P O W E R E D   B Y -                         
                 /     \                                                     
                 |  |  |   _    _      __       _____    __    __             
                 |  |  |  | |  | |    /  \     |  _  \  |  |  /  |          
                  \  \/   | |  | |   /    \    | | | |  |  | /  /          
                 / \  \   | |__| |  /  /\  \   | |_| |  |  |/  /          
                |  |  |   |  __  | /  /__\  \  |    /   |      \           
                |  |  |   | |  | | |   __   |  |    \   |  |\   \          
                \     /   | |  | | |  |  |  |  | |\  \  |  | \   \       
                 \___/    |_|  |_| |__|  |__|  |_| \__\ |__|  \__/        
                                                                              
                      - O R C A' S   B I G   F R I E N D -                    
                                      &                                       
                       - I N T E G R A L  F E E D E R -                       
                                                                              
 v1 FN, 2020, v2 2021                                                         
------------------------------------------------------------------------------


Reading SHARK input file CAMB3LYP_B_wt_wb97.SHARKINP.tmp ... ok
----------------------
SHARK INTEGRAL PACKAGE
----------------------

Number of atoms                             ...     26
Number of basis functions                   ...    437
Number of shells                            ...    183
Maximum angular momentum                    ...      3
Integral batch strategy                     ... SHARK/LIBINT Hybrid
RI-J (if used) integral strategy            ... SPLIT-RIJ (Revised 2003 algorithm where possible)
Printlevel                                  ...      1
Contraction scheme used                     ... SEGMENTED contraction
Coulomb Range Separation                    ... NOT USED
Exchange Range Separation                   ... Long Range
   Mu parameter                             ...  0.330000
   Scaling (regular/separated)              ...  0.190000  0.460000
Finite Nucleus Model                        ... NOT USED
Auxiliary Coulomb fitting basis             ... AVAILABLE
   # of basis functions in Aux-J            ...    706
   # of shells in Aux-J                     ...    242
   Maximum angular momentum in Aux-J        ...      4
Auxiliary J/K fitting basis                 ... NOT available
Auxiliary Correlation fitting basis         ... NOT available
Auxiliary 'external' fitting basis          ... NOT available
Integral threshold                          ...     2.500000e-11
Primitive cut-off                           ...     2.500000e-12
Primitive pair pre-selection threshold      ...     2.500000e-12

Calculating pre-screening integrals         ... done (  0.2 sec) Dimension = 183
Organizing shell pair data                  ... done (  0.2 sec)
Shell pair information
Total number of shell pairs                 ...     16836
Shell pairs after pre-screening             ...     14723
Total number of primitive shell pairs       ...     50704
Primitive shell pairs kept                  ...     31634
          la=0 lb=0:   4293 shell pairs
          la=1 lb=0:   4411 shell pairs
          la=1 lb=1:   1165 shell pairs
          la=2 lb=0:   1913 shell pairs
          la=2 lb=1:    996 shell pairs
          la=2 lb=2:    231 shell pairs
          la=3 lb=0:    930 shell pairs
          la=3 lb=1:    498 shell pairs
          la=3 lb=2:    225 shell pairs
          la=3 lb=3:     61 shell pairs

Calculating one electron integrals          ... done (  0.0 sec)
Calculating RI/J V-Matrix + Cholesky decomp.... done (  0.1 sec)
Calculating Nuclear repulsion               ... done (  0.0 sec) ENN=    871.992021747332 Eh

SHARK setup successfully completed in   0.6 seconds

Maximum memory used throughout the entire GTOINT-calculation: 23.8 MB


           ************************************************************
           *        Program running with 18 parallel MPI-processes    *
           *              working on a common directory               *
           ************************************************************
-------------------------------------------------------------------------------
                                 ORCA SCF
-------------------------------------------------------------------------------

------------
SCF SETTINGS
------------
Hamiltonian:
 Density Functional     Method          .... DFT(GTOs)
 Exchange Functional    Exchange        .... WB88
 Correlation Functional Correlation     .... LYP
 LDA part of GGA corr.  LDAOpt          .... VWN-5
 Gradients option       PostSCFGGA      .... off
 Hybrid DFT is turned on
   Fraction HF Exchange ScalHFX         ....  0.190000
   Scaling of DF-GGA-X  ScalDFX         ....  0.350000
   Scaling of DF-GGA-C  ScalDFC         ....  0.810000
   Scaling of DF-LDA-C  ScalLDAC        ....  1.000000
   Perturbative correction              ....  0.000000
   Density functional embedding theory  .... OFF
 Long-range corrected/Screened/Range-Separated Hybrid DFT is turned on
   Amount of maximum screened exact exchange              ....  0.460000
   Range separation parameter mu (erf(mu*r12)/r12)        ....  0.330000
 RI-approximation to the Coulomb term is turned on
   Number of AuxJ basis functions       .... 706
   RIJ-COSX (HFX calculated with COS-X)).... on


General Settings:
 Integral files         IntName         .... CAMB3LYP_B_wt_wb97
 Hartree-Fock type      HFTyp           .... RHF
 Total Charge           Charge          ....    0
 Multiplicity           Mult            ....    1
 Number of Electrons    NEL             ....   98
 Basis Dimension        Dim             ....  437
 Nuclear Repulsion      ENuc            ....    871.9920217473 Eh

Convergence Acceleration:
 DIIS                   CNVDIIS         .... on
   Start iteration      DIISMaxIt       ....    12
   Startup error        DIISStart       ....  0.200000
   # of expansion vecs  DIISMaxEq       ....     5
   Bias factor          DIISBfac        ....   1.050
   Max. coefficient     DIISMaxC        ....  10.000
 Trust-Rad. Augm. Hess. CNVTRAH         .... auto
   Auto Start mean grad. ratio tolernc. ....  1.125000
   Auto Start start iteration           ....    20
   Auto Start num. interpolation iter.  ....    10
   Max. Number of Micro iterations      ....    16
   Max. Number of Macro iterations      .... Maxiter - #DIIS iter
   Number of Davidson start vectors     ....     2
   Converg. threshold I  (grad. norm)   ....   1.000e-05
   Converg. threshold II (energy diff.) ....   1.000e-08
   Grad. Scal. Fac. for Micro threshold ....   0.100
   Minimum threshold for Micro iter.    ....   0.010
   NR start threshold (gradient norm)   ....   0.001
   Initial trust radius                 ....   0.400
   Minimum AH scaling param. (alpha)    ....   1.000
   Maximum AH scaling param. (alpha)    .... 1000.000
   Orbital update algorithm             .... Taylor
   White noise on init. David. guess    .... on
   Maximum white noise                  ....   0.010
   Quad. conv. algorithm                .... NR
 SOSCF                  CNVSOSCF        .... on
   Start iteration      SOSCFMaxIt      ....   150
   Startup grad/error   SOSCFStart      ....  0.003300
 Level Shifting         CNVShift        .... on
   Level shift para.    LevelShift      ....    0.2500
   Turn off err/grad.   ShiftErr        ....    0.0010
 Zerner damping         CNVZerner       .... off
 Static damping         CNVDamp         .... on
   Fraction old density DampFac         ....    0.7000
   Max. Damping (<1)    DampMax         ....    0.9800
   Min. Damping (>=0)   DampMin         ....    0.0000
   Turn off err/grad.   DampErr         ....    0.1000
 Fernandez-Rico         CNVRico         .... off

SCF Procedure:
 Maximum # iterations   MaxIter         ....   150
 SCF integral mode      SCFMode         .... Direct
   Integral package                     .... SHARK and LIBINT hybrid scheme
 Reset frequency        DirectResetFreq ....    20
 Integral Threshold     Thresh          ....  2.500e-11 Eh
 Primitive CutOff       TCut            ....  2.500e-12 Eh

Convergence Tolerance:
 Convergence Check Mode ConvCheckMode   .... Total+1el-Energy
 Convergence forced     ConvForced      .... 0
 Energy Change          TolE            ....  1.000e-08 Eh
 1-El. energy change                    ....  1.000e-05 Eh
 Orbital Gradient       TolG            ....  1.000e-05
 Orbital Rotation angle TolX            ....  1.000e-05
 DIIS Error             TolErr          ....  5.000e-07


Diagonalization of the overlap matrix:
Smallest eigenvalue                        ... 8.580e-05
Time for diagonalization                   ...    0.047 sec
Threshold for overlap eigenvalues          ... 1.000e-08
Number of eigenvalues below threshold      ... 0
Time for construction of square roots      ...    0.079 sec
Total time needed                          ...    0.129 sec

Time for model grid setup =    0.158 sec

------------------------------
INITIAL GUESS: MODEL POTENTIAL
------------------------------
Loading Hartree-Fock densities                     ... done
Calculating cut-offs                               ... done
Initializing the effective Hamiltonian             ... done
Setting up the integral package (SHARK)            ... done
Starting the Coulomb interaction                   ... done (   0.1 sec)
Reading the grid                                   ... done
Mapping shells                                     ... done
Starting the XC term evaluation                    ... done (   0.1 sec)
  promolecular density results
     # of electrons  =     97.991343560
     EX              =    -91.217132944
     EC              =     -3.404877145
     EX+EC           =    -94.622010089
Transforming the Hamiltonian                       ... done (   0.0 sec)
Diagonalizing the Hamiltonian                      ... done (   0.1 sec)
Back transforming the eigenvectors                 ... done (   0.0 sec)
Now organizing SCF variables                       ... done
                      ------------------
                      INITIAL GUESS DONE (   0.5 sec)
                      ------------------
-------------------
DFT GRID GENERATION
-------------------

General Integration Accuracy     IntAcc      ... 4.388
Radial Grid Type                 RadialGrid  ... OptM3 with GC (2021)
Angular Grid (max. ang.)         AngularGrid ... 4 (Lebedev-302)
Angular grid pruning method      GridPruning ... 4 (adaptive)
Weight generation scheme         WeightScheme... Becke
Basis function cutoff            BFCut       ... 1.0000e-11
Integration weight cutoff        WCut        ... 1.0000e-14
Angular grids for H and He will be reduced by one unit
Partially contracted basis set               ... off
Rotationally invariant grid construction     ... off

Total number of grid points                  ...   114626
Total number of batches                      ...     1805
Average number of points per batch           ...       63
Average number of grid points per atom       ...     4409
Time for grid setup =    0.875 sec

--------------------
COSX GRID GENERATION
--------------------

GRIDX 1
-------
General Integration Accuracy     IntAcc      ... 3.816
Radial Grid Type                 RadialGrid  ... OptM3 with GC (2021)
Angular Grid (max. ang.)         AngularGrid ... 1 (Lebedev-50)
Angular grid pruning method      GridPruning ... 4 (adaptive)
Weight generation scheme         WeightScheme... Becke
Basis function cutoff            BFCut       ... 1.0000e-11
Integration weight cutoff        WCut        ... 1.0000e-14
Angular grids for H and He will be reduced by one unit
Partially contracted basis set               ... on
Rotationally invariant grid construction     ... off

Total number of grid points                  ...    14552
Total number of batches                      ...      243
Average number of points per batch           ...       59
Average number of grid points per atom       ...      560
UseSFitting                                  ... on

GRIDX 2
-------
General Integration Accuracy     IntAcc      ... 4.020
Radial Grid Type                 RadialGrid  ... OptM3 with GC (2021)
Angular Grid (max. ang.)         AngularGrid ... 2 (Lebedev-110)
Angular grid pruning method      GridPruning ... 4 (adaptive)
Weight generation scheme         WeightScheme... Becke
Basis function cutoff            BFCut       ... 1.0000e-11
Integration weight cutoff        WCut        ... 1.0000e-14
Angular grids for H and He will be reduced by one unit
Partially contracted basis set               ... on
Rotationally invariant grid construction     ... off

Total number of grid points                  ...    30710
Total number of batches                      ...      493
Average number of points per batch           ...       62
Average number of grid points per atom       ...     1181
UseSFitting                                  ... on

GRIDX 3
-------
General Integration Accuracy     IntAcc      ... 4.338
Radial Grid Type                 RadialGrid  ... OptM3 with GC (2021)
Angular Grid (max. ang.)         AngularGrid ... 3 (Lebedev-194)
Angular grid pruning method      GridPruning ... 4 (adaptive)
Weight generation scheme         WeightScheme... Becke
Basis function cutoff            BFCut       ... 1.0000e-11
Integration weight cutoff        WCut        ... 1.0000e-14
Angular grids for H and He will be reduced by one unit
Partially contracted basis set               ... on
Rotationally invariant grid construction     ... off

Total number of grid points                  ...    67476
Total number of batches                      ...     1067
Average number of points per batch           ...       63
Average number of grid points per atom       ...     2595
UseSFitting                                  ... on

Time for X-Grid setup             =    0.851 sec

--------------
SCF ITERATIONS
--------------
ITER       Energy         Delta-E        Max-DP      RMS-DP      [F,P]     Damp
               ***  Starting incremental Fock matrix formation  ***
  0   -915.8496952901   0.000000000000 0.09710405  0.00097403  0.2845953 0.7000
  1   -916.0461868575  -0.196491567335 0.05398715  0.00075616  0.1254769 0.7000
                               ***Turning on DIIS***
  2   -916.1286309920  -0.082444134543 0.10053666  0.00145727  0.0413473 0.0000
  3   -916.2629829786  -0.134351986573 0.04060545  0.00044148  0.0691579 0.0000
  4   -916.2871264822  -0.024143503640 0.01523557  0.00014603  0.0097170 0.0000
  5   -916.2878833064  -0.000756824225 0.00456647  0.00004864  0.0046664 0.0000
                      *** Initiating the SOSCF procedure ***
                           *** Shutting down DIIS ***
                      *** Re-Reading the Fockian *** 
                      *** Removing any level shift *** 
ITER      Energy       Delta-E        Grad      Rot      Max-DP    RMS-DP
  6   -916.28796832  -0.0000850183  0.000185  0.000185  0.002030  0.000028
               *** Restarting incremental Fock matrix formation ***
  7   -916.28797521  -0.0000068879  0.000113  0.000223  0.001109  0.000012
  8   -916.28797478   0.0000004312  0.000113  0.000095  0.000417  0.000005
  9   -916.28797625  -0.0000014653  0.000012  0.000018  0.000107  0.000001
 10   -916.28797625  -0.0000000030  0.000017  0.000013  0.000056  0.000001
                  ***Gradient check signals convergence***
              ***Rediagonalizing the Fockian in SOSCF/NRSCF***

               *****************************************************
               *                     SUCCESS                       *
               *           SCF CONVERGED AFTER  11 CYCLES          *
               *****************************************************

Old exchange energy                            =    -25.411285407 Eh
New exchange energy                            =    -25.411319919 Eh
Exchange energy change after final integration =     -0.000034512 Eh
Total energy after final integration           =   -916.288010785 Eh
Final COS-X integration done in                =     7.969 sec

----------------
TOTAL SCF ENERGY
----------------

Total Energy       :         -916.28801078 Eh          -24933.46437 eV

Components:
Nuclear Repulsion  :          871.99202175 Eh           23728.10923 eV
Electronic Energy  :        -1788.28003253 Eh          -48661.57359 eV
One Electron Energy:        -2988.73501322 Eh          -81327.61433 eV
Two Electron Energy:         1200.45498069 Eh           32666.04073 eV
Max COSX asymmetry :            0.00000176 Eh               0.00005 eV

Virial components:
Potential Energy   :        -1829.69516248 Eh          -49788.53657 eV
Kinetic Energy     :          913.40715170 Eh           24855.07221 eV
Virial Ratio       :            2.00315397


DFT components:
N(Alpha)           :       48.999933474333 electrons
N(Beta)            :       48.999933474333 electrons
N(Total)           :       97.999866948665 electrons
E(XC)              :      -71.315872181786 Eh       
DFET-embed. en.    :        0.000000000000 Eh       

---------------
SCF CONVERGENCE
---------------

  Last Energy change         ...   -2.2355e-08  Tolerance :   1.0000e-08
  Last MAX-Density change    ...    2.2204e-15  Tolerance :   1.0000e-07
  Last RMS-Density change    ...    1.9199e-17  Tolerance :   5.0000e-09
  Last Orbital Gradient      ...    1.2177e-06  Tolerance :   1.0000e-05
  Last Orbital Rotation      ...    2.4908e-06  Tolerance :   1.0000e-05

             **** THE GBW FILE WAS UPDATED (CAMB3LYP_B_wt_wb97.gbw) ****
             **** DENSITY CAMB3LYP_B_wt_wb97.scfp WAS UPDATED ****
             **** ENERGY FILE WAS UPDATED (CAMB3LYP_B_wt_wb97.en.tmp) ****
             **** THE GBW FILE WAS UPDATED (CAMB3LYP_B_wt_wb97.gbw) ****
             **** DENSITY CAMB3LYP_B_wt_wb97.scfp WAS UPDATED ****
----------------
ORBITAL ENERGIES
----------------

  NO   OCC          E(Eh)            E(eV) 
   0   2.0000     -89.086171     -2424.1579 
   1   2.0000     -19.152527      -521.1668 
   2   2.0000     -19.148308      -521.0519 
   3   2.0000     -19.135562      -520.7051 
   4   2.0000     -14.495611      -394.4456 
   5   2.0000     -10.332295      -281.1560 
   6   2.0000     -10.278275      -279.6861 
   7   2.0000     -10.252018      -278.9716 
   8   2.0000     -10.249333      -278.8985 
   9   2.0000     -10.247442      -278.8471 
  10   2.0000     -10.246047      -278.8091 
  11   2.0000      -8.130022      -221.2292 
  12   2.0000      -6.094517      -165.8402 
  13   2.0000      -6.093938      -165.8245 
  14   2.0000      -6.092616      -165.7885 
  15   2.0000      -1.180371       -32.1195 
  16   2.0000      -1.091287       -29.6954 
  17   2.0000      -1.039726       -28.2924 
  18   2.0000      -1.036832       -28.2136 
  19   2.0000      -0.916262       -24.9327 
  20   2.0000      -0.875038       -23.8110 
  21   2.0000      -0.823783       -22.4163 
  22   2.0000      -0.771331       -20.9890 
  23   2.0000      -0.715851       -19.4793 
  24   2.0000      -0.675153       -18.3719 
  25   2.0000      -0.663620       -18.0580 
  26   2.0000      -0.649206       -17.6658 
  27   2.0000      -0.612279       -16.6610 
  28   2.0000      -0.583324       -15.8731 
  29   2.0000      -0.561887       -15.2897 
  30   2.0000      -0.555952       -15.1282 
  31   2.0000      -0.540018       -14.6946 
  32   2.0000      -0.518727       -14.1153 
  33   2.0000      -0.509550       -13.8656 
  34   2.0000      -0.500919       -13.6307 
  35   2.0000      -0.489173       -13.3111 
  36   2.0000      -0.486068       -13.2266 
  37   2.0000      -0.454519       -12.3681 
  38   2.0000      -0.443386       -12.0651 
  39   2.0000      -0.439149       -11.9499 
  40   2.0000      -0.411286       -11.1916 
  41   2.0000      -0.404978       -11.0200 
  42   2.0000      -0.398052       -10.8316 
  43   2.0000      -0.388396       -10.5688 
  44   2.0000      -0.384798       -10.4709 
  45   2.0000      -0.347511        -9.4562 
  46   2.0000      -0.340779        -9.2731 
  47   2.0000      -0.331907        -9.0317 
  48   2.0000      -0.308936        -8.4066 
  49   0.0000       0.023898         0.6503 
  50   0.0000       0.063052         1.7157 
  51   0.0000       0.074800         2.0354 
  52   0.0000       0.077194         2.1006 
  53   0.0000       0.094372         2.5680 
  54   0.0000       0.101853         2.7715 
  55   0.0000       0.116762         3.1772 
  56   0.0000       0.129867         3.5339 
  57   0.0000       0.138579         3.7709 
  58   0.0000       0.148276         4.0348 
  59   0.0000       0.152799         4.1579 
  60   0.0000       0.155714         4.2372 
  61   0.0000       0.158180         4.3043 
  62   0.0000       0.176579         4.8050 
  63   0.0000       0.180287         4.9059 
  64   0.0000       0.192633         5.2418 
  65   0.0000       0.196653         5.3512 
  66   0.0000       0.206624         5.6225 
  67   0.0000       0.211650         5.7593 
  68   0.0000       0.215179         5.8553 
  69   0.0000       0.222037         6.0419 
  70   0.0000       0.244932         6.6649 
  71   0.0000       0.249236         6.7820 
  72   0.0000       0.256613         6.9828 
  73   0.0000       0.262240         7.1359 
  74   0.0000       0.266548         7.2531 
  75   0.0000       0.280933         7.6446 
  76   0.0000       0.284785         7.7494 
  77   0.0000       0.292819         7.9680 
  78   0.0000       0.298614         8.1257 
  79   0.0000       0.315111         8.5746 
  80   0.0000       0.316994         8.6258 
  81   0.0000       0.333478         9.0744 
  82   0.0000       0.353865         9.6292 
  83   0.0000       0.368557        10.0289 
  84   0.0000       0.383480        10.4350 
  85   0.0000       0.393713        10.7135 
  86   0.0000       0.403299        10.9743 
  87   0.0000       0.406776        11.0689 
  88   0.0000       0.412179        11.2159 
  89   0.0000       0.416405        11.3310 
  90   0.0000       0.425704        11.5840 
  91   0.0000       0.440113        11.9761 
  92   0.0000       0.447512        12.1774 
  93   0.0000       0.451968        12.2987 
  94   0.0000       0.456402        12.4193 
  95   0.0000       0.462431        12.5834 
  96   0.0000       0.467869        12.7314 
  97   0.0000       0.469700        12.7812 
  98   0.0000       0.476916        12.9776 
  99   0.0000       0.483409        13.1542 
 100   0.0000       0.486858        13.2481 
 101   0.0000       0.494090        13.4449 
 102   0.0000       0.501046        13.6342 
 103   0.0000       0.506780        13.7902 
 104   0.0000       0.510020        13.8783 
 105   0.0000       0.521595        14.1933 
 106   0.0000       0.525603        14.3024 
 107   0.0000       0.536627        14.6024 
 108   0.0000       0.545218        14.8361 
 109   0.0000       0.547410        14.8958 
 110   0.0000       0.554126        15.0785 
 111   0.0000       0.558636        15.2013 
 112   0.0000       0.566860        15.4251 
 113   0.0000       0.586811        15.9680 
 114   0.0000       0.600790        16.3483 
 115   0.0000       0.614414        16.7191 
 116   0.0000       0.631537        17.1850 
 117   0.0000       0.637851        17.3568 
 118   0.0000       0.652413        17.7531 
 119   0.0000       0.656397        17.8615 
 120   0.0000       0.675746        18.3880 
 121   0.0000       0.678838        18.4721 
 122   0.0000       0.693006        18.8576 
 123   0.0000       0.703844        19.1526 
 124   0.0000       0.730657        19.8822 
 125   0.0000       0.731262        19.8987 
 126   0.0000       0.752801        20.4848 
 127   0.0000       0.760927        20.7059 
 128   0.0000       0.776672        21.1343 
 129   0.0000       0.800993        21.7961 
 130   0.0000       0.819892        22.3104 
 131   0.0000       0.828309        22.5394 
 132   0.0000       0.854301        23.2467 
 133   0.0000       0.859899        23.3990 
 134   0.0000       0.881260        23.9803 
 135   0.0000       0.899495        24.4765 
 136   0.0000       0.914389        24.8818 
 137   0.0000       0.917901        24.9774 
 138   0.0000       0.931299        25.3419 
 139   0.0000       0.941193        25.6112 
 140   0.0000       0.944758        25.7082 
 141   0.0000       0.961990        26.1771 
 142   0.0000       0.990144        26.9432 
 143   0.0000       1.000311        27.2198 
 144   0.0000       1.008356        27.4388 
 145   0.0000       1.008399        27.4399 
 146   0.0000       1.036813        28.2131 
 147   0.0000       1.042608        28.3708 
 148   0.0000       1.066829        29.0299 
 149   0.0000       1.078670        29.3521 
 150   0.0000       1.086240        29.5581 
 151   0.0000       1.105317        30.0772 
 152   0.0000       1.115948        30.3665 
 153   0.0000       1.149964        31.2921 
 154   0.0000       1.157170        31.4882 
 155   0.0000       1.177356        32.0375 
 156   0.0000       1.187181        32.3048 
 157   0.0000       1.194088        32.4928 
 158   0.0000       1.219150        33.1748 
 159   0.0000       1.228545        33.4304 
 160   0.0000       1.245008        33.8784 
 161   0.0000       1.247540        33.9473 
 162   0.0000       1.273512        34.6540 
 163   0.0000       1.286811        35.0159 
 164   0.0000       1.292633        35.1743 
 165   0.0000       1.297362        35.3030 
 166   0.0000       1.344792        36.5936 
 167   0.0000       1.366554        37.1858 
 168   0.0000       1.378498        37.5108 
 169   0.0000       1.414738        38.4970 
 170   0.0000       1.423891        38.7461 
 171   0.0000       1.438355        39.1396 
 172   0.0000       1.443089        39.2685 
 173   0.0000       1.473440        40.0943 
 174   0.0000       1.483070        40.3564 
 175   0.0000       1.493689        40.6453 
 176   0.0000       1.526286        41.5323 
 177   0.0000       1.542633        41.9772 
 178   0.0000       1.547384        42.1065 
 179   0.0000       1.564383        42.5690 
 180   0.0000       1.583649        43.0933 
 181   0.0000       1.601894        43.5897 
 182   0.0000       1.605685        43.6929 
 183   0.0000       1.610399        43.8212 
 184   0.0000       1.620150        44.0865 
 185   0.0000       1.638848        44.5953 
 186   0.0000       1.645364        44.7726 
 187   0.0000       1.652626        44.9702 
 188   0.0000       1.661911        45.2229 
 189   0.0000       1.673852        45.5478 
 190   0.0000       1.683727        45.8165 
 191   0.0000       1.693033        46.0698 
 192   0.0000       1.706052        46.4240 
 193   0.0000       1.719393        46.7871 
 194   0.0000       1.726319        46.9755 
 195   0.0000       1.732654        47.1479 
 196   0.0000       1.741794        47.3966 
 197   0.0000       1.752489        47.6876 
 198   0.0000       1.773391        48.2564 
 199   0.0000       1.775265        48.3074 
 200   0.0000       1.792083        48.7651 
 201   0.0000       1.814718        49.3810 
 202   0.0000       1.827735        49.7352 
 203   0.0000       1.848503        50.3003 
 204   0.0000       1.864415        50.7333 
 205   0.0000       1.883828        51.2616 
 206   0.0000       1.889952        51.4282 
 207   0.0000       1.902631        51.7732 
 208   0.0000       1.911969        52.0273 
 209   0.0000       1.926022        52.4097 
 210   0.0000       1.944869        52.9226 
 211   0.0000       1.950890        53.0864 
 212   0.0000       1.958678        53.2983 
 213   0.0000       1.965891        53.4946 
 214   0.0000       1.970410        53.6176 
 215   0.0000       1.981801        53.9275 
 216   0.0000       2.009491        54.6810 
 217   0.0000       2.016371        54.8682 
 218   0.0000       2.038494        55.4703 
 219   0.0000       2.045594        55.6634 
 220   0.0000       2.057428        55.9855 
 221   0.0000       2.093735        56.9734 
 222   0.0000       2.107144        57.3383 
 223   0.0000       2.117671        57.6247 
 224   0.0000       2.128282        57.9135 
 225   0.0000       2.162792        58.8526 
 226   0.0000       2.182396        59.3860 
 227   0.0000       2.199362        59.8477 
 228   0.0000       2.210005        60.1373 
 229   0.0000       2.218286        60.3626 
 230   0.0000       2.250222        61.2317 
 231   0.0000       2.262712        61.5715 
 232   0.0000       2.282299        62.1045 
 233   0.0000       2.329577        63.3910 
 234   0.0000       2.334109        63.5143 
 235   0.0000       2.336967        63.5921 
 236   0.0000       2.350563        63.9621 
 237   0.0000       2.369233        64.4701 
 238   0.0000       2.396821        65.2208 
 239   0.0000       2.404752        65.4366 
 240   0.0000       2.417105        65.7728 
 241   0.0000       2.442546        66.4651 
 242   0.0000       2.447559        66.6015 
 243   0.0000       2.457014        66.8587 
 244   0.0000       2.471415        67.2506 
 245   0.0000       2.474350        67.3305 
 246   0.0000       2.493257        67.8450 
 247   0.0000       2.509452        68.2857 
 248   0.0000       2.530084        68.8471 
 249   0.0000       2.547327        69.3163 
 250   0.0000       2.549806        69.3837 
 251   0.0000       2.553227        69.4768 
 252   0.0000       2.559219        69.6399 
 253   0.0000       2.578487        70.1642 
 254   0.0000       2.583491        70.3004 
 255   0.0000       2.593774        70.5802 
 256   0.0000       2.600745        70.7699 
 257   0.0000       2.620750        71.3142 
 258   0.0000       2.627832        71.5069 
 259   0.0000       2.634323        71.6836 
 260   0.0000       2.646349        72.0108 
 261   0.0000       2.664588        72.5071 
 262   0.0000       2.669785        72.6485 
 263   0.0000       2.680805        72.9484 
 264   0.0000       2.687769        73.1379 
 265   0.0000       2.701418        73.5093 
 266   0.0000       2.709221        73.7217 
 267   0.0000       2.711178        73.7749 
 268   0.0000       2.735756        74.4437 
 269   0.0000       2.750917        74.8563 
 270   0.0000       2.759055        75.0777 
 271   0.0000       2.768799        75.3429 
 272   0.0000       2.780401        75.6586 
 273   0.0000       2.794579        76.0444 
 274   0.0000       2.812497        76.5319 
 275   0.0000       2.822755        76.8111 
 276   0.0000       2.828628        76.9709 
 277   0.0000       2.848731        77.5179 
 278   0.0000       2.852120        77.6101 
 279   0.0000       2.871006        78.1240 
 280   0.0000       2.895643        78.7944 
 281   0.0000       2.900420        78.9244 
 282   0.0000       2.917746        79.3959 
 283   0.0000       2.939794        79.9959 
 284   0.0000       2.978986        81.0623 
 285   0.0000       2.999211        81.6127 
 286   0.0000       3.016644        82.0871 
 287   0.0000       3.019542        82.1659 
 288   0.0000       3.038539        82.6829 
 289   0.0000       3.046342        82.8952 
 290   0.0000       3.090396        84.0939 
 291   0.0000       3.094345        84.2014 
 292   0.0000       3.099997        84.3552 
 293   0.0000       3.125874        85.0593 
 294   0.0000       3.143657        85.5432 
 295   0.0000       3.148049        85.6628 
 296   0.0000       3.160436        85.9998 
 297   0.0000       3.190667        86.8225 
 298   0.0000       3.192625        86.8757 
 299   0.0000       3.200880        87.1004 
 300   0.0000       3.220543        87.6354 
 301   0.0000       3.231579        87.9357 
 302   0.0000       3.243884        88.2706 
 303   0.0000       3.254495        88.5593 
 304   0.0000       3.274244        89.0967 
 305   0.0000       3.292928        89.6051 
 306   0.0000       3.295368        89.6715 
 307   0.0000       3.310414        90.0810 
 308   0.0000       3.323681        90.4419 
 309   0.0000       3.334830        90.7453 
 310   0.0000       3.346732        91.0692 
 311   0.0000       3.359284        91.4108 
 312   0.0000       3.371603        91.7460 
 313   0.0000       3.384658        92.1012 
 314   0.0000       3.401554        92.5610 
 315   0.0000       3.410880        92.8148 
 316   0.0000       3.416422        92.9656 
 317   0.0000       3.435040        93.4722 
 318   0.0000       3.440322        93.6159 
 319   0.0000       3.475629        94.5767 
 320   0.0000       3.487895        94.9105 
 321   0.0000       3.499951        95.2385 
 322   0.0000       3.509465        95.4974 
 323   0.0000       3.529897        96.0534 
 324   0.0000       3.539862        96.3245 
 325   0.0000       3.544636        96.4545 
 326   0.0000       3.581276        97.4515 
 327   0.0000       3.582837        97.4940 
 328   0.0000       3.611515        98.2743 
 329   0.0000       3.630172        98.7820 
 330   0.0000       3.654321        99.4391 
 331   0.0000       3.662625        99.6651 
 332   0.0000       3.674972       100.0011 
 333   0.0000       3.701796       100.7310 
 334   0.0000       3.721392       101.2642 
 335   0.0000       3.786302       103.0305 
 336   0.0000       3.802387       103.4682 
 337   0.0000       3.828607       104.1817 
 338   0.0000       3.841819       104.5412 
 339   0.0000       3.858080       104.9837 
 340   0.0000       3.887626       105.7877 
 341   0.0000       3.920500       106.6822 
 342   0.0000       3.929185       106.9186 
 343   0.0000       3.957581       107.6913 
 344   0.0000       3.983534       108.3975 
 345   0.0000       4.002488       108.9132 
 346   0.0000       4.025922       109.5509 
 347   0.0000       4.065331       110.6233 
 348   0.0000       4.082571       111.0924 
 349   0.0000       4.095243       111.4372 
 350   0.0000       4.110155       111.8430 
 351   0.0000       4.117276       112.0368 
 352   0.0000       4.159905       113.1968 
 353   0.0000       4.181735       113.7908 
 354   0.0000       4.209905       114.5574 
 355   0.0000       4.256516       115.8257 
 356   0.0000       4.267816       116.1332 
 357   0.0000       4.303241       117.0971 
 358   0.0000       4.349653       118.3601 
 359   0.0000       4.384294       119.3027 
 360   0.0000       4.411380       120.0398 
 361   0.0000       4.459972       121.3620 
 362   0.0000       4.477451       121.8376 
 363   0.0000       4.512998       122.8049 
 364   0.0000       4.537907       123.4827 
 365   0.0000       4.605185       125.3135 
 366   0.0000       4.636408       126.1631 
 367   0.0000       4.655177       126.6738 
 368   0.0000       4.748929       129.2249 
 369   0.0000       4.768085       129.7462 
 370   0.0000       4.792837       130.4197 
 371   0.0000       4.808710       130.8516 
 372   0.0000       4.841745       131.7506 
 373   0.0000       4.863960       132.3551 
 374   0.0000       4.900172       133.3405 
 375   0.0000       4.915110       133.7469 
 376   0.0000       4.948361       134.6518 
 377   0.0000       4.977310       135.4395 
 378   0.0000       5.018419       136.5581 
 379   0.0000       5.054670       137.5446 
 380   0.0000       5.090266       138.5132 
 381   0.0000       5.115094       139.1888 
 382   0.0000       5.146537       140.0444 
 383   0.0000       5.200999       141.5264 
 384   0.0000       5.229062       142.2900 
 385   0.0000       5.251858       142.9103 
 386   0.0000       5.264985       143.2675 
 387   0.0000       5.270375       143.4142 
 388   0.0000       5.273265       143.4928 
 389   0.0000       5.280982       143.7028 
 390   0.0000       5.283718       143.7773 
 391   0.0000       5.316375       144.6659 
 392   0.0000       5.346137       145.4758 
 393   0.0000       5.370458       146.1376 
 394   0.0000       5.392669       146.7420 
 395   0.0000       5.400964       146.9677 
 396   0.0000       5.462451       148.6408 
 397   0.0000       5.468837       148.8146 
 398   0.0000       5.500422       149.6741 
 399   0.0000       5.555410       151.1704 
 400   0.0000       5.613153       152.7417 
 401   0.0000       5.646525       153.6497 
 402   0.0000       5.689047       154.8068 
 403   0.0000       5.764942       156.8721 
 404   0.0000       5.785067       157.4197 
 405   0.0000       5.835797       158.8001 
 406   0.0000       5.873252       159.8193 
 407   0.0000       5.946691       161.8177 
 408   0.0000       6.440532       175.2558 
 409   0.0000       6.459367       175.7683 
 410   0.0000       6.474406       176.1775 
 411   0.0000       6.543235       178.0505 
 412   0.0000       6.623022       180.2216 
 413   0.0000       6.702782       182.3920 
 414   0.0000       6.816690       185.4916 
 415   0.0000       6.832747       185.9285 
 416   0.0000       6.842598       186.1966 
 417   0.0000       6.860490       186.6834 
 418   0.0000       6.990544       190.2224 
 419   0.0000       7.008028       190.6982 
 420   0.0000       7.039164       191.5454 
 421   0.0000       7.079607       192.6459 
 422   0.0000       7.110044       193.4741 
 423   0.0000       9.498550       258.4687 
 424   0.0000       9.655873       262.7496 
 425   0.0000       9.779318       266.1088 
 426   0.0000      22.362057       608.5025 
 427   0.0000      22.426771       610.2635 
 428   0.0000      22.491126       612.0147 
 429   0.0000      22.557452       613.8195 
 430   0.0000      22.576341       614.3335 
 431   0.0000      22.602128       615.0352 
 432   0.0000      22.854066       621.8907 
 433   0.0000      32.031243       871.6144 
 434   0.0000      43.733376      1190.0457 
 435   0.0000      43.832549      1192.7443 
 436   0.0000      43.891641      1194.3523 

                    ********************************
                    * MULLIKEN POPULATION ANALYSIS *
                    ********************************

-----------------------
MULLIKEN ATOMIC CHARGES
-----------------------
   0 C :   -0.230128
   1 N :   -0.277282
   2 C :   -0.188420
   3 C :   -0.323805
   4 S :    0.897295
   5 H :    0.304859
   6 H :    0.272191
   7 H :    0.301516
   8 O :   -0.479227
   9 O :   -0.604744
  10 H :    0.174642
  11 H :    0.150127
  12 O :   -0.592841
  13 C :   -0.299069
  14 H :    0.120500
  15 H :    0.132186
  16 C :   -0.240807
  17 H :    0.113249
  18 H :    0.173781
  19 C :   -0.157555
  20 H :    0.142042
  21 H :    0.152466
  22 H :    0.126918
  23 H :    0.105273
  24 H :    0.107579
  25 H :    0.119252
Sum of atomic charges:   -0.0000000

--------------------------------
MULLIKEN REDUCED ORBITAL CHARGES
--------------------------------
  0 C s       :     3.301747  s :     3.301747
      pz      :     0.989477  p :     2.819403
      px      :     0.735128
      py      :     1.094799
      dz2     :     0.028145  d :     0.101277
      dxz     :     0.016359
      dyz     :     0.009871
      dx2y2   :     0.028930
      dxy     :     0.017970
      f0      :     0.000631  f :     0.007701
      f+1     :     0.001532
      f-1     :     0.000760
      f+2     :     0.001573
      f-2     :     0.000637
      f+3     :     0.001024
      f-3     :     0.001544
  1 N s       :     3.414267  s :     3.414267
      pz      :     1.330802  p :     3.823221
      px      :     1.200048
      py      :     1.292370
      dz2     :     0.009332  d :     0.037864
      dxz     :     0.007759
      dyz     :     0.002546
      dx2y2   :     0.005291
      dxy     :     0.012936
      f0      :     0.000492  f :     0.001930
      f+1     :     0.000229
      f-1     :     0.000092
      f+2     :     0.000155
      f-2     :     0.000143
      f+3     :     0.000574
      f-3     :     0.000245
  2 C s       :     3.234641  s :     3.234641
      pz      :     0.972864  p :     2.858241
      px      :     0.941941
      py      :     0.943436
      dz2     :     0.012567  d :     0.089876
      dxz     :     0.017085
      dyz     :     0.024627
      dx2y2   :     0.016736
      dxy     :     0.018861
      f0      :     0.000244  f :     0.005662
      f+1     :     0.000548
      f-1     :     0.000922
      f+2     :     0.001746
      f-2     :     0.000656
      f+3     :     0.000998
      f-3     :     0.000548
  3 C s       :     3.252949  s :     3.252949
      pz      :     1.010778  p :     2.989246
      px      :     0.947494
      py      :     1.030974
      dz2     :     0.023261  d :     0.076816
      dxz     :     0.007784
      dyz     :     0.010440
      dx2y2   :     0.011781
      dxy     :     0.023550
      f0      :     0.000470  f :     0.004794
      f+1     :     0.001327
      f-1     :     0.000444
      f+2     :     0.000298
      f-2     :     0.000844
      f+3     :     0.000820
      f-3     :     0.000591
  4 S s       :     5.326316  s :     5.326316
      pz      :     2.796643  p :     8.518508
      px      :     2.868818
      py      :     2.853047
      dz2     :     0.249825  d :     1.136204
      dxz     :     0.212990
      dyz     :     0.215370
      dx2y2   :     0.193669
      dxy     :     0.264350
      f0      :     0.015001  f :     0.121677
      f+1     :     0.023881
      f-1     :     0.025319
      f+2     :     0.013959
      f-2     :     0.015653
      f+3     :     0.016876
      f-3     :     0.010989
  5 H s       :     0.649664  s :     0.649664
      pz      :     0.027117  p :     0.045477
      px      :     0.007106
      py      :     0.011253
  6 H s       :     0.694232  s :     0.694232
      pz      :     0.007392  p :     0.033578
      px      :     0.012456
      py      :     0.013729
  7 H s       :     0.646184  s :     0.646184
      pz      :     0.008397  p :     0.052300
      px      :     0.012200
      py      :     0.031704
  8 O s       :     3.803740  s :     3.803740
      pz      :     1.631496  p :     4.639122
      px      :     1.413843
      py      :     1.593782
      dz2     :     0.004282  d :     0.034318
      dxz     :     0.008557
      dyz     :     0.002929
      dx2y2   :     0.009321
      dxy     :     0.009230
      f0      :     0.000186  f :     0.002046
      f+1     :     0.000328
      f-1     :     0.000104
      f+2     :     0.000226
      f-2     :     0.000307
      f+3     :     0.000487
      f-3     :     0.000407
  9 O s       :     3.829033  s :     3.829033
      pz      :     1.628020  p :     4.745432
      px      :     1.687387
      py      :     1.430025
      dz2     :     0.005500  d :     0.028544
      dxz     :     0.003878
      dyz     :     0.008906
      dx2y2   :     0.005229
      dxy     :     0.005031
      f0      :     0.000155  f :     0.001735
      f+1     :     0.000054
      f-1     :     0.000380
      f+2     :     0.000327
      f-2     :     0.000282
      f+3     :     0.000277
      f-3     :     0.000260
 10 H s       :     0.804178  s :     0.804178
      pz      :     0.011884  p :     0.021179
      px      :     0.003279
      py      :     0.006016
 11 H s       :     0.828867  s :     0.828867
      pz      :     0.004473  p :     0.021006
      px      :     0.003464
      py      :     0.013069
 12 O s       :     3.828470  s :     3.828470
      pz      :     1.330740  p :     4.733765
      px      :     1.727517
      py      :     1.675508
      dz2     :     0.011901  d :     0.028908
      dxz     :     0.007678
      dyz     :     0.007623
      dx2y2   :     0.000696
      dxy     :     0.001010
      f0      :     0.000613  f :     0.001697
      f+1     :     0.000420
      f-1     :     0.000461
      f+2     :     0.000077
      f-2     :     0.000089
      f+3     :     0.000028
      f-3     :     0.000010
 13 C s       :     3.290683  s :     3.290683
      pz      :     0.952163  p :     2.918748
      px      :     1.096197
      py      :     0.870388
      dz2     :     0.012845  d :     0.084204
      dxz     :     0.022808
      dyz     :     0.018156
      dx2y2   :     0.016255
      dxy     :     0.014140
      f0      :     0.000385  f :     0.005434
      f+1     :     0.000226
      f-1     :     0.001057
      f+2     :     0.001735
      f-2     :     0.000880
      f+3     :     0.000654
      f-3     :     0.000498
 14 H s       :     0.858326  s :     0.858326
      pz      :     0.006083  p :     0.021173
      px      :     0.010873
      py      :     0.004218
 15 H s       :     0.846812  s :     0.846812
      pz      :     0.009186  p :     0.021002
      px      :     0.004180
      py      :     0.007637
 16 C s       :     3.248871  s :     3.248871
      pz      :     0.953471  p :     2.898337
      px      :     1.029522
      py      :     0.915344
      dz2     :     0.012485  d :     0.088059
      dxz     :     0.022752
      dyz     :     0.019384
      dx2y2   :     0.017313
      dxy     :     0.016123
      f0      :     0.000359  f :     0.005540
      f+1     :     0.000204
      f-1     :     0.001087
      f+2     :     0.001312
      f-2     :     0.001423
      f+3     :     0.000402
      f-3     :     0.000753
 17 H s       :     0.865537  s :     0.865537
      pz      :     0.006524  p :     0.021215
      px      :     0.010006
      py      :     0.004685
 18 H s       :     0.802630  s :     0.802630
      pz      :     0.009415  p :     0.023589
      px      :     0.010112
      py      :     0.004063
 19 C s       :     3.209887  s :     3.209887
      pz      :     0.961223  p :     2.849356
      px      :     0.942379
      py      :     0.945754
      dz2     :     0.015715  d :     0.092646
      dxz     :     0.016903
      dyz     :     0.023400
      dx2y2   :     0.013840
      dxy     :     0.022788
      f0      :     0.000431  f :     0.005666
      f+1     :     0.000801
      f-1     :     0.000633
      f+2     :     0.000909
      f-2     :     0.001454
      f+3     :     0.000524
      f-3     :     0.000914
 20 H s       :     0.836205  s :     0.836205
      pz      :     0.011757  p :     0.021753
      px      :     0.005259
      py      :     0.004736
 21 H s       :     0.825339  s :     0.825339
      pz      :     0.004523  p :     0.022195
      px      :     0.006370
      py      :     0.011303
 22 H s       :     0.850654  s :     0.850654
      pz      :     0.008476  p :     0.022428
      px      :     0.008859
      py      :     0.005093
 23 H s       :     0.873764  s :     0.873764
      pz      :     0.006760  p :     0.020963
      px      :     0.009580
      py      :     0.004623
 24 H s       :     0.871554  s :     0.871554
      pz      :     0.005328  p :     0.020867
      px      :     0.008334
      py      :     0.007205
 25 H s       :     0.859499  s :     0.859499
      pz      :     0.009264  p :     0.021248
      px      :     0.005180
      py      :     0.006805


                     *******************************
                     * LOEWDIN POPULATION ANALYSIS *
                     *******************************

----------------------
LOEWDIN ATOMIC CHARGES
----------------------
   0 C :   -0.274454
   1 N :    0.137371
   2 C :   -0.268632
   3 C :   -0.380738
   4 S :    0.473685
   5 H :    0.186166
   6 H :    0.197440
   7 H :    0.165829
   8 O :   -0.308919
   9 O :   -0.396090
  10 H :    0.140342
  11 H :    0.136554
  12 O :   -0.377718
  13 C :   -0.271737
  14 H :    0.147297
  15 H :    0.142501
  16 C :   -0.275798
  17 H :    0.140029
  18 H :    0.144093
  19 C :   -0.281295
  20 H :    0.133513
  21 H :    0.139426
  22 H :    0.133480
  23 H :    0.135009
  24 H :    0.139310
  25 H :    0.143337

-------------------------------
LOEWDIN REDUCED ORBITAL CHARGES
-------------------------------
  0 C s       :     2.794124  s :     2.794124
      pz      :     1.041399  p :     2.992703
      px      :     0.893338
      py      :     1.057966
      dz2     :     0.102523  d :     0.437821
      dxz     :     0.091522
      dyz     :     0.047821
      dx2y2   :     0.126911
      dxy     :     0.069043
      f0      :     0.004483  f :     0.049806
      f+1     :     0.009471
      f-1     :     0.004908
      f+2     :     0.007889
      f-2     :     0.006139
      f+3     :     0.006654
      f-3     :     0.010261
  1 N s       :     2.977510  s :     2.977510
      pz      :     1.273397  p :     3.724653
      px      :     1.207959
      py      :     1.243297
      dz2     :     0.037878  d :     0.150635
      dxz     :     0.028430
      dyz     :     0.011181
      dx2y2   :     0.023875
      dxy     :     0.049272
      f0      :     0.001339  f :     0.009830
      f+1     :     0.001311
      f-1     :     0.000625
      f+2     :     0.001622
      f-2     :     0.001659
      f+3     :     0.002115
      f-3     :     0.001160
  2 C s       :     2.777351  s :     2.777351
      pz      :     1.024398  p :     3.060819
      px      :     1.007838
      py      :     1.028583
      dz2     :     0.048549  d :     0.392524
      dxz     :     0.084010
      dyz     :     0.107444
      dx2y2   :     0.084574
      dxy     :     0.067946
      f0      :     0.003956  f :     0.037939
      f+1     :     0.004298
      f-1     :     0.007004
      f+2     :     0.006348
      f-2     :     0.004550
      f+3     :     0.007387
      f-3     :     0.004395
  3 C s       :     2.845080  s :     2.845080
      pz      :     1.059697  p :     3.160333
      px      :     1.044853
      py      :     1.055783
      dz2     :     0.091691  d :     0.344193
      dxz     :     0.062443
      dyz     :     0.037440
      dx2y2   :     0.051478
      dxy     :     0.101140
      f0      :     0.003209  f :     0.031132
      f+1     :     0.006050
      f-1     :     0.004339
      f+2     :     0.003533
      f-2     :     0.004661
      f+3     :     0.005412
      f-3     :     0.003928
  4 S s       :     4.731226  s :     4.731226
      pz      :     2.846758  p :     8.595708
      px      :     2.882988
      py      :     2.865961
      dz2     :     0.429234  d :     1.833602
      dxz     :     0.321564
      dyz     :     0.359431
      dx2y2   :     0.299050
      dxy     :     0.424322
      f0      :     0.050768  f :     0.365779
      f+1     :     0.065341
      f-1     :     0.073958
      f+2     :     0.041789
      f-2     :     0.047862
      f+3     :     0.049807
      f-3     :     0.036255
  5 H s       :     0.680355  s :     0.680355
      pz      :     0.082012  p :     0.133479
      px      :     0.019800
      py      :     0.031666
  6 H s       :     0.703656  s :     0.703656
      pz      :     0.023033  p :     0.098904
      px      :     0.033636
      py      :     0.042235
  7 H s       :     0.677632  s :     0.677632
      pz      :     0.024838  p :     0.156539
      px      :     0.034617
      py      :     0.097085
  8 O s       :     3.546139  s :     3.546139
      pz      :     1.591921  p :     4.692493
      px      :     1.518351
      py      :     1.582221
      dz2     :     0.008787  d :     0.065682
      dxz     :     0.014417
      dyz     :     0.004957
      dx2y2   :     0.016688
      dxy     :     0.020832
      f0      :     0.000492  f :     0.004605
      f+1     :     0.000661
      f-1     :     0.000205
      f+2     :     0.000466
      f-2     :     0.000738
      f+3     :     0.000785
      f-3     :     0.001258
  9 O s       :     3.551269  s :     3.551269
      pz      :     1.618483  p :     4.780512
      px      :     1.640847
      py      :     1.521182
      dz2     :     0.007937  d :     0.060260
      dxz     :     0.005669
      dyz     :     0.023022
      dx2y2   :     0.013217
      dxy     :     0.010415
      f0      :     0.000501  f :     0.004049
      f+1     :     0.000104
      f-1     :     0.000713
      f+2     :     0.000958
      f-2     :     0.000666
      f+3     :     0.000601
      f-3     :     0.000506
 10 H s       :     0.799251  s :     0.799251
      pz      :     0.031852  p :     0.060408
      px      :     0.010183
      py      :     0.018373
 11 H s       :     0.804033  s :     0.804033
      pz      :     0.013589  p :     0.059413
      px      :     0.010662
      py      :     0.035162
 12 O s       :     3.547586  s :     3.547586
      pz      :     1.499180  p :     4.764870
      px      :     1.652428
      py      :     1.613262
      dz2     :     0.032376  d :     0.061186
      dxz     :     0.010582
      dyz     :     0.013831
      dx2y2   :     0.001957
      dxy     :     0.002440
      f0      :     0.001774  f :     0.004075
      f+1     :     0.000725
      f-1     :     0.001169
      f+2     :     0.000134
      f-2     :     0.000187
      f+3     :     0.000074
      f-3     :     0.000014
 13 C s       :     2.769712  s :     2.769712
      pz      :     1.032972  p :     3.072330
      px      :     1.041127
      py      :     0.998232
      dz2     :     0.055265  d :     0.391149
      dxz     :     0.100305
      dyz     :     0.088007
      dx2y2   :     0.088542
      dxy     :     0.059030
      f0      :     0.005311  f :     0.038546
      f+1     :     0.002555
      f-1     :     0.007950
      f+2     :     0.006355
      f-2     :     0.005097
      f+3     :     0.006131
      f-3     :     0.005147
 14 H s       :     0.794488  s :     0.794488
      pz      :     0.018339  p :     0.058215
      px      :     0.026841
      py      :     0.013035
 15 H s       :     0.799228  s :     0.799228
      pz      :     0.024928  p :     0.058271
      px      :     0.012827
      py      :     0.020516
 16 C s       :     2.770779  s :     2.770779
      pz      :     1.024970  p :     3.069023
      px      :     1.030528
      py      :     1.013525
      dz2     :     0.052361  d :     0.397278
      dxz     :     0.099473
      dyz     :     0.096413
      dx2y2   :     0.074125
      dxy     :     0.074906
      f0      :     0.005291  f :     0.038718
      f+1     :     0.002940
      f-1     :     0.007669
      f+2     :     0.005331
      f-2     :     0.006132
      f+3     :     0.004356
      f-3     :     0.007000
 17 H s       :     0.801561  s :     0.801561
      pz      :     0.017640  p :     0.058410
      px      :     0.027139
      py      :     0.013631
 18 H s       :     0.790820  s :     0.790820
      pz      :     0.024153  p :     0.065087
      px      :     0.028377
      py      :     0.012558
 19 C s       :     2.779028  s :     2.779028
      pz      :     1.030097  p :     3.067003
      px      :     1.019976
      py      :     1.016930
      dz2     :     0.061255  d :     0.397108
      dxz     :     0.085334
      dyz     :     0.097424
      dx2y2   :     0.059216
      dxy     :     0.093880
      f0      :     0.004956  f :     0.038156
      f+1     :     0.005331
      f-1     :     0.005638
      f+2     :     0.004663
      f-2     :     0.006664
      f+3     :     0.004072
      f-3     :     0.006832
 20 H s       :     0.803703  s :     0.803703
      pz      :     0.031761  p :     0.062784
      px      :     0.016488
      py      :     0.014535
 21 H s       :     0.797872  s :     0.797872
      pz      :     0.013603  p :     0.062702
      px      :     0.017178
      py      :     0.031921
 22 H s       :     0.805027  s :     0.805027
      pz      :     0.021598  p :     0.061493
      px      :     0.024340
      py      :     0.015554
 23 H s       :     0.807082  s :     0.807082
      pz      :     0.017957  p :     0.057909
      px      :     0.025901
      py      :     0.014051
 24 H s       :     0.802756  s :     0.802756
      pz      :     0.016475  p :     0.057933
      px      :     0.022470
      py      :     0.018988
 25 H s       :     0.798267  s :     0.798267
      pz      :     0.025124  p :     0.058397
      px      :     0.015421
      py      :     0.017852


                      *****************************
                      * MAYER POPULATION ANALYSIS *
                      *****************************

  NA   - Mulliken gross atomic population
  ZA   - Total nuclear charge
  QA   - Mulliken gross atomic charge
  VA   - Mayer's total valence
  BVA  - Mayer's bonded valence
  FA   - Mayer's free valence

  ATOM       NA         ZA         QA         VA         BVA        FA
  0 C      6.2301     6.0000    -0.2301     3.8281     3.8281    -0.0000
  1 N      7.2773     7.0000    -0.2773     3.3409     3.3409    -0.0000
  2 C      6.1884     6.0000    -0.1884     3.7502     3.7502    -0.0000
  3 C      6.3238     6.0000    -0.3238     3.8154     3.8154    -0.0000
  4 S     15.1027    16.0000     0.8973     6.0481     6.0481    -0.0000
  5 H      0.6951     1.0000     0.3049     0.9618     0.9618     0.0000
  6 H      0.7278     1.0000     0.2722     0.9246     0.9246    -0.0000
  7 H      0.6985     1.0000     0.3015     0.9924     0.9924    -0.0000
  8 O      8.4792     8.0000    -0.4792     2.0422     2.0422    -0.0000
  9 O      8.6047     8.0000    -0.6047     1.7784     1.7784    -0.0000
 10 H      0.8254     1.0000     0.1746     0.9479     0.9479    -0.0000
 11 H      0.8499     1.0000     0.1501     0.9622     0.9622    -0.0000
 12 O      8.5928     8.0000    -0.5928     1.8046     1.8046    -0.0000
 13 C      6.2991     6.0000    -0.2991     3.7661     3.7661    -0.0000
 14 H      0.8795     1.0000     0.1205     0.9711     0.9711    -0.0000
 15 H      0.8678     1.0000     0.1322     0.9637     0.9637    -0.0000
 16 C      6.2408     6.0000    -0.2408     3.7782     3.7782     0.0000
 17 H      0.8868     1.0000     0.1132     0.9744     0.9744    -0.0000
 18 H      0.8262     1.0000     0.1738     0.9847     0.9847    -0.0000
 19 C      6.1576     6.0000    -0.1576     3.7857     3.7857    -0.0000
 20 H      0.8580     1.0000     0.1420     0.9717     0.9717    -0.0000
 21 H      0.8475     1.0000     0.1525     0.9798     0.9798    -0.0000
 22 H      0.8731     1.0000     0.1269     0.9841     0.9841     0.0000
 23 H      0.8947     1.0000     0.1053     0.9670     0.9670     0.0000
 24 H      0.8924     1.0000     0.1076     0.9616     0.9616     0.0000
 25 H      0.8807     1.0000     0.1193     0.9716     0.9716    -0.0000

  Mayer bond orders larger than 0.100000
B(  0-C ,  1-N ) :   0.8647 B(  0-C ,  2-C ) :   0.9370 B(  0-C , 10-H ) :   0.9812 
B(  0-C , 11-H ) :   0.9792 B(  1-N ,  5-H ) :   0.8229 B(  1-N ,  6-H ) :   0.9072 
B(  1-N ,  7-H ) :   0.7869 B(  2-C , 13-C ) :   0.9446 B(  2-C , 14-H ) :   0.9746 
B(  2-C , 15-H ) :   0.9804 B(  3-C ,  4-S ) :   0.9044 B(  3-C , 19-C ) :   0.9334 
B(  3-C , 20-H ) :   0.9608 B(  3-C , 21-H ) :   0.9607 B(  4-S ,  8-O ) :   1.9582 
B(  4-S ,  9-O ) :   1.5856 B(  4-S , 12-O ) :   1.5488 B(  5-H ,  9-O ) :   0.1090 
B(  7-H , 12-O ) :   0.1815 B( 13-C , 16-C ) :   0.8995 B( 13-C , 17-H ) :   0.9777 
B( 13-C , 18-H ) :   0.9783 B( 16-C , 19-C ) :   0.9542 B( 16-C , 22-H ) :   0.9747 
B( 16-C , 23-H ) :   0.9688 B( 19-C , 24-H ) :   0.9680 B( 19-C , 25-H ) :   0.9787 


-------
TIMINGS
-------

Total SCF time: 0 days 0 hours 1 min 2 sec 

Total time                  ....      62.844 sec
Sum of individual times     ....      61.866 sec  ( 98.4%)

Fock matrix formation       ....      58.244 sec  ( 92.7%)
  Split-RI-J                ....       5.081 sec  (  8.7% of F)
  Chain of spheres X        ....      48.714 sec  ( 83.6% of F)
  XC integration            ....       4.229 sec  (  7.3% of F)
    Basis function eval.    ....       1.056 sec  ( 25.0% of XC)
    Density eval.           ....       1.103 sec  ( 26.1% of XC)
    XC-Functional eval.     ....       0.293 sec  (  6.9% of XC)
    XC-Potential eval.      ....       1.120 sec  ( 26.5% of XC)
Diagonalization             ....       0.641 sec  (  1.0%)
Density matrix formation    ....       0.035 sec  (  0.1%)
Population analysis         ....       0.074 sec  (  0.1%)
Initial guess               ....       0.377 sec  (  0.6%)
Orbital Transformation      ....       0.000 sec  (  0.0%)
Orbital Orthonormalization  ....       0.000 sec  (  0.0%)
DIIS solution               ....       0.333 sec  (  0.5%)
SOSCF solution              ....       0.278 sec  (  0.4%)
Grid generation             ....       1.884 sec  (  3.0%)

Maximum memory used throughout the entire SCF-calculation: 97.0 MB

-------------------------   --------------------
FINAL SINGLE POINT ENERGY      -916.288010784530
-------------------------   --------------------


                            ***************************************
                            *     ORCA property calculations      *
                            ***************************************

                                    ---------------------
                                    Active property flags
                                    ---------------------
   (+) Dipole Moment


------------------------------------------------------------------------------
                       ORCA ELECTRIC PROPERTIES CALCULATION
------------------------------------------------------------------------------

Dipole Moment Calculation                       ... on
Quadrupole Moment Calculation                   ... off
Polarizability Calculation                      ... off
GBWName                                         ... CAMB3LYP_B_wt_wb97.gbw
Electron density file                           ... CAMB3LYP_B_wt_wb97.scfp
The origin for moment calculation is the CENTER OF MASS  = (-10.567773, -7.550116 -0.068605)

-------------
DIPOLE MOMENT
-------------
                                X             Y             Z
Electronic contribution:    -13.53017      -2.90738      -3.66631
Nuclear contribution   :     16.18863       5.15617       4.97370
                        -----------------------------------------
Total Dipole Moment    :      2.65846       2.24879       1.30739
                        -----------------------------------------
Magnitude (a.u.)       :      3.71937
Magnitude (Debye)      :      9.45389



--------------------
Rotational spectrum 
--------------------
 
Rotational constants in cm-1:     0.048546     0.025588     0.020102 
Rotational constants in MHz :  1455.374030   767.095631   602.645620 

 Dipole components along the rotational axes: 
x,y,z [a.u.] :     3.711689    -0.130445     0.200191 
x,y,z [Debye]:     9.434363    -0.331565     0.508844 

 

Timings for individual modules:

Sum of individual times         ...       64.936 sec (=   1.082 min)
GTO integral calculation        ...        1.513 sec (=   0.025 min)   2.3 %
SCF iterations                  ...       63.424 sec (=   1.057 min)  97.7 %
                             ****ORCA TERMINATED NORMALLY****
TOTAL RUN TIME: 0 days 0 hours 1 minutes 5 seconds 564 msec
