
                                        *****************
                                        * O   R   C   A *
                                        *****************

                                            #,                                       
                                            ###                                      
                                            ####                                     
                                            #####                                    
                                            ######                                   
                                           ########,                                 
                                     ,,################,,,,,                         
                               ,,#################################,,                 
                          ,,##########################################,,             
                       ,#########################################, ''#####,          
                    ,#############################################,,   '####,        
                  ,##################################################,,,,####,       
                ,###########''''           ''''###############################       
              ,#####''   ,,,,##########,,,,          '''####'''          '####       
            ,##' ,,,,###########################,,,                        '##       
           ' ,,###''''                  '''############,,,                           
         ,,##''                                '''############,,,,        ,,,,,,###''
      ,#''                                            '''#######################'''  
     '                                                          ''''####''''         
             ,#######,   #######,   ,#######,      ##                                
            ,#'     '#,  ##    ##  ,#'     '#,    #''#        ######   ,####,        
            ##       ##  ##   ,#'  ##            #'  '#       #        #'  '#        
            ##       ##  #######   ##           ,######,      #####,   #    #        
            '#,     ,#'  ##    ##  '#,     ,#' ,#      #,         ##   #,  ,#        
             '#######'   ##     ##  '#######'  #'      '#     #####' # '####'        



                  #######################################################
                  #                        -***-                        #
                  #          Department of theory and spectroscopy      #
                  #    Directorship and core code : Frank Neese         #
                  #        Max Planck Institute fuer Kohlenforschung    #
                  #                Kaiser Wilhelm Platz 1               #
                  #                 D-45470 Muelheim/Ruhr               #
                  #                      Germany                        #
                  #                                                     #
                  #                  All rights reserved                #
                  #                        -***-                        #
                  #######################################################


                         Program Version 5.0.0 -  RELEASE  -
                                (SVN: $Rev: 19529$)
                ($Date: 2021-06-28 11:36:33 +0200 (Mo, 28 Jun 2021) $)


 With contributions from (in alphabetic order):
   Daniel Aravena         : Magnetic Suceptibility
   Michael Atanasov       : Ab Initio Ligand Field Theory (pilot matlab implementation)
   Alexander A. Auer      : GIAO ZORA, VPT2 properties, NMR spectrum
   Ute Becker             : Parallelization
   Giovanni Bistoni       : ED, misc. LED, open-shell LED, HFLD
   Martin Brehm           : Molecular dynamics
   Dmytro Bykov           : SCF Hessian
   Vijay G. Chilkuri      : MRCI spin determinant printing, contributions to CSF-ICE
   Dipayan Datta          : RHF DLPNO-CCSD density
   Achintya Kumar Dutta   : EOM-CC, STEOM-CC
   Dmitry Ganyushin       : Spin-Orbit,Spin-Spin,Magnetic field MRCI
   Miquel Garcia          : C-PCM Hessian, Gaussian charge scheme
   Yang Guo               : DLPNO-NEVPT2, F12-NEVPT2, CIM, IAO-localization
   Andreas Hansen         : Spin unrestricted coupled pair/coupled cluster methods
   Benjamin Helmich-Paris : MC-RPA, TRAH-SCF, COSX integrals
   Lee Huntington         : MR-EOM, pCC
   Robert Izsak           : Overlap fitted RIJCOSX, COSX-SCS-MP3, EOM
   Marcus Kettner         : VPT2
   Christian Kollmar      : KDIIS, OOCD, Brueckner-CCSD(T), CCSD density, CASPT2, CASPT2-K
   Simone Kossmann        : Meta GGA functionals, TD-DFT gradient, OOMP2, MP2 Hessian
   Martin Krupicka        : Initial AUTO-CI
   Lucas Lang             : DCDCAS
   Marvin Lechner         : AUTO-CI (C++ implementation), FIC-MRCC
   Dagmar Lenk            : GEPOL surface, SMD
   Dimitrios Liakos       : Extrapolation schemes; Compound Job, initial MDCI parallelization
   Dimitrios Manganas     : Further ROCIS development; embedding schemes
   Dimitrios Pantazis     : SARC Basis sets
   Anastasios Papadopoulos: AUTO-CI, single reference methods and gradients
   Taras Petrenko         : DFT Hessian,TD-DFT gradient, ASA, ECA, R-Raman, ABS, FL, XAS/XES, NRVS
   Peter Pinski           : DLPNO-MP2, DLPNO-MP2 Gradient
   Christoph Reimann      : Effective Core Potentials
   Marius Retegan         : Local ZFS, SOC
   Christoph Riplinger    : Optimizer, TS searches, QM/MM, DLPNO-CCSD(T), (RO)-DLPNO pert. Triples
   Tobias Risthaus        : Range-separated hybrids, TD-DFT gradient, RPA, STAB
   Michael Roemelt        : Original ROCIS implementation
   Masaaki Saitow         : Open-shell DLPNO-CCSD energy and density
   Barbara Sandhoefer     : DKH picture change effects
   Avijit Sen             : IP-ROCIS
   Kantharuban Sivalingam : CASSCF convergence, NEVPT2, FIC-MRCI
   Bernardo de Souza      : ESD, SOC TD-DFT
   Georgi Stoychev        : AutoAux, RI-MP2 NMR
   Willem Van den Heuvel  : Paramagnetic NMR
   Boris Wezisla          : Elementary symmetry handling
   Frank Wennmohs         : Technical directorship


 We gratefully acknowledge several colleagues who have allowed us to
 interface, adapt or use parts of their codes:
   Stefan Grimme, W. Hujo, H. Kruse, P. Pracht,  : VdW corrections, initial TS optimization,
                  C. Bannwarth, S. Ehlert          DFT functionals, gCP, sTDA/sTD-DF
   Ed Valeev, F. Pavosevic, A. Kumar             : LibInt (2-el integral package), F12 methods
   Garnet Chan, S. Sharma, J. Yang, R. Olivares  : DMRG
   Ulf Ekstrom                                   : XCFun DFT Library
   Mihaly Kallay                                 : mrcc  (arbitrary order and MRCC methods)
   Jiri Pittner, Ondrej Demel                    : Mk-CCSD
   Frank Weinhold                                : gennbo (NPA and NBO analysis)
   Christopher J. Cramer and Donald G. Truhlar   : smd solvation model
   Lars Goerigk                                  : TD-DFT with DH, B97 family of functionals
   V. Asgeirsson, H. Jonsson                     : NEB implementation
   FAccTs GmbH                                   : IRC, NEB, NEB-TS, DLPNO-Multilevel, CI-OPT
                                                   MM, QMMM, 2- and 3-layer-ONIOM, Crystal-QMMM,
                                                   LR-CPCM, SF, NACMEs, symmetry and pop. for TD-DFT,
                                                   nearIR, NL-DFT gradient (VV10), updates on ESD,
                                                   ML-optimized integration grids
   S Lehtola, MJT Oliveira, MAL Marques          : LibXC Library
   Liviu Ungur et al                             : ANISO software


 Your calculation uses the libint2 library for the computation of 2-el integrals
 For citations please refer to: http://libint.valeyev.net

 Your ORCA version has been built with support for libXC version: 5.1.0
 For citations please refer to: https://tddft.org/programs/libxc/

 This ORCA versions uses:
   CBLAS   interface :  Fast vector & matrix operations
   LAPACKE interface :  Fast linear algebra routines
   SCALAPACK package :  Parallel linear algebra routines
   Shared memory     :  Shared parallel matrices
   BLAS/LAPACK       :  OpenBLAS 0.3.15  USE64BITINT DYNAMIC_ARCH NO_AFFINITY Haswell SINGLE_THREADED
        Core in use  :  Haswell
   Copyright (c) 2011-2014, The OpenBLAS Project




***************************************
The coordinates will be read from file: D1.xyz
***************************************


Your calculation utilizes the atom-pairwise dispersion correction
with the zero-damping scheme (D30)
Cite in your paper:
S.Grimme, J.Antony, S.Ehrlich and H.Krieg, J.Chem.Phys., 132, (2010), 154104 
   

XCFun DFT library Copyright 2009-2010 Ulf Ekstrom and contributors.
See http://admol.org/xcfun for more information.
This is free software; see the source code for copying conditions.
There is ABSOLUTELY NO WARRANTY; not even for MERCHANTABILITY or FITNESS FOR A PARTICULAR PURPOSE.
For details see the documentation.
Scientific users of this library should cite U. Ekstrom, L. Visscher, R. Bast, A. J. Thorvaldsen and K. Ruud;
J.Chem.Theor.Comp. 2010, DOI: 10.1021/ct100117s
XCFun Version 0.99 

================================================================================

----- Orbital basis set information -----
Your calculation utilizes the basis: def2-TZVP
   F. Weigend and R. Ahlrichs, Phys. Chem. Chem. Phys. 7, 3297 (2005).

----- AuxJ basis set information -----
Your calculation utilizes the auxiliary basis: def2/J
   F. Weigend, Phys. Chem. Chem. Phys. 8, 1057 (2006).

================================================================================
                                        WARNINGS
                       Please study these warnings very carefully!
================================================================================


INFO   : the flag for use of the SHARK integral package has been found!

================================================================================
                                       INPUT FILE
================================================================================
NAME = D1_wb97.com
|  1> !wB97X-D3 RIJCOSX def2-TZVP def2/J TightSCF xyzfile                                                                                         
|  2> 
|  3> *xyzfile 0 1 D1.xyz
|  4> 
|  5> %MaxCore 64000
|  6> 
|  7> %pal nprocs 18                                                                                                                                                  
|  8> end  
|  9> 
| 10> %scf
| 11>   MaxIter 150
| 12> end
| 13> 
| 14> 
| 15>                          ****END OF INPUT****
================================================================================

                       ****************************
                       * Single Point Calculation *
                       ****************************

---------------------------------
CARTESIAN COORDINATES (ANGSTROEM)
---------------------------------
  C      3.380928    2.083045   -3.350127
  C      4.535924    1.182447   -3.428518
  C      2.495557    1.816150   -2.136364
  C      1.872181    0.427903   -2.077497
  H      2.614270   -0.365825   -2.198894
  H      1.389953    0.273087   -1.112360
  S      0.579024    0.140472   -3.297943
  C      4.671956    0.122273   -4.220598
  N      5.866023   -0.507849   -4.224284
  N      3.698881   -0.312844   -4.986988
  H      2.731405   -0.050091   -4.849000
  H      3.890046   -1.055172   -5.643730
  H      5.251933    1.303459   -2.721014
  H      6.695165   -0.062322   -3.851596
  H      5.975383   -1.396884   -4.691414
  F      0.228860   -1.246868   -3.127871
  O     -0.439269    1.118966   -3.014550
  O      1.247881    0.403474   -4.595647
  H      1.697003    2.561969   -2.141109
  H      3.080787    1.987436   -1.225838
  H      2.806463    1.986511   -4.268484
  H      3.778714    3.098282   -3.307383

----------------------------
CARTESIAN COORDINATES (A.U.)
----------------------------
  NO LB      ZA    FRAG     MASS         X           Y           Z
   0 C     6.0000    0    12.011    6.389028    3.936384   -6.330822
   1 C     6.0000    0    12.011    8.571653    2.234501   -6.478960
   2 C     6.0000    0    12.011    4.715920    3.432025   -4.037143
   3 C     6.0000    0    12.011    3.537909    0.808619   -3.925901
   4 H     1.0000    0     1.008    4.940255   -0.691309   -4.155307
   5 H     1.0000    0     1.008    2.626630    0.516060   -2.102056
   6 S    16.0000    0    32.060    1.094197    0.265454   -6.232209
   7 C     6.0000    0    12.011    8.828718    0.231062   -7.975775
   8 N     7.0000    0    14.007   11.085178   -0.959696   -7.982739
   9 N     7.0000    0    14.007    6.989872   -0.591189   -9.424042
  10 H     1.0000    0     1.008    5.161608   -0.094658   -9.163282
  11 H     1.0000    0     1.008    7.351122   -1.993986  -10.665104
  12 H     1.0000    0     1.008    9.924714    2.463181   -5.141971
  13 H     1.0000    0     1.008   12.652028   -0.117771   -7.278462
  14 H     1.0000    0     1.008   11.291838   -2.639728   -8.865488
  15 F     9.0000    0    18.998    0.432483   -2.356238   -5.910819
  16 O     8.0000    0    15.999   -0.830098    2.114540   -5.696673
  17 O     8.0000    0    15.999    2.358154    0.762455   -8.684514
  18 H     1.0000    0     1.008    3.206871    4.841420   -4.046109
  19 H     1.0000    0     1.008    5.821845    3.755709   -2.316498
  20 H     1.0000    0     1.008    5.303447    3.753961   -8.066266
  21 H     1.0000    0     1.008    7.140735    5.854904   -6.250048

--------------------------------
INTERNAL COORDINATES (ANGSTROEM)
--------------------------------
 C      0   0   0     0.000000000000     0.00000000     0.00000000
 C      1   0   0     1.466709159152     0.00000000     0.00000000
 C      1   2   0     1.525887598611   113.08106121     0.00000000
 C      3   1   2     1.522922426714   115.32150160   298.98779578
 H      4   3   1     1.093360976858   112.31147686    51.76616417
 H      4   3   1     1.089954594431   110.16986842   171.17309744
 S      4   3   1     1.801210303623   114.40266140   289.23510751
 C      2   1   3     1.330363150639   126.98915710   102.39030975
 N      8   2   1     1.350134350047   117.64436639   174.24681917
 N      8   2   1     1.312842464079   122.40463695   354.61440396
 H     10   8   2     1.011972738098   122.88487069   342.67118838
 H     10   8   2     1.009408202469   118.89300887   173.11229738
 H      2   1   3     1.013841643828   116.45871694   291.29563037
 H      9   8   2     1.012356698497   121.19473046   343.47581302
 H      9   8   2     1.010224236058   120.51235872   170.23230527
 F      7   4   3     1.440920179428   104.36732947   175.27794104
 O      7   4   3     1.440376003423   105.41678409   299.48536641
 O      7   4   3     1.483433803163   103.93008595    57.15043279
 H      3   1   2     1.092683852872   107.52997589   177.35677273
 H      3   1   2     1.095851861430   108.88782929    62.11677368
 H      1   2   3     1.087524204377   108.44120771   237.12593655
 H      1   2   3     1.091223184114   106.63672387   121.10258644

---------------------------
INTERNAL COORDINATES (A.U.)
---------------------------
 C      0   0   0     0.000000000000     0.00000000     0.00000000
 C      1   0   0     2.771678628911     0.00000000     0.00000000
 C      1   2   0     2.883509672521   113.08106121     0.00000000
 C      3   1   2     2.877906309695   115.32150160   298.98779578
 H      4   3   1     2.066152811778   112.31147686    51.76616417
 H      4   3   1     2.059715681884   110.16986842   171.17309744
 S      4   3   1     3.403794183444   114.40266140   289.23510751
 C      2   1   3     2.514022013368   126.98915710   102.39030975
 N      8   2   1     2.551384165588   117.64436639   174.24681917
 N      8   2   1     2.480912714091   122.40463695   354.61440396
 H     10   8   2     1.912351330000   122.88487069   342.67118838
 H     10   8   2     1.907505060000   118.89300887   173.11229738
 H      2   1   3     1.915883050000   116.45871694   291.29563037
 H      9   8   2     1.913076910000   121.19473046   343.47581302
 H      9   8   2     1.909047140000   120.51235872   170.23230527
 F      7   4   3     2.722944519960   104.36732947   175.27794104
 O      7   4   3     2.721916176342   105.41678409   299.48536641
 O      7   4   3     2.803283625779   103.93008595    57.15043279
 H      3   1   2     2.064873232886   107.52997589   177.35677273
 H      3   1   2     2.070859901451   108.88782929    62.11677368
 H      1   2   3     2.055122910283   108.44120771   237.12593655
 H      1   2   3     2.062112968961   106.63672387   121.10258644

---------------------
BASIS SET INFORMATION
---------------------
There are 6 groups of distinct atoms

 Group   1 Type C   : 11s6p2d1f contracted to 5s3p2d1f pattern {62111/411/11/1}
 Group   2 Type H   : 5s1p contracted to 3s1p pattern {311/1}
 Group   3 Type S   : 14s9p3d1f contracted to 5s5p2d1f pattern {73211/51111/21/1}
 Group   4 Type N   : 11s6p2d1f contracted to 5s3p2d1f pattern {62111/411/11/1}
 Group   5 Type F   : 11s6p2d1f contracted to 5s3p2d1f pattern {62111/411/11/1}
 Group   6 Type O   : 11s6p2d1f contracted to 5s3p2d1f pattern {62111/411/11/1}

Atom   0C    basis set group =>   1
Atom   1C    basis set group =>   1
Atom   2C    basis set group =>   1
Atom   3C    basis set group =>   1
Atom   4H    basis set group =>   2
Atom   5H    basis set group =>   2
Atom   6S    basis set group =>   3
Atom   7C    basis set group =>   1
Atom   8N    basis set group =>   4
Atom   9N    basis set group =>   4
Atom  10H    basis set group =>   2
Atom  11H    basis set group =>   2
Atom  12H    basis set group =>   2
Atom  13H    basis set group =>   2
Atom  14H    basis set group =>   2
Atom  15F    basis set group =>   5
Atom  16O    basis set group =>   6
Atom  17O    basis set group =>   6
Atom  18H    basis set group =>   2
Atom  19H    basis set group =>   2
Atom  20H    basis set group =>   2
Atom  21H    basis set group =>   2
---------------------------------
AUXILIARY/J BASIS SET INFORMATION
---------------------------------
There are 6 groups of distinct atoms

 Group   1 Type C   : 12s5p4d2f1g contracted to 6s4p3d1f1g pattern {711111/2111/211/2/1}
 Group   2 Type H   : 5s2p1d contracted to 3s1p1d pattern {311/2/1}
 Group   3 Type S   : 14s5p5d2f1g contracted to 8s4p3d1f1g pattern {71111111/2111/311/2/1}
 Group   4 Type N   : 12s5p4d2f1g contracted to 6s4p3d1f1g pattern {711111/2111/211/2/1}
 Group   5 Type F   : 12s5p4d2f1g contracted to 6s4p3d1f1g pattern {711111/2111/211/2/1}
 Group   6 Type O   : 12s5p4d2f1g contracted to 6s4p3d1f1g pattern {711111/2111/211/2/1}

Atom   0C    basis set group =>   1
Atom   1C    basis set group =>   1
Atom   2C    basis set group =>   1
Atom   3C    basis set group =>   1
Atom   4H    basis set group =>   2
Atom   5H    basis set group =>   2
Atom   6S    basis set group =>   3
Atom   7C    basis set group =>   1
Atom   8N    basis set group =>   4
Atom   9N    basis set group =>   4
Atom  10H    basis set group =>   2
Atom  11H    basis set group =>   2
Atom  12H    basis set group =>   2
Atom  13H    basis set group =>   2
Atom  14H    basis set group =>   2
Atom  15F    basis set group =>   5
Atom  16O    basis set group =>   6
Atom  17O    basis set group =>   6
Atom  18H    basis set group =>   2
Atom  19H    basis set group =>   2
Atom  20H    basis set group =>   2
Atom  21H    basis set group =>   2


           ************************************************************
           *        Program running with 18 parallel MPI-processes    *
           *              working on a common directory               *
           ************************************************************
------------------------------------------------------------------------------
                           ORCA GTO INTEGRAL CALCULATION
                           -- RI-GTO INTEGRALS CHOSEN --
------------------------------------------------------------------------------
------------------------------------------------------------------------------
                   ___                                                        
                  /   \      - P O W E R E D   B Y -                         
                 /     \                                                     
                 |  |  |   _    _      __       _____    __    __             
                 |  |  |  | |  | |    /  \     |  _  \  |  |  /  |          
                  \  \/   | |  | |   /    \    | | | |  |  | /  /          
                 / \  \   | |__| |  /  /\  \   | |_| |  |  |/  /          
                |  |  |   |  __  | /  /__\  \  |    /   |      \           
                |  |  |   | |  | | |   __   |  |    \   |  |\   \          
                \     /   | |  | | |  |  |  |  | |\  \  |  | \   \       
                 \___/    |_|  |_| |__|  |__|  |_| \__\ |__|  \__/        
                                                                              
                      - O R C A' S   B I G   F R I E N D -                    
                                      &                                       
                       - I N T E G R A L  F E E D E R -                       
                                                                              
 v1 FN, 2020, v2 2021                                                         
------------------------------------------------------------------------------


Reading SHARK input file D1_wb97.SHARKINP.tmp ... ok
----------------------
SHARK INTEGRAL PACKAGE
----------------------

Number of atoms                             ...     22
Number of basis functions                   ...    413
Number of shells                            ...    167
Maximum angular momentum                    ...      3
Integral batch strategy                     ... SHARK/LIBINT Hybrid
RI-J (if used) integral strategy            ... SPLIT-RIJ (Revised 2003 algorithm where possible)
Printlevel                                  ...      1
Contraction scheme used                     ... SEGMENTED contraction
Coulomb Range Separation                    ... NOT USED
Exchange Range Separation                   ... Long Range
   Mu parameter                             ...  0.250000
   Scaling (regular/separated)              ...  0.195728  0.804272
Finite Nucleus Model                        ... NOT USED
Auxiliary Coulomb fitting basis             ... AVAILABLE
   # of basis functions in Aux-J            ...    662
   # of shells in Aux-J                     ...    222
   Maximum angular momentum in Aux-J        ...      4
Auxiliary J/K fitting basis                 ... NOT available
Auxiliary Correlation fitting basis         ... NOT available
Auxiliary 'external' fitting basis          ... NOT available
Integral threshold                          ...     2.500000e-11
Primitive cut-off                           ...     2.500000e-12
Primitive pair pre-selection threshold      ...     2.500000e-12

Calculating pre-screening integrals         ... done (  0.2 sec) Dimension = 167
Organizing shell pair data                  ... done (  0.2 sec)
Shell pair information
Total number of shell pairs                 ...     14028
Shell pairs after pre-screening             ...     11958
Total number of primitive shell pairs       ...     43360
Primitive shell pairs kept                  ...     26244
          la=0 lb=0:   3243 shell pairs
          la=1 lb=0:   3497 shell pairs
          la=1 lb=1:    980 shell pairs
          la=2 lb=0:   1618 shell pairs
          la=2 lb=1:    897 shell pairs
          la=2 lb=2:    223 shell pairs
          la=3 lb=0:    796 shell pairs
          la=3 lb=1:    441 shell pairs
          la=3 lb=2:    208 shell pairs
          la=3 lb=3:     55 shell pairs

Calculating one electron integrals          ... done (  0.0 sec)
Calculating RI/J V-Matrix + Cholesky decomp.... done (  0.1 sec)
Calculating Nuclear repulsion               ... done (  0.0 sec) ENN=    831.153357828877 Eh

SHARK setup successfully completed in   0.6 seconds

Maximum memory used throughout the entire GTOINT-calculation: 20.5 MB


           ************************************************************
           *        Program running with 18 parallel MPI-processes    *
           *              working on a common directory               *
           ************************************************************
-------------------------------------------------------------------------------
                                 ORCA SCF
-------------------------------------------------------------------------------

------------
SCF SETTINGS
------------
Hamiltonian:
 Density Functional     Method          .... DFT(GTOs)
 Exchange Functional    Exchange        .... WB97X-D3
 Correlation Functional Correlation     .... WB97X-D3
 Gradients option       PostSCFGGA      .... off
 Hybrid DFT is turned on
   Fraction HF Exchange ScalHFX         ....  0.195728
   Scaling of DF-GGA-X  ScalDFX         ....  0.000000
   Scaling of DF-GGA-C  ScalDFC         ....  1.000000
   Scaling of DF-LDA-C  ScalLDAC        ....  1.000000
   Perturbative correction              ....  0.000000
   Density functional embedding theory  .... OFF
 Long-range corrected/Screened/Range-Separated Hybrid DFT is turned on
   Amount of maximum screened exact exchange              ....  0.804272
   Range separation parameter mu (erf(mu*r12)/r12)        ....  0.250000
 RI-approximation to the Coulomb term is turned on
   Number of AuxJ basis functions       .... 662
   RIJ-COSX (HFX calculated with COS-X)).... on


General Settings:
 Integral files         IntName         .... D1_wb97
 Hartree-Fock type      HFTyp           .... RHF
 Total Charge           Charge          ....    0
 Multiplicity           Mult            ....    1
 Number of Electrons    NEL             ....   96
 Basis Dimension        Dim             ....  413
 Nuclear Repulsion      ENuc            ....    831.1533578289 Eh

Convergence Acceleration:
 DIIS                   CNVDIIS         .... on
   Start iteration      DIISMaxIt       ....    12
   Startup error        DIISStart       ....  0.200000
   # of expansion vecs  DIISMaxEq       ....     5
   Bias factor          DIISBfac        ....   1.050
   Max. coefficient     DIISMaxC        ....  10.000
 Trust-Rad. Augm. Hess. CNVTRAH         .... auto
   Auto Start mean grad. ratio tolernc. ....  1.125000
   Auto Start start iteration           ....    20
   Auto Start num. interpolation iter.  ....    10
   Max. Number of Micro iterations      ....    16
   Max. Number of Macro iterations      .... Maxiter - #DIIS iter
   Number of Davidson start vectors     ....     2
   Converg. threshold I  (grad. norm)   ....   1.000e-05
   Converg. threshold II (energy diff.) ....   1.000e-08
   Grad. Scal. Fac. for Micro threshold ....   0.100
   Minimum threshold for Micro iter.    ....   0.010
   NR start threshold (gradient norm)   ....   0.001
   Initial trust radius                 ....   0.400
   Minimum AH scaling param. (alpha)    ....   1.000
   Maximum AH scaling param. (alpha)    .... 1000.000
   Orbital update algorithm             .... Taylor
   White noise on init. David. guess    .... on
   Maximum white noise                  ....   0.010
   Quad. conv. algorithm                .... NR
 SOSCF                  CNVSOSCF        .... on
   Start iteration      SOSCFMaxIt      ....   150
   Startup grad/error   SOSCFStart      ....  0.003300
 Level Shifting         CNVShift        .... on
   Level shift para.    LevelShift      ....    0.2500
   Turn off err/grad.   ShiftErr        ....    0.0010
 Zerner damping         CNVZerner       .... off
 Static damping         CNVDamp         .... on
   Fraction old density DampFac         ....    0.7000
   Max. Damping (<1)    DampMax         ....    0.9800
   Min. Damping (>=0)   DampMin         ....    0.0000
   Turn off err/grad.   DampErr         ....    0.1000
 Fernandez-Rico         CNVRico         .... off

SCF Procedure:
 Maximum # iterations   MaxIter         ....   150
 SCF integral mode      SCFMode         .... Direct
   Integral package                     .... SHARK and LIBINT hybrid scheme
 Reset frequency        DirectResetFreq ....    20
 Integral Threshold     Thresh          ....  2.500e-11 Eh
 Primitive CutOff       TCut            ....  2.500e-12 Eh

Convergence Tolerance:
 Convergence Check Mode ConvCheckMode   .... Total+1el-Energy
 Convergence forced     ConvForced      .... 0
 Energy Change          TolE            ....  1.000e-08 Eh
 1-El. energy change                    ....  1.000e-05 Eh
 Orbital Gradient       TolG            ....  1.000e-05
 Orbital Rotation angle TolX            ....  1.000e-05
 DIIS Error             TolErr          ....  5.000e-07


Diagonalization of the overlap matrix:
Smallest eigenvalue                        ... 8.266e-05
Time for diagonalization                   ...    0.052 sec
Threshold for overlap eigenvalues          ... 1.000e-08
Number of eigenvalues below threshold      ... 0
Time for construction of square roots      ...    0.072 sec
Total time needed                          ...    0.127 sec

Time for model grid setup =    0.151 sec

------------------------------
INITIAL GUESS: MODEL POTENTIAL
------------------------------
Loading Hartree-Fock densities                     ... done
Calculating cut-offs                               ... done
Initializing the effective Hamiltonian             ... done
Setting up the integral package (SHARK)            ... done
Starting the Coulomb interaction                   ... done (   0.1 sec)
Reading the grid                                   ... done
Mapping shells                                     ... done
Starting the XC term evaluation                    ... done (   0.1 sec)
  promolecular density results
     # of electrons  =     95.994198205
     EX              =    -93.382903139
     EC              =     -3.360417749
     EX+EC           =    -96.743320887
Transforming the Hamiltonian                       ... done (   0.0 sec)
Diagonalizing the Hamiltonian                      ... done (   0.0 sec)
Back transforming the eigenvectors                 ... done (   0.0 sec)
Now organizing SCF variables                       ... done
                      ------------------
                      INITIAL GUESS DONE (   0.5 sec)
                      ------------------
-------------------
DFT GRID GENERATION
-------------------

General Integration Accuracy     IntAcc      ... 4.388
Radial Grid Type                 RadialGrid  ... OptM3 with GC (2021)
Angular Grid (max. ang.)         AngularGrid ... 4 (Lebedev-302)
Angular grid pruning method      GridPruning ... 4 (adaptive)
Weight generation scheme         WeightScheme... Becke
Basis function cutoff            BFCut       ... 1.0000e-11
Integration weight cutoff        WCut        ... 1.0000e-14
Angular grids for H and He will be reduced by one unit
Partially contracted basis set               ... off
Rotationally invariant grid construction     ... off

Total number of grid points                  ...   102513
Total number of batches                      ...     1612
Average number of points per batch           ...       63
Average number of grid points per atom       ...     4660
Time for grid setup =    0.774 sec

--------------------
COSX GRID GENERATION
--------------------

GRIDX 1
-------
General Integration Accuracy     IntAcc      ... 3.816
Radial Grid Type                 RadialGrid  ... OptM3 with GC (2021)
Angular Grid (max. ang.)         AngularGrid ... 1 (Lebedev-50)
Angular grid pruning method      GridPruning ... 4 (adaptive)
Weight generation scheme         WeightScheme... Becke
Basis function cutoff            BFCut       ... 1.0000e-11
Integration weight cutoff        WCut        ... 1.0000e-14
Angular grids for H and He will be reduced by one unit
Partially contracted basis set               ... on
Rotationally invariant grid construction     ... off

Total number of grid points                  ...    12979
Total number of batches                      ...      217
Average number of points per batch           ...       59
Average number of grid points per atom       ...      590
UseSFitting                                  ... on

GRIDX 2
-------
General Integration Accuracy     IntAcc      ... 4.020
Radial Grid Type                 RadialGrid  ... OptM3 with GC (2021)
Angular Grid (max. ang.)         AngularGrid ... 2 (Lebedev-110)
Angular grid pruning method      GridPruning ... 4 (adaptive)
Weight generation scheme         WeightScheme... Becke
Basis function cutoff            BFCut       ... 1.0000e-11
Integration weight cutoff        WCut        ... 1.0000e-14
Angular grids for H and He will be reduced by one unit
Partially contracted basis set               ... on
Rotationally invariant grid construction     ... off

Total number of grid points                  ...    28001
Total number of batches                      ...      449
Average number of points per batch           ...       62
Average number of grid points per atom       ...     1273
UseSFitting                                  ... on

GRIDX 3
-------
General Integration Accuracy     IntAcc      ... 4.338
Radial Grid Type                 RadialGrid  ... OptM3 with GC (2021)
Angular Grid (max. ang.)         AngularGrid ... 3 (Lebedev-194)
Angular grid pruning method      GridPruning ... 4 (adaptive)
Weight generation scheme         WeightScheme... Becke
Basis function cutoff            BFCut       ... 1.0000e-11
Integration weight cutoff        WCut        ... 1.0000e-14
Angular grids for H and He will be reduced by one unit
Partially contracted basis set               ... on
Rotationally invariant grid construction     ... off

Total number of grid points                  ...    61921
Total number of batches                      ...      977
Average number of points per batch           ...       63
Average number of grid points per atom       ...     2815
UseSFitting                                  ... on

Time for X-Grid setup             =    0.745 sec

--------------
SCF ITERATIONS
--------------
ITER       Energy         Delta-E        Max-DP      RMS-DP      [F,P]     Damp
               ***  Starting incremental Fock matrix formation  ***
  0   -954.6007594872   0.000000000000 0.12474974  0.00104371  0.2838370 0.7000
  1   -954.8472698074  -0.246510320149 0.06065133  0.00075357  0.1360747 0.7000
                               ***Turning on DIIS***
  2   -954.9540909572  -0.106821149805 0.06619242  0.00133462  0.0646020 0.0000
  3   -955.1277325182  -0.173641561053 0.06076136  0.00054340  0.0625143 0.0000
  4   -955.1581963833  -0.030463865019 0.01391288  0.00018881  0.0110574 0.0000
  5   -955.1592554278  -0.001059044496 0.00514671  0.00006923  0.0063184 0.0000
                      *** Initiating the SOSCF procedure ***
                           *** Shutting down DIIS ***
                      *** Re-Reading the Fockian *** 
                      *** Removing any level shift *** 
ITER      Energy       Delta-E        Grad      Rot      Max-DP    RMS-DP
  6   -955.15938419  -0.0001287594  0.000293  0.000293  0.003620  0.000048
               *** Restarting incremental Fock matrix formation ***
  7   -955.15938458  -0.0000003970  0.000103  0.000201  0.001667  0.000023
  8   -955.15938559  -0.0000010104  0.000082  0.000160  0.000617  0.000009
  9   -955.15938628  -0.0000006861  0.000013  0.000042  0.000128  0.000002
 10   -955.15938630  -0.0000000166  0.000015  0.000012  0.000059  0.000001
 11   -955.15938631  -0.0000000143  0.000003  0.000007  0.000020  0.000000
 12   -955.15938631  -0.0000000004  0.000003  0.000002  0.000007  0.000000
                  ***Gradient check signals convergence***
              ***Rediagonalizing the Fockian in SOSCF/NRSCF***

               *****************************************************
               *                     SUCCESS                       *
               *           SCF CONVERGED AFTER  13 CYCLES          *
               *****************************************************

Old exchange energy                            =    -28.962237164 Eh
New exchange energy                            =    -28.962234689 Eh
Exchange energy change after final integration =      0.000002475 Eh
Total energy after final integration           =   -955.159383832 Eh
Final COS-X integration done in                =     6.162 sec

----------------
TOTAL SCF ENERGY
----------------

Total Energy       :         -955.15938383 Eh          -25991.20820 eV

Components:
Nuclear Repulsion  :          831.15335783 Eh           22616.83268 eV
Electronic Energy  :        -1786.31274166 Eh          -48608.04089 eV
One Electron Energy:        -2961.93658251 Eh          -80598.39195 eV
Two Electron Energy:         1175.62384085 Eh           31990.35107 eV
Max COSX asymmetry :            0.00000468 Eh               0.00013 eV

Virial components:
Potential Energy   :        -1907.96059670 Eh          -51918.24731 eV
Kinetic Energy     :          952.80121287 Eh           25927.03911 eV
Virial Ratio       :            2.00247499


DFT components:
N(Alpha)           :       48.000053096853 electrons
N(Beta)            :       48.000053096853 electrons
N(Total)           :       96.000106193705 electrons
E(XC)              :      -69.777641871893 Eh       
DFET-embed. en.    :        0.000000000000 Eh       

---------------
SCF CONVERGENCE
---------------

  Last Energy change         ...    5.1292e-09  Tolerance :   1.0000e-08
  Last MAX-Density change    ...    1.3323e-15  Tolerance :   1.0000e-07
  Last RMS-Density change    ...    1.7880e-17  Tolerance :   5.0000e-09
  Last Orbital Gradient      ...    5.5219e-07  Tolerance :   1.0000e-05
  Last Orbital Rotation      ...    1.6956e-06  Tolerance :   1.0000e-05

             **** THE GBW FILE WAS UPDATED (D1_wb97.gbw) ****
             **** DENSITY D1_wb97.scfp WAS UPDATED ****
             **** ENERGY FILE WAS UPDATED (D1_wb97.en.tmp) ****
             **** THE GBW FILE WAS UPDATED (D1_wb97.gbw) ****
             **** DENSITY D1_wb97.scfp WAS UPDATED ****
----------------
ORBITAL ENERGIES
----------------

  NO   OCC          E(Eh)            E(eV) 
   0   2.0000     -89.204711     -2427.3836 
   1   2.0000     -24.916647      -678.0164 
   2   2.0000     -19.251908      -523.8710 
   3   2.0000     -19.246850      -523.7334 
   4   2.0000     -14.411442      -392.1553 
   5   2.0000     -14.394818      -391.7029 
   6   2.0000     -10.326801      -281.0065 
   7   2.0000     -10.315022      -280.6860 
   8   2.0000     -10.282867      -279.8110 
   9   2.0000     -10.248535      -278.8768 
  10   2.0000     -10.189570      -277.2723 
  11   2.0000      -8.268442      -224.9957 
  12   2.0000      -6.225675      -169.4092 
  13   2.0000      -6.219575      -169.2432 
  14   2.0000      -6.218915      -169.2253 
  15   2.0000      -1.510738       -41.1093 
  16   2.0000      -1.234560       -33.5941 
  17   2.0000      -1.138754       -30.9871 
  18   2.0000      -1.067696       -29.0535 
  19   2.0000      -0.973270       -26.4840 
  20   2.0000      -0.940515       -25.5927 
  21   2.0000      -0.878016       -23.8920 
  22   2.0000      -0.837603       -22.7923 
  23   2.0000      -0.791754       -21.5447 
  24   2.0000      -0.735741       -20.0205 
  25   2.0000      -0.705224       -19.1901 
  26   2.0000      -0.695110       -18.9149 
  27   2.0000      -0.685646       -18.6574 
  28   2.0000      -0.656655       -17.8685 
  29   2.0000      -0.637084       -17.3359 
  30   2.0000      -0.616283       -16.7699 
  31   2.0000      -0.590605       -16.0712 
  32   2.0000      -0.585101       -15.9214 
  33   2.0000      -0.567447       -15.4410 
  34   2.0000      -0.550343       -14.9756 
  35   2.0000      -0.534581       -14.5467 
  36   2.0000      -0.503614       -13.7040 
  37   2.0000      -0.501225       -13.6390 
  38   2.0000      -0.489117       -13.3096 
  39   2.0000      -0.477894       -13.0042 
  40   2.0000      -0.452026       -12.3003 
  41   2.0000      -0.447308       -12.1719 
  42   2.0000      -0.430710       -11.7202 
  43   2.0000      -0.427303       -11.6275 
  44   2.0000      -0.411987       -11.2107 
  45   2.0000      -0.402688       -10.9577 
  46   2.0000      -0.347284        -9.4501 
  47   2.0000      -0.241009        -6.5582 
  48   0.0000       0.100583         2.7370 
  49   0.0000       0.112952         3.0736 
  50   0.0000       0.122079         3.3219 
  51   0.0000       0.143615         3.9080 
  52   0.0000       0.148875         4.0511 
  53   0.0000       0.154967         4.2169 
  54   0.0000       0.157005         4.2723 
  55   0.0000       0.169685         4.6174 
  56   0.0000       0.172067         4.6822 
  57   0.0000       0.180101         4.9008 
  58   0.0000       0.189026         5.1437 
  59   0.0000       0.197148         5.3647 
  60   0.0000       0.217404         5.9159 
  61   0.0000       0.228704         6.2233 
  62   0.0000       0.241110         6.5609 
  63   0.0000       0.251129         6.8336 
  64   0.0000       0.262368         7.1394 
  65   0.0000       0.277110         7.5406 
  66   0.0000       0.291578         7.9342 
  67   0.0000       0.299991         8.1632 
  68   0.0000       0.312061         8.4916 
  69   0.0000       0.323878         8.8132 
  70   0.0000       0.331580         9.0228 
  71   0.0000       0.338537         9.2121 
  72   0.0000       0.351932         9.5765 
  73   0.0000       0.356817         9.7095 
  74   0.0000       0.376840        10.2543 
  75   0.0000       0.381221        10.3735 
  76   0.0000       0.390990        10.6394 
  77   0.0000       0.398361        10.8400 
  78   0.0000       0.408062        11.1039 
  79   0.0000       0.414729        11.2854 
  80   0.0000       0.429135        11.6774 
  81   0.0000       0.450395        12.2559 
  82   0.0000       0.459475        12.5029 
  83   0.0000       0.464281        12.6337 
  84   0.0000       0.483651        13.1608 
  85   0.0000       0.492423        13.3995 
  86   0.0000       0.501696        13.6518 
  87   0.0000       0.505566        13.7571 
  88   0.0000       0.506892        13.7932 
  89   0.0000       0.512537        13.9468 
  90   0.0000       0.521885        14.2012 
  91   0.0000       0.522084        14.2066 
  92   0.0000       0.533746        14.5240 
  93   0.0000       0.538652        14.6575 
  94   0.0000       0.546677        14.8758 
  95   0.0000       0.548688        14.9306 
  96   0.0000       0.553859        15.0713 
  97   0.0000       0.567668        15.4470 
  98   0.0000       0.570138        15.5142 
  99   0.0000       0.585159        15.9230 
 100   0.0000       0.588489        16.0136 
 101   0.0000       0.600351        16.3364 
 102   0.0000       0.609180        16.5766 
 103   0.0000       0.614481        16.7209 
 104   0.0000       0.624987        17.0068 
 105   0.0000       0.633673        17.2431 
 106   0.0000       0.637666        17.3518 
 107   0.0000       0.657214        17.8837 
 108   0.0000       0.680430        18.5155 
 109   0.0000       0.690804        18.7977 
 110   0.0000       0.708945        19.2914 
 111   0.0000       0.720885        19.6163 
 112   0.0000       0.722585        19.6625 
 113   0.0000       0.746414        20.3110 
 114   0.0000       0.758565        20.6416 
 115   0.0000       0.765901        20.8412 
 116   0.0000       0.772127        21.0106 
 117   0.0000       0.781102        21.2549 
 118   0.0000       0.795416        21.6444 
 119   0.0000       0.818917        22.2839 
 120   0.0000       0.836042        22.7498 
 121   0.0000       0.848279        23.0828 
 122   0.0000       0.852398        23.1949 
 123   0.0000       0.858108        23.3503 
 124   0.0000       0.870695        23.6928 
 125   0.0000       0.895260        24.3613 
 126   0.0000       0.922591        25.1050 
 127   0.0000       0.931280        25.3414 
 128   0.0000       0.951288        25.8859 
 129   0.0000       0.962157        26.1816 
 130   0.0000       0.974084        26.5062 
 131   0.0000       0.983405        26.7598 
 132   0.0000       1.006245        27.3813 
 133   0.0000       1.016012        27.6471 
 134   0.0000       1.032831        28.1048 
 135   0.0000       1.048953        28.5435 
 136   0.0000       1.072695        29.1895 
 137   0.0000       1.102364        29.9969 
 138   0.0000       1.110344        30.2140 
 139   0.0000       1.124490        30.5989 
 140   0.0000       1.152433        31.3593 
 141   0.0000       1.159277        31.5455 
 142   0.0000       1.184465        32.2309 
 143   0.0000       1.188910        32.3519 
 144   0.0000       1.200321        32.6624 
 145   0.0000       1.231540        33.5119 
 146   0.0000       1.255867        34.1739 
 147   0.0000       1.270681        34.5770 
 148   0.0000       1.293067        35.1861 
 149   0.0000       1.313601        35.7449 
 150   0.0000       1.322600        35.9898 
 151   0.0000       1.347518        36.6678 
 152   0.0000       1.370858        37.3029 
 153   0.0000       1.393021        37.9060 
 154   0.0000       1.420028        38.6409 
 155   0.0000       1.425346        38.7856 
 156   0.0000       1.454935        39.5908 
 157   0.0000       1.470522        40.0149 
 158   0.0000       1.472492        40.0685 
 159   0.0000       1.484403        40.3927 
 160   0.0000       1.500091        40.8195 
 161   0.0000       1.508430        41.0465 
 162   0.0000       1.519826        41.3566 
 163   0.0000       1.546133        42.0724 
 164   0.0000       1.563805        42.5533 
 165   0.0000       1.568548        42.6824 
 166   0.0000       1.603717        43.6394 
 167   0.0000       1.607999        43.7559 
 168   0.0000       1.626870        44.2694 
 169   0.0000       1.642669        44.6993 
 170   0.0000       1.649284        44.8793 
 171   0.0000       1.656745        45.0823 
 172   0.0000       1.662933        45.2507 
 173   0.0000       1.675338        45.5883 
 174   0.0000       1.679307        45.6963 
 175   0.0000       1.692353        46.0513 
 176   0.0000       1.694607        46.1126 
 177   0.0000       1.705121        46.3987 
 178   0.0000       1.736111        47.2420 
 179   0.0000       1.740831        47.3704 
 180   0.0000       1.747450        47.5505 
 181   0.0000       1.766939        48.0809 
 182   0.0000       1.773939        48.2713 
 183   0.0000       1.780200        48.4417 
 184   0.0000       1.815094        49.3912 
 185   0.0000       1.823666        49.6245 
 186   0.0000       1.838170        50.0192 
 187   0.0000       1.852123        50.3988 
 188   0.0000       1.862903        50.6922 
 189   0.0000       1.873438        50.9788 
 190   0.0000       1.898211        51.6530 
 191   0.0000       1.911307        52.0093 
 192   0.0000       1.924173        52.3594 
 193   0.0000       1.946636        52.9707 
 194   0.0000       1.963935        53.4414 
 195   0.0000       1.966401        53.5085 
 196   0.0000       1.994070        54.2614 
 197   0.0000       2.008850        54.6636 
 198   0.0000       2.015416        54.8423 
 199   0.0000       2.033425        55.3323 
 200   0.0000       2.070144        56.3315 
 201   0.0000       2.080004        56.5998 
 202   0.0000       2.089394        56.8553 
 203   0.0000       2.096261        57.0421 
 204   0.0000       2.106907        57.3318 
 205   0.0000       2.118765        57.6545 
 206   0.0000       2.140573        58.2480 
 207   0.0000       2.163749        58.8786 
 208   0.0000       2.189259        59.5728 
 209   0.0000       2.204435        59.9857 
 210   0.0000       2.244095        61.0649 
 211   0.0000       2.262854        61.5754 
 212   0.0000       2.282989        62.1233 
 213   0.0000       2.293798        62.4174 
 214   0.0000       2.307959        62.8028 
 215   0.0000       2.346027        63.8387 
 216   0.0000       2.356613        64.1267 
 217   0.0000       2.366977        64.4087 
 218   0.0000       2.399001        65.2801 
 219   0.0000       2.408752        65.5455 
 220   0.0000       2.417553        65.7850 
 221   0.0000       2.437349        66.3236 
 222   0.0000       2.440826        66.4182 
 223   0.0000       2.455006        66.8041 
 224   0.0000       2.463856        67.0449 
 225   0.0000       2.477345        67.4120 
 226   0.0000       2.489881        67.7531 
 227   0.0000       2.513230        68.3885 
 228   0.0000       2.535701        68.9999 
 229   0.0000       2.541822        69.1665 
 230   0.0000       2.557980        69.6062 
 231   0.0000       2.567386        69.8621 
 232   0.0000       2.582902        70.2843 
 233   0.0000       2.597666        70.6861 
 234   0.0000       2.622173        71.3530 
 235   0.0000       2.648430        72.0674 
 236   0.0000       2.654817        72.2412 
 237   0.0000       2.670348        72.6639 
 238   0.0000       2.678746        72.8924 
 239   0.0000       2.689061        73.1731 
 240   0.0000       2.704176        73.5844 
 241   0.0000       2.724502        74.1375 
 242   0.0000       2.735912        74.4479 
 243   0.0000       2.742631        74.6308 
 244   0.0000       2.757282        75.0295 
 245   0.0000       2.763294        75.1931 
 246   0.0000       2.785154        75.7879 
 247   0.0000       2.795681        76.0744 
 248   0.0000       2.810876        76.4878 
 249   0.0000       2.820247        76.7428 
 250   0.0000       2.830528        77.0226 
 251   0.0000       2.846767        77.4645 
 252   0.0000       2.876053        78.2614 
 253   0.0000       2.881713        78.4154 
 254   0.0000       2.896541        78.8189 
 255   0.0000       2.929535        79.7167 
 256   0.0000       2.934328        79.8471 
 257   0.0000       2.961785        80.5943 
 258   0.0000       2.967166        80.7407 
 259   0.0000       2.981123        81.1205 
 260   0.0000       3.030455        82.4629 
 261   0.0000       3.045579        82.8744 
 262   0.0000       3.050859        83.0181 
 263   0.0000       3.068019        83.4850 
 264   0.0000       3.077860        83.7528 
 265   0.0000       3.089800        84.0777 
 266   0.0000       3.111752        84.6751 
 267   0.0000       3.129683        85.1630 
 268   0.0000       3.153361        85.8073 
 269   0.0000       3.172589        86.3305 
 270   0.0000       3.179927        86.5302 
 271   0.0000       3.204572        87.2008 
 272   0.0000       3.216013        87.5122 
 273   0.0000       3.234256        88.0086 
 274   0.0000       3.249345        88.4192 
 275   0.0000       3.272638        89.0530 
 276   0.0000       3.290906        89.5501 
 277   0.0000       3.305520        89.9478 
 278   0.0000       3.307796        90.0097 
 279   0.0000       3.329407        90.5978 
 280   0.0000       3.353226        91.2459 
 281   0.0000       3.363484        91.5250 
 282   0.0000       3.386158        92.1420 
 283   0.0000       3.393071        92.3301 
 284   0.0000       3.418362        93.0183 
 285   0.0000       3.427714        93.2728 
 286   0.0000       3.445442        93.7552 
 287   0.0000       3.463225        94.2392 
 288   0.0000       3.474298        94.5405 
 289   0.0000       3.495249        95.1106 
 290   0.0000       3.500541        95.2546 
 291   0.0000       3.518936        95.7551 
 292   0.0000       3.525698        95.9391 
 293   0.0000       3.528222        96.0078 
 294   0.0000       3.561695        96.9187 
 295   0.0000       3.564228        96.9876 
 296   0.0000       3.575443        97.2928 
 297   0.0000       3.603128        98.0461 
 298   0.0000       3.625016        98.6417 
 299   0.0000       3.652821        99.3983 
 300   0.0000       3.676314       100.0376 
 301   0.0000       3.692687       100.4831 
 302   0.0000       3.714045       101.0643 
 303   0.0000       3.773794       102.6901 
 304   0.0000       3.793318       103.2214 
 305   0.0000       3.831176       104.2516 
 306   0.0000       3.848881       104.7334 
 307   0.0000       3.867994       105.2535 
 308   0.0000       3.886760       105.7641 
 309   0.0000       3.910958       106.4226 
 310   0.0000       3.924173       106.7822 
 311   0.0000       3.959973       107.7564 
 312   0.0000       3.985683       108.4560 
 313   0.0000       4.009007       109.0906 
 314   0.0000       4.023020       109.4719 
 315   0.0000       4.032171       109.7210 
 316   0.0000       4.055001       110.3422 
 317   0.0000       4.120733       112.1308 
 318   0.0000       4.143131       112.7403 
 319   0.0000       4.203443       114.3815 
 320   0.0000       4.218617       114.7944 
 321   0.0000       4.244526       115.4994 
 322   0.0000       4.280150       116.4688 
 323   0.0000       4.303517       117.1046 
 324   0.0000       4.347094       118.2904 
 325   0.0000       4.373110       118.9984 
 326   0.0000       4.434990       120.6822 
 327   0.0000       4.456088       121.2563 
 328   0.0000       4.484628       122.0329 
 329   0.0000       4.537418       123.4694 
 330   0.0000       4.552044       123.8674 
 331   0.0000       4.596060       125.0651 
 332   0.0000       4.655941       126.6946 
 333   0.0000       4.687272       127.5472 
 334   0.0000       4.708791       128.1327 
 335   0.0000       4.717701       128.3752 
 336   0.0000       4.743927       129.0888 
 337   0.0000       4.781948       130.1234 
 338   0.0000       4.815624       131.0398 
 339   0.0000       4.831258       131.4652 
 340   0.0000       4.859883       132.2441 
 341   0.0000       4.897843       133.2771 
 342   0.0000       4.948233       134.6483 
 343   0.0000       4.968781       135.2074 
 344   0.0000       5.019738       136.5940 
 345   0.0000       5.039320       137.1269 
 346   0.0000       5.052479       137.4849 
 347   0.0000       5.111404       139.0884 
 348   0.0000       5.150933       140.1640 
 349   0.0000       5.211165       141.8030 
 350   0.0000       5.223752       142.1455 
 351   0.0000       5.230040       142.3166 
 352   0.0000       5.232799       142.3917 
 353   0.0000       5.243601       142.6856 
 354   0.0000       5.268416       143.3609 
 355   0.0000       5.279409       143.6600 
 356   0.0000       5.288362       143.9036 
 357   0.0000       5.301126       144.2510 
 358   0.0000       5.325979       144.9273 
 359   0.0000       5.337268       145.2344 
 360   0.0000       5.394295       146.7862 
 361   0.0000       5.394694       146.7971 
 362   0.0000       5.425412       147.6330 
 363   0.0000       5.462528       148.6429 
 364   0.0000       5.475474       148.9952 
 365   0.0000       5.515371       150.0809 
 366   0.0000       5.570462       151.5800 
 367   0.0000       5.572730       151.6417 
 368   0.0000       5.591264       152.1460 
 369   0.0000       5.624204       153.0424 
 370   0.0000       5.679796       154.5551 
 371   0.0000       5.737082       156.1139 
 372   0.0000       5.771391       157.0475 
 373   0.0000       5.824587       158.4951 
 374   0.0000       6.131013       166.8334 
 375   0.0000       6.216806       169.1679 
 376   0.0000       6.312033       171.7591 
 377   0.0000       6.406399       174.3270 
 378   0.0000       6.428308       174.9232 
 379   0.0000       6.510613       177.1628 
 380   0.0000       6.581460       179.0906 
 381   0.0000       6.694871       182.1767 
 382   0.0000       6.766768       184.1331 
 383   0.0000       6.803430       185.1307 
 384   0.0000       6.843323       186.2163 
 385   0.0000       6.868666       186.9059 
 386   0.0000       6.912259       188.0921 
 387   0.0000       6.930802       188.5967 
 388   0.0000       6.944309       188.9642 
 389   0.0000       6.995054       190.3451 
 390   0.0000       7.007198       190.6756 
 391   0.0000       7.030570       191.3115 
 392   0.0000       7.109194       193.4510 
 393   0.0000       7.167340       195.0332 
 394   0.0000       8.326557       226.5771 
 395   0.0000       8.330467       226.6835 
 396   0.0000       8.696673       236.6485 
 397   0.0000       8.727804       237.4956 
 398   0.0000       8.790420       239.1995 
 399   0.0000       9.442697       256.9489 
 400   0.0000       9.663151       262.9477 
 401   0.0000       9.832183       267.5473 
 402   0.0000      22.268611       605.9597 
 403   0.0000      22.599782       614.9713 
 404   0.0000      22.656756       616.5217 
 405   0.0000      22.738327       618.7413 
 406   0.0000      22.989165       625.5670 
 407   0.0000      23.529624       640.2736 
 408   0.0000      32.131709       874.3483 
 409   0.0000      32.374524       880.9556 
 410   0.0000      43.669564      1188.3092 
 411   0.0000      43.854374      1193.3382 
 412   0.0000      57.136348      1554.7591 

                    ********************************
                    * MULLIKEN POPULATION ANALYSIS *
                    ********************************

-----------------------
MULLIKEN ATOMIC CHARGES
-----------------------
   0 C :   -0.223048
   1 C :   -0.412903
   2 C :   -0.169682
   3 C :   -0.328078
   4 H :    0.184208
   5 H :    0.155812
   6 S :    0.902792
   7 C :    0.380955
   8 N :   -0.537737
   9 N :   -0.529671
  10 H :    0.264980
  11 H :    0.214209
  12 H :    0.088861
  13 H :    0.254642
  14 H :    0.222980
  15 F :   -0.092354
  16 O :   -0.404289
  17 O :   -0.471656
  18 H :    0.133115
  19 H :    0.114394
  20 H :    0.151387
  21 H :    0.101084
Sum of atomic charges:   -0.0000000

--------------------------------
MULLIKEN REDUCED ORBITAL CHARGES
--------------------------------
  0 C s       :     3.208774  s :     3.208774
      pz      :     0.972552  p :     2.907582
      px      :     0.938270
      py      :     0.996760
      dz2     :     0.018354  d :     0.101173
      dxz     :     0.030319
      dyz     :     0.009891
      dx2y2   :     0.028703
      dxy     :     0.013906
      f0      :     0.000962  f :     0.005520
      f+1     :     0.001078
      f-1     :     0.000289
      f+2     :     0.000323
      f-2     :     0.001082
      f+3     :     0.001267
      f-3     :     0.000519
  1 C s       :     3.176430  s :     3.176430
      pz      :     1.059040  p :     3.156562
      px      :     1.097626
      py      :     0.999896
      dz2     :     0.011600  d :     0.072357
      dxz     :     0.015537
      dyz     :     0.012333
      dx2y2   :     0.022144
      dxy     :     0.010742
      f0      :     0.000855  f :     0.007554
      f+1     :     0.000477
      f-1     :     0.001445
      f+2     :     0.000781
      f-2     :     0.001616
      f+3     :     0.001445
      f-3     :     0.000934
  2 C s       :     3.171236  s :     3.171236
      pz      :     0.995631  p :     2.893963
      px      :     1.001175
      py      :     0.897157
      dz2     :     0.024777  d :     0.098997
      dxz     :     0.015396
      dyz     :     0.016459
      dx2y2   :     0.013795
      dxy     :     0.028569
      f0      :     0.000928  f :     0.005486
      f+1     :     0.001105
      f-1     :     0.000416
      f+2     :     0.000496
      f-2     :     0.000752
      f+3     :     0.000719
      f-3     :     0.001070
  3 C s       :     3.232522  s :     3.232522
      pz      :     0.988043  p :     2.999906
      px      :     0.975074
      py      :     1.036789
      dz2     :     0.010160  d :     0.091095
      dxz     :     0.023046
      dyz     :     0.016856
      dx2y2   :     0.017267
      dxy     :     0.023767
      f0      :     0.000684  f :     0.004555
      f+1     :     0.000845
      f-1     :     0.000053
      f+2     :     0.000653
      f-2     :     0.000543
      f+3     :     0.000732
      f-3     :     0.001045
  4 H s       :     0.793032  s :     0.793032
      pz      :     0.004130  p :     0.022760
      px      :     0.009680
      py      :     0.008950
  5 H s       :     0.821829  s :     0.821829
      pz      :     0.011932  p :     0.022359
      px      :     0.005595
      py      :     0.004832
  6 S s       :     5.363122  s :     5.363122
      pz      :     2.900136  p :     8.491187
      px      :     2.888219
      py      :     2.702831
      dz2     :     0.209647  d :     1.116314
      dxz     :     0.263041
      dyz     :     0.199749
      dx2y2   :     0.252425
      dxy     :     0.191451
      f0      :     0.020719  f :     0.126585
      f+1     :     0.009029
      f-1     :     0.017661
      f+2     :     0.017877
      f-2     :     0.018636
      f+3     :     0.023643
      f-3     :     0.019020
  7 C s       :     2.967981  s :     2.967981
      pz      :     0.809439  p :     2.424262
      px      :     0.707903
      py      :     0.906921
      dz2     :     0.044012  d :     0.208358
      dxz     :     0.046885
      dyz     :     0.025932
      dx2y2   :     0.045612
      dxy     :     0.045916
      f0      :     0.002145  f :     0.018444
      f+1     :     0.002764
      f-1     :     0.002227
      f+2     :     0.002096
      f-2     :     0.003542
      f+3     :     0.003745
      f-3     :     0.001926
  8 N s       :     3.448403  s :     3.448403
      pz      :     1.661288  p :     4.049447
      px      :     1.148645
      py      :     1.239513
      dz2     :     0.003473  d :     0.036262
      dxz     :     0.007536
      dyz     :     0.005009
      dx2y2   :     0.011474
      dxy     :     0.008770
      f0      :     0.000716  f :     0.003625
      f+1     :     0.000427
      f-1     :     0.000320
      f+2     :     0.000578
      f-2     :     0.000519
      f+3     :     0.000497
      f-3     :     0.000568
  9 N s       :     3.465472  s :     3.465472
      pz      :     1.404316  p :     4.026368
      px      :     1.174746
      py      :     1.447305
      dz2     :     0.007479  d :     0.034322
      dxz     :     0.005136
      dyz     :     0.007444
      dx2y2   :     0.009264
      dxy     :     0.004999
      f0      :     0.000395  f :     0.003510
      f+1     :     0.000499
      f-1     :     0.000499
      f+2     :     0.000722
      f-2     :     0.000552
      f+3     :     0.000482
      f-3     :     0.000361
 10 H s       :     0.676440  s :     0.676440
      pz      :     0.009537  p :     0.058580
      px      :     0.037095
      py      :     0.011948
 11 H s       :     0.748097  s :     0.748097
      pz      :     0.015389  p :     0.037694
      px      :     0.005832
      py      :     0.016473
 12 H s       :     0.884482  s :     0.884482
      pz      :     0.010111  p :     0.026657
      px      :     0.010347
      py      :     0.006199
 13 H s       :     0.708044  s :     0.708044
      pz      :     0.013694  p :     0.037315
      px      :     0.014641
      py      :     0.008979
 14 H s       :     0.739025  s :     0.739025
      pz      :     0.014608  p :     0.037995
      px      :     0.005649
      py      :     0.017738
 15 F s       :     3.905116  s :     3.905116
      pz      :     1.836028  p :     5.165161
      px      :     1.823233
      py      :     1.505900
      dz2     :     0.002560  d :     0.021139
      dxz     :     0.000649
      dyz     :     0.005261
      dx2y2   :     0.006834
      dxy     :     0.005835
      f0      :     0.000093  f :     0.000938
      f+1     :     0.000023
      f-1     :     0.000155
      f+2     :     0.000127
      f-2     :     0.000056
      f+3     :     0.000238
      f-3     :     0.000246
 16 O s       :     3.849538  s :     3.849538
      pz      :     1.643344  p :     4.516716
      px      :     1.496568
      py      :     1.376804
      dz2     :     0.003847  d :     0.035937
      dxz     :     0.005390
      dyz     :     0.005856
      dx2y2   :     0.010823
      dxy     :     0.010019
      f0      :     0.000230  f :     0.002098
      f+1     :     0.000195
      f-1     :     0.000197
      f+2     :     0.000086
      f-2     :     0.000398
      f+3     :     0.000513
      f-3     :     0.000478
 17 O s       :     3.850423  s :     3.850423
      pz      :     1.384065  p :     4.586687
      px      :     1.556570
      py      :     1.646052
      dz2     :     0.010764  d :     0.032656
      dxz     :     0.008717
      dyz     :     0.007751
      dx2y2   :     0.002582
      dxy     :     0.002842
      f0      :     0.000446  f :     0.001891
      f+1     :     0.000492
      f-1     :     0.000302
      f+2     :     0.000262
      f-2     :     0.000275
      f+3     :     0.000054
      f-3     :     0.000061
 18 H s       :     0.844932  s :     0.844932
      pz      :     0.004391  p :     0.021953
      px      :     0.009112
      py      :     0.008450
 19 H s       :     0.864057  s :     0.864057
      pz      :     0.010639  p :     0.021549
      px      :     0.006764
      py      :     0.004147
 20 H s       :     0.825148  s :     0.825148
      pz      :     0.011672  p :     0.023465
      px      :     0.007264
      py      :     0.004529
 21 H s       :     0.877070  s :     0.877070
      pz      :     0.004045  p :     0.021846
      px      :     0.005640
      py      :     0.012161


                     *******************************
                     * LOEWDIN POPULATION ANALYSIS *
                     *******************************

----------------------
LOEWDIN ATOMIC CHARGES
----------------------
   0 C :   -0.281231
   1 C :   -0.294765
   2 C :   -0.274250
   3 C :   -0.367322
   4 H :    0.145721
   5 H :    0.139414
   6 S :    0.554820
   7 C :   -0.466574
   8 N :   -0.034097
   9 N :   -0.001969
  10 H :    0.133047
  11 H :    0.160399
  12 H :    0.116449
  13 H :    0.173741
  14 H :    0.156661
  15 F :    0.104956
  16 O :   -0.251171
  17 O :   -0.287833
  18 H :    0.143142
  19 H :    0.145890
  20 H :    0.144289
  21 H :    0.140684

-------------------------------
LOEWDIN REDUCED ORBITAL CHARGES
-------------------------------
  0 C s       :     2.752081  s :     2.752081
      pz      :     1.005120  p :     3.055519
      px      :     1.029512
      py      :     1.020886
      dz2     :     0.088724  d :     0.430415
      dxz     :     0.125805
      dyz     :     0.035952
      dx2y2   :     0.108805
      dxy     :     0.071129
      f0      :     0.006342  f :     0.043216
      f+1     :     0.006122
      f-1     :     0.004842
      f+2     :     0.004296
      f-2     :     0.007961
      f+3     :     0.009357
      f-3     :     0.004296
  1 C s       :     2.735642  s :     2.735642
      pz      :     1.052381  p :     3.132145
      px      :     1.010525
      py      :     1.069240
      dz2     :     0.048684  d :     0.382957
      dxz     :     0.091607
      dyz     :     0.061573
      dx2y2   :     0.100337
      dxy     :     0.080756
      f0      :     0.004958  f :     0.044020
      f+1     :     0.003070
      f-1     :     0.006550
      f+2     :     0.006444
      f-2     :     0.008096
      f+3     :     0.009268
      f-3     :     0.005635
  2 C s       :     2.777474  s :     2.777474
      pz      :     1.037644  p :     3.055435
      px      :     1.023425
      py      :     0.994366
      dz2     :     0.093943  d :     0.402506
      dxz     :     0.076821
      dyz     :     0.061796
      dx2y2   :     0.058170
      dxy     :     0.111776
      f0      :     0.005709  f :     0.038835
      f+1     :     0.005254
      f-1     :     0.005540
      f+2     :     0.005706
      f-2     :     0.005001
      f+3     :     0.004696
      f-3     :     0.006928
  3 C s       :     2.841557  s :     2.841557
      pz      :     1.019708  p :     3.129451
      px      :     1.023654
      py      :     1.086089
      dz2     :     0.056141  d :     0.365143
      dxz     :     0.091128
      dyz     :     0.056448
      dx2y2   :     0.067636
      dxy     :     0.093790
      f0      :     0.003603  f :     0.031171
      f+1     :     0.004371
      f-1     :     0.002852
      f+2     :     0.006328
      f-2     :     0.003506
      f+3     :     0.004315
      f-3     :     0.006195
  4 H s       :     0.788965  s :     0.788965
      pz      :     0.013028  p :     0.065314
      px      :     0.027519
      py      :     0.024766
  5 H s       :     0.797213  s :     0.797213
      pz      :     0.032408  p :     0.063373
      px      :     0.016812
      py      :     0.014153
  6 S s       :     4.754102  s :     4.754102
      pz      :     2.894588  p :     8.548153
      px      :     2.883754
      py      :     2.769811
      dz2     :     0.341132  d :     1.760844
      dxz     :     0.409198
      dyz     :     0.290326
      dx2y2   :     0.395654
      dxy     :     0.324534
      f0      :     0.056340  f :     0.382081
      f+1     :     0.033410
      f-1     :     0.055924
      f+2     :     0.051072
      f-2     :     0.054844
      f+3     :     0.071183
      f-3     :     0.059308
  7 C s       :     2.693209  s :     2.693209
      pz      :     0.914071  p :     2.786720
      px      :     0.906256
      py      :     0.966393
      dz2     :     0.176659  d :     0.867791
      dxz     :     0.197558
      dyz     :     0.102621
      dx2y2   :     0.183836
      dxy     :     0.207117
      f0      :     0.014604  f :     0.118854
      f+1     :     0.018827
      f-1     :     0.009965
      f+2     :     0.014314
      f-2     :     0.018931
      f+3     :     0.026343
      f-3     :     0.015870
  8 N s       :     2.965329  s :     2.965329
      pz      :     1.499499  p :     3.912217
      px      :     1.177497
      py      :     1.235221
      dz2     :     0.007756  d :     0.145862
      dxz     :     0.029908
      dyz     :     0.016116
      dx2y2   :     0.052291
      dxy     :     0.039792
      f0      :     0.001816  f :     0.010688
      f+1     :     0.001146
      f-1     :     0.000402
      f+2     :     0.001532
      f-2     :     0.001710
      f+3     :     0.002504
      f-3     :     0.001576
  9 N s       :     2.955064  s :     2.955064
      pz      :     1.348218  p :     3.884210
      px      :     1.195106
      py      :     1.340886
      dz2     :     0.029704  d :     0.150631
      dxz     :     0.026058
      dyz     :     0.029108
      dx2y2   :     0.042350
      dxy     :     0.023412
      f0      :     0.001504  f :     0.012064
      f+1     :     0.002251
      f-1     :     0.001040
      f+2     :     0.001848
      f-2     :     0.002290
      f+3     :     0.001991
      f-3     :     0.001140
 10 H s       :     0.693679  s :     0.693679
      pz      :     0.028286  p :     0.173274
      px      :     0.110235
      py      :     0.034753
 11 H s       :     0.730240  s :     0.730240
      pz      :     0.042139  p :     0.109361
      px      :     0.020247
      py      :     0.046975
 12 H s       :     0.807294  s :     0.807294
      pz      :     0.028515  p :     0.076257
      px      :     0.028160
      py      :     0.019582
 13 H s       :     0.717200  s :     0.717200
      pz      :     0.039120  p :     0.109060
      px      :     0.041474
      py      :     0.028465
 14 H s       :     0.732923  s :     0.732923
      pz      :     0.042173  p :     0.110416
      px      :     0.016727
      py      :     0.051515
 15 F s       :     3.654205  s :     3.654205
      pz      :     1.785952  p :     5.199130
      px      :     1.780344
      py      :     1.632833
      dz2     :     0.005923  d :     0.039922
      dxz     :     0.001088
      dyz     :     0.007760
      dx2y2   :     0.015039
      dxy     :     0.010111
      f0      :     0.000154  f :     0.001788
      f+1     :     0.000044
      f-1     :     0.000334
      f+2     :     0.000200
      f-2     :     0.000111
      f+3     :     0.000470
      f-3     :     0.000475
 16 O s       :     3.561525  s :     3.561525
      pz      :     1.596759  p :     4.615824
      px      :     1.554259
      py      :     1.464806
      dz2     :     0.009779  d :     0.069131
      dxz     :     0.008902
      dyz     :     0.008450
      dx2y2   :     0.012821
      dxy     :     0.029178
      f0      :     0.000450  f :     0.004691
      f+1     :     0.000495
      f-1     :     0.000460
      f+2     :     0.000160
      f-2     :     0.000813
      f+3     :     0.001172
      f-3     :     0.001140
 17 O s       :     3.559362  s :     3.559362
      pz      :     1.508406  p :     4.657141
      px      :     1.547690
      py      :     1.601045
      dz2     :     0.023353  d :     0.066952
      dxz     :     0.021863
      dyz     :     0.010868
      dx2y2   :     0.006051
      dxy     :     0.004818
      f0      :     0.000925  f :     0.004378
      f+1     :     0.001560
      f-1     :     0.000614
      f+2     :     0.000486
      f-2     :     0.000528
      f+3     :     0.000105
      f-3     :     0.000161
 18 H s       :     0.797124  s :     0.797124
      pz      :     0.013470  p :     0.059734
      px      :     0.024546
      py      :     0.021717
 19 H s       :     0.795659  s :     0.795659
      pz      :     0.026874  p :     0.058451
      px      :     0.019340
      py      :     0.012237
 20 H s       :     0.793574  s :     0.793574
      pz      :     0.028624  p :     0.062138
      px      :     0.019364
      py      :     0.014149
 21 H s       :     0.801479  s :     0.801479
      pz      :     0.012661  p :     0.057837
      px      :     0.016191
      py      :     0.028985


                      *****************************
                      * MAYER POPULATION ANALYSIS *
                      *****************************

  NA   - Mulliken gross atomic population
  ZA   - Total nuclear charge
  QA   - Mulliken gross atomic charge
  VA   - Mayer's total valence
  BVA  - Mayer's bonded valence
  FA   - Mayer's free valence

  ATOM       NA         ZA         QA         VA         BVA        FA
  0 C      6.2230     6.0000    -0.2230     3.9804     3.9804    -0.0000
  1 C      6.4129     6.0000    -0.4129     3.6438     3.6438    -0.0000
  2 C      6.1697     6.0000    -0.1697     3.8013     3.8013    -0.0000
  3 C      6.3281     6.0000    -0.3281     3.9421     3.9421    -0.0000
  4 H      0.8158     1.0000     0.1842     0.9496     0.9496    -0.0000
  5 H      0.8442     1.0000     0.1558     0.9700     0.9700    -0.0000
  6 S     15.0972    16.0000     0.9028     5.8514     5.8514    -0.0000
  7 C      5.6190     6.0000     0.3810     3.9803     3.9803    -0.0000
  8 N      7.5377     7.0000    -0.5377     3.0342     3.0342     0.0000
  9 N      7.5297     7.0000    -0.5297     3.0321     3.0321    -0.0000
 10 H      0.7350     1.0000     0.2650     1.0069     1.0069    -0.0000
 11 H      0.7858     1.0000     0.2142     0.9704     0.9704     0.0000
 12 H      0.9111     1.0000     0.0889     0.9900     0.9900    -0.0000
 13 H      0.7454     1.0000     0.2546     0.9477     0.9477    -0.0000
 14 H      0.7770     1.0000     0.2230     0.9635     0.9635    -0.0000
 15 F      9.0924     9.0000    -0.0924     1.2402     1.2402    -0.0000
 16 O      8.4043     8.0000    -0.4043     2.0702     2.0702    -0.0000
 17 O      8.4717     8.0000    -0.4717     1.9402     1.9402    -0.0000
 18 H      0.8669     1.0000     0.1331     0.9785     0.9785    -0.0000
 19 H      0.8856     1.0000     0.1144     0.9764     0.9764    -0.0000
 20 H      0.8486     1.0000     0.1514     0.9721     0.9721    -0.0000
 21 H      0.8989     1.0000     0.1011     0.9748     0.9748    -0.0000

  Mayer bond orders larger than 0.100000
B(  0-C ,  1-C ) :   0.9791 B(  0-C ,  2-C ) :   0.9580 B(  0-C , 20-H ) :   0.9910 
B(  0-C , 21-H ) :   0.9843 B(  1-C ,  7-C ) :   1.6384 B(  1-C , 12-H ) :   0.9989 
B(  2-C ,  3-C ) :   0.9707 B(  2-C , 18-H ) :   0.9657 B(  2-C , 19-H ) :   0.9610 
B(  3-C ,  4-H ) :   0.9321 B(  3-C ,  5-H ) :   0.9454 B(  3-C ,  6-S ) :   0.9374 
B(  6-S , 15-F ) :   1.1554 B(  6-S , 16-O ) :   1.9500 B(  6-S , 17-O ) :   1.7266 
B(  7-C ,  8-N ) :   1.1158 B(  7-C ,  9-N ) :   1.1808 B(  8-N , 13-H ) :   0.9188 
B(  8-N , 14-H ) :   0.9262 B(  9-N , 10-H ) :   0.8409 B(  9-N , 11-H ) :   0.9308 
B( 10-H , 17-O ) :   0.1307 

-------
TIMINGS
-------

Total SCF time: 0 days 0 hours 0 min 51 sec 

Total time                  ....      51.606 sec
Sum of individual times     ....      50.878 sec  ( 98.6%)

Fock matrix formation       ....      47.886 sec  ( 92.8%)
  Split-RI-J                ....       3.222 sec  (  6.7% of F)
  Chain of spheres X        ....      40.851 sec  ( 85.3% of F)
  XC integration            ....       3.451 sec  (  7.2% of F)
    Basis function eval.    ....       0.724 sec  ( 21.0% of XC)
    Density eval.           ....       0.727 sec  ( 21.1% of XC)
    XC-Functional eval.     ....       0.135 sec  (  3.9% of XC)
    XC-Potential eval.      ....       0.717 sec  ( 20.8% of XC)
Diagonalization             ....       0.386 sec  (  0.7%)
Density matrix formation    ....       0.037 sec  (  0.1%)
Population analysis         ....       0.050 sec  (  0.1%)
Initial guess               ....       0.313 sec  (  0.6%)
Orbital Transformation      ....       0.000 sec  (  0.0%)
Orbital Orthonormalization  ....       0.000 sec  (  0.0%)
DIIS solution               ....       0.222 sec  (  0.4%)
SOSCF solution              ....       0.315 sec  (  0.6%)
Grid generation             ....       1.670 sec  (  3.2%)

Maximum memory used throughout the entire SCF-calculation: 91.1 MB


-------------------------------------------------------------------------------
                          DFT DISPERSION CORRECTION                            
                                                                               
                              DFTD3 V3.1  Rev 1                                
                              USING zero damping                               
-------------------------------------------------------------------------------
The omegaB97X-D3 functional is recognized. Fit by Chai et al.
Active option DFTDOPT                   ...         3   

molecular C6(AA) [au] = 4996.070706 


            DFT-D V3
 parameters
 s6 scaling factor         :     1.0000 
 rs6 scaling factor        :     1.2810 
 s8 scaling factor         :     1.0000 
 rs8 scaling factor        :     1.0940 
 Damping factor alpha6     :    14.0000 
 Damping factor alpha8     :    16.0000 
 ad hoc parameters k1-k3   :    16.0000     1.3333    -4.0000 

 Edisp/kcal,au: -6.176281445415  -0.009842529941 
 E6   /kcal   :  -2.507034603 
 E8   /kcal   :  -3.669246842 
 % E8         :  59.408672917 

-------------------------   ----------------
Dispersion correction           -0.009842530
-------------------------   ----------------


-------------------------   --------------------
FINAL SINGLE POINT ENERGY      -955.169226361877
-------------------------   --------------------


                            ***************************************
                            *     ORCA property calculations      *
                            ***************************************

                                    ---------------------
                                    Active property flags
                                    ---------------------
   (+) Dipole Moment


------------------------------------------------------------------------------
                       ORCA ELECTRIC PROPERTIES CALCULATION
------------------------------------------------------------------------------

Dipole Moment Calculation                       ... on
Quadrupole Moment Calculation                   ... off
Polarizability Calculation                      ... off
GBWName                                         ... D1_wb97.gbw
Electron density file                           ... D1_wb97.scfp
The origin for moment calculation is the CENTER OF MASS  = ( 4.290674,  0.722526 -6.585119)

-------------
DIPOLE MOMENT
-------------
                                X             Y             Z
Electronic contribution:    -15.30152      -6.80125      -1.17861
Nuclear contribution   :     15.92508       5.34175       1.81950
                        -----------------------------------------
Total Dipole Moment    :      0.62356      -1.45950       0.64089
                        -----------------------------------------
Magnitude (a.u.)       :      1.71164
Magnitude (Debye)      :      4.35064



--------------------
Rotational spectrum 
--------------------
 
Rotational constants in cm-1:     0.058561     0.020662     0.017762 
Rotational constants in MHz :  1755.621534   619.433801   532.501507 

 Dipole components along the rotational axes: 
x,y,z [a.u.] :    -0.455465     0.822524    -1.430283 
x,y,z [Debye]:    -1.157699     2.090691    -3.635489 

 

Timings for individual modules:

Sum of individual times         ...       53.126 sec (=   0.885 min)
GTO integral calculation        ...        1.030 sec (=   0.017 min)   1.9 %
SCF iterations                  ...       52.096 sec (=   0.868 min)  98.1 %
                             ****ORCA TERMINATED NORMALLY****
TOTAL RUN TIME: 0 days 0 hours 0 minutes 53 seconds 802 msec
