
                                        *****************
                                        * O   R   C   A *
                                        *****************

                                            #,                                       
                                            ###                                      
                                            ####                                     
                                            #####                                    
                                            ######                                   
                                           ########,                                 
                                     ,,################,,,,,                         
                               ,,#################################,,                 
                          ,,##########################################,,             
                       ,#########################################, ''#####,          
                    ,#############################################,,   '####,        
                  ,##################################################,,,,####,       
                ,###########''''           ''''###############################       
              ,#####''   ,,,,##########,,,,          '''####'''          '####       
            ,##' ,,,,###########################,,,                        '##       
           ' ,,###''''                  '''############,,,                           
         ,,##''                                '''############,,,,        ,,,,,,###''
      ,#''                                            '''#######################'''  
     '                                                          ''''####''''         
             ,#######,   #######,   ,#######,      ##                                
            ,#'     '#,  ##    ##  ,#'     '#,    #''#        ######   ,####,        
            ##       ##  ##   ,#'  ##            #'  '#       #        #'  '#        
            ##       ##  #######   ##           ,######,      #####,   #    #        
            '#,     ,#'  ##    ##  '#,     ,#' ,#      #,         ##   #,  ,#        
             '#######'   ##     ##  '#######'  #'      '#     #####' # '####'        



                  #######################################################
                  #                        -***-                        #
                  #          Department of theory and spectroscopy      #
                  #    Directorship and core code : Frank Neese         #
                  #        Max Planck Institute fuer Kohlenforschung    #
                  #                Kaiser Wilhelm Platz 1               #
                  #                 D-45470 Muelheim/Ruhr               #
                  #                      Germany                        #
                  #                                                     #
                  #                  All rights reserved                #
                  #                        -***-                        #
                  #######################################################


                         Program Version 5.0.0 -  RELEASE  -
                                (SVN: $Rev: 19529$)
                ($Date: 2021-06-28 11:36:33 +0200 (Mo, 28 Jun 2021) $)


 With contributions from (in alphabetic order):
   Daniel Aravena         : Magnetic Suceptibility
   Michael Atanasov       : Ab Initio Ligand Field Theory (pilot matlab implementation)
   Alexander A. Auer      : GIAO ZORA, VPT2 properties, NMR spectrum
   Ute Becker             : Parallelization
   Giovanni Bistoni       : ED, misc. LED, open-shell LED, HFLD
   Martin Brehm           : Molecular dynamics
   Dmytro Bykov           : SCF Hessian
   Vijay G. Chilkuri      : MRCI spin determinant printing, contributions to CSF-ICE
   Dipayan Datta          : RHF DLPNO-CCSD density
   Achintya Kumar Dutta   : EOM-CC, STEOM-CC
   Dmitry Ganyushin       : Spin-Orbit,Spin-Spin,Magnetic field MRCI
   Miquel Garcia          : C-PCM Hessian, Gaussian charge scheme
   Yang Guo               : DLPNO-NEVPT2, F12-NEVPT2, CIM, IAO-localization
   Andreas Hansen         : Spin unrestricted coupled pair/coupled cluster methods
   Benjamin Helmich-Paris : MC-RPA, TRAH-SCF, COSX integrals
   Lee Huntington         : MR-EOM, pCC
   Robert Izsak           : Overlap fitted RIJCOSX, COSX-SCS-MP3, EOM
   Marcus Kettner         : VPT2
   Christian Kollmar      : KDIIS, OOCD, Brueckner-CCSD(T), CCSD density, CASPT2, CASPT2-K
   Simone Kossmann        : Meta GGA functionals, TD-DFT gradient, OOMP2, MP2 Hessian
   Martin Krupicka        : Initial AUTO-CI
   Lucas Lang             : DCDCAS
   Marvin Lechner         : AUTO-CI (C++ implementation), FIC-MRCC
   Dagmar Lenk            : GEPOL surface, SMD
   Dimitrios Liakos       : Extrapolation schemes; Compound Job, initial MDCI parallelization
   Dimitrios Manganas     : Further ROCIS development; embedding schemes
   Dimitrios Pantazis     : SARC Basis sets
   Anastasios Papadopoulos: AUTO-CI, single reference methods and gradients
   Taras Petrenko         : DFT Hessian,TD-DFT gradient, ASA, ECA, R-Raman, ABS, FL, XAS/XES, NRVS
   Peter Pinski           : DLPNO-MP2, DLPNO-MP2 Gradient
   Christoph Reimann      : Effective Core Potentials
   Marius Retegan         : Local ZFS, SOC
   Christoph Riplinger    : Optimizer, TS searches, QM/MM, DLPNO-CCSD(T), (RO)-DLPNO pert. Triples
   Tobias Risthaus        : Range-separated hybrids, TD-DFT gradient, RPA, STAB
   Michael Roemelt        : Original ROCIS implementation
   Masaaki Saitow         : Open-shell DLPNO-CCSD energy and density
   Barbara Sandhoefer     : DKH picture change effects
   Avijit Sen             : IP-ROCIS
   Kantharuban Sivalingam : CASSCF convergence, NEVPT2, FIC-MRCI
   Bernardo de Souza      : ESD, SOC TD-DFT
   Georgi Stoychev        : AutoAux, RI-MP2 NMR
   Willem Van den Heuvel  : Paramagnetic NMR
   Boris Wezisla          : Elementary symmetry handling
   Frank Wennmohs         : Technical directorship


 We gratefully acknowledge several colleagues who have allowed us to
 interface, adapt or use parts of their codes:
   Stefan Grimme, W. Hujo, H. Kruse, P. Pracht,  : VdW corrections, initial TS optimization,
                  C. Bannwarth, S. Ehlert          DFT functionals, gCP, sTDA/sTD-DF
   Ed Valeev, F. Pavosevic, A. Kumar             : LibInt (2-el integral package), F12 methods
   Garnet Chan, S. Sharma, J. Yang, R. Olivares  : DMRG
   Ulf Ekstrom                                   : XCFun DFT Library
   Mihaly Kallay                                 : mrcc  (arbitrary order and MRCC methods)
   Jiri Pittner, Ondrej Demel                    : Mk-CCSD
   Frank Weinhold                                : gennbo (NPA and NBO analysis)
   Christopher J. Cramer and Donald G. Truhlar   : smd solvation model
   Lars Goerigk                                  : TD-DFT with DH, B97 family of functionals
   V. Asgeirsson, H. Jonsson                     : NEB implementation
   FAccTs GmbH                                   : IRC, NEB, NEB-TS, DLPNO-Multilevel, CI-OPT
                                                   MM, QMMM, 2- and 3-layer-ONIOM, Crystal-QMMM,
                                                   LR-CPCM, SF, NACMEs, symmetry and pop. for TD-DFT,
                                                   nearIR, NL-DFT gradient (VV10), updates on ESD,
                                                   ML-optimized integration grids
   S Lehtola, MJT Oliveira, MAL Marques          : LibXC Library
   Liviu Ungur et al                             : ANISO software


 Your calculation uses the libint2 library for the computation of 2-el integrals
 For citations please refer to: http://libint.valeyev.net

 Your ORCA version has been built with support for libXC version: 5.1.0
 For citations please refer to: https://tddft.org/programs/libxc/

 This ORCA versions uses:
   CBLAS   interface :  Fast vector & matrix operations
   LAPACKE interface :  Fast linear algebra routines
   SCALAPACK package :  Parallel linear algebra routines
   Shared memory     :  Shared parallel matrices
   BLAS/LAPACK       :  OpenBLAS 0.3.15  USE64BITINT DYNAMIC_ARCH NO_AFFINITY Haswell SINGLE_THREADED
        Core in use  :  Haswell
   Copyright (c) 2011-2014, The OpenBLAS Project


Your calculation utilizes the atom-pairwise dispersion correction
with the Becke-Johnson damping scheme (D3BJ)
Cite in your paper:
S.Grimme, S.Ehrlich, L.Goerigk, J Comput Chem, (2011), 32, 1456–1465 
S.Grimme, J.Antony, S.Ehrlich and H.Krieg, J.Chem.Phys., 132, (2010), 154104 
   

================================================================================

----- Orbital basis set information -----
Your calculation utilizes the basis: def2-TZVPD
   F. Weigend and R. Ahlrichs, Phys. Chem. Chem. Phys. 7, 3297 (2005).
   D. Rappoport and F. Furche, J. Chem. Phys. 133 134105 (2010).

----- AuxJ basis set information -----
Your calculation utilizes the auxiliary basis: def2/J
   F. Weigend, Phys. Chem. Chem. Phys. 8, 1057 (2006).

================================================================================
                                        WARNINGS
                       Please study these warnings very carefully!
================================================================================



WARNING: Found flag for RIJCOSX approximation but no HF exchange needed!
  ===> : RIJCOSX  will be disabled and Split-RI-J is turned on

INFO   : the flag for use of the SHARK integral package has been found!

================================================================================
                                       INPUT FILE
================================================================================
NAME = TZVPD_TPSS_C1_wt_dlpno_pos.com
|  1> !TPSS D3BJ RIJCOSX def2-TZVPD def2/J TightSCF
|  2> *xyz 0 1 
|  3> C          1.63556       -1.67040       -5.29211
|  4> C          0.33848       -1.50091       -4.50540
|  5> C          2.48451       -0.50741       -5.14039
|  6> H          1.39834       -1.82924       -6.35259
|  7> H          2.15586       -2.56540       -4.93209
|  8> C          3.45115       -0.14953       -5.95259
|  9> N          3.92267        1.08956       -5.85071
| 10> N          3.96616       -1.00618       -6.86788
| 11> H          3.52139       -1.90647       -6.99527
| 12> H          4.44482       -0.62347       -7.67035
| 13> H          2.25200        0.24080       -4.49879
| 14> H          3.46428        1.64078       -5.13639
| 15> H          4.83447        1.31375       -6.22465
| 16> H         -0.17658       -0.62881       -4.85045
| 17> H          0.56384       -1.39374       -3.46490
| 18> H         -0.28102       -2.36136       -4.64938
| 19> *
| 20> 
| 21> %MaxCore 64000
| 22> 
| 23> %pal nprocs 4
| 24> end  
| 25> 
| 26> %scf
| 27>   MaxIter 150
| 28> end
| 29> 
| 30> 
| 31>                          ****END OF INPUT****
================================================================================

                       ****************************
                       * Single Point Calculation *
                       ****************************

---------------------------------
CARTESIAN COORDINATES (ANGSTROEM)
---------------------------------
  C      1.635560   -1.670400   -5.292110
  C      0.338480   -1.500910   -4.505400
  C      2.484510   -0.507410   -5.140390
  H      1.398340   -1.829240   -6.352590
  H      2.155860   -2.565400   -4.932090
  C      3.451150   -0.149530   -5.952590
  N      3.922670    1.089560   -5.850710
  N      3.966160   -1.006180   -6.867880
  H      3.521390   -1.906470   -6.995270
  H      4.444820   -0.623470   -7.670350
  H      2.252000    0.240800   -4.498790
  H      3.464280    1.640780   -5.136390
  H      4.834470    1.313750   -6.224650
  H     -0.176580   -0.628810   -4.850450
  H      0.563840   -1.393740   -3.464900
  H     -0.281020   -2.361360   -4.649380

----------------------------
CARTESIAN COORDINATES (A.U.)
----------------------------
  NO LB      ZA    FRAG     MASS         X           Y           Z
   0 C     6.0000    0    12.011    3.090760   -3.156599  -10.000639
   1 C     6.0000    0    12.011    0.639635   -2.836309   -8.513972
   2 C     6.0000    0    12.011    4.695043   -0.958866   -9.713929
   3 H     1.0000    0     1.008    2.642480   -3.456763  -12.004655
   4 H     1.0000    0     1.008    4.073985   -4.847903   -9.320299
   5 C     6.0000    0    12.011    6.521728   -0.282571  -11.248765
   6 N     7.0000    0    14.007    7.412772    2.058970  -11.056240
   7 N     7.0000    0    14.007    7.494956   -1.901405  -12.978412
   8 H     1.0000    0     1.008    6.654463   -3.602706  -13.219145
   9 H     1.0000    0     1.008    8.399493   -1.178188  -14.494861
  10 H     1.0000    0     1.008    4.255663    0.455046   -8.501481
  11 H     1.0000    0     1.008    6.546540    3.100625   -9.706370
  12 H     1.0000    0     1.008    9.135824    2.482628  -11.762884
  13 H     1.0000    0     1.008   -0.333688   -1.188279   -9.166022
  14 H     1.0000    0     1.008    1.065503   -2.633787   -6.547712
  15 H     1.0000    0     1.008   -0.531051   -4.462324   -8.786055

--------------------------------
INTERNAL COORDINATES (ANGSTROEM)
--------------------------------
 C      0   0   0     0.000000000000     0.00000000     0.00000000
 C      1   0   0     1.526452099019     0.00000000     0.00000000
 C      1   2   0     1.447853860374   110.79630082     0.00000000
 H      1   2   3     1.098235541403   109.27983290   238.48612086
 H      1   2   3     1.096061809571   108.95036832   121.23137438
 C      3   1   2     1.312303251539   125.88108164   201.13093006
 N      6   3   1     1.329682169881   117.89912014   164.56341170
 N      6   3   1     1.355300817789   121.70242568   344.31618449
 H      8   6   3     1.012210773061   118.69888469     7.01850578
 H      8   6   3     1.009722952398   118.50845680   158.08561097
 H      3   1   2     1.012684385285   121.68431269     6.65893231
 H      7   6   3     1.012036532394   113.64189798   359.66429587
 H      7   6   3     1.010678742084   119.88613512   160.18204289
 H      2   1   3     1.070002203783   109.47108166    58.76861412
 H      2   1   3     1.070005975918   109.47079003   298.76901239
 H      2   1   3     1.069992847126   109.47129286   178.76902232

---------------------------
INTERNAL COORDINATES (A.U.)
---------------------------
 C      0   0   0     0.000000000000     0.00000000     0.00000000
 C      1   0   0     2.884576423695     0.00000000     0.00000000
 C      1   2   0     2.736047278048   110.79630082     0.00000000
 H      1   2   3     2.075364403790   109.27983290   238.48612086
 H      1   2   3     2.071256645939   108.95036832   121.23137438
 C      3   1   2     2.479893750063   125.88108164   201.13093006
 N      6   3   1     2.512735146234   117.89912014   164.56341170
 N      6   3   1     2.561147374701   121.70242568   344.31618449
 H      8   6   3     1.912801150889   118.69888469     7.01850578
 H      8   6   3     1.908099851167   118.50845680   158.08561097
 H      3   1   2     1.913696148287   121.68431269     6.65893231
 H      7   6   3     1.912471883748   113.64189798   359.66429587
 H      7   6   3     1.909906031914   119.88613512   160.18204289
 H      2   1   3     2.022011127842   109.47108166    58.76861412
 H      2   1   3     2.022018256144   109.47079003   298.76901239
 H      2   1   3     2.021993446322   109.47129286   178.76902232

---------------------
BASIS SET INFORMATION
---------------------
There are 3 groups of distinct atoms

 Group   1 Type C   : 12s6p3d1f contracted to 6s3p3d1f pattern {621111/411/111/1}
 Group   2 Type H   : 5s2p contracted to 3s2p pattern {311/11}
 Group   3 Type N   : 12s6p3d1f contracted to 6s3p3d1f pattern {621111/411/111/1}

Atom   0C    basis set group =>   1
Atom   1C    basis set group =>   1
Atom   2C    basis set group =>   1
Atom   3H    basis set group =>   2
Atom   4H    basis set group =>   2
Atom   5C    basis set group =>   1
Atom   6N    basis set group =>   3
Atom   7N    basis set group =>   3
Atom   8H    basis set group =>   2
Atom   9H    basis set group =>   2
Atom  10H    basis set group =>   2
Atom  11H    basis set group =>   2
Atom  12H    basis set group =>   2
Atom  13H    basis set group =>   2
Atom  14H    basis set group =>   2
Atom  15H    basis set group =>   2
---------------------------------
AUXILIARY/J BASIS SET INFORMATION
---------------------------------
There are 3 groups of distinct atoms

 Group   1 Type C   : 12s5p4d2f1g contracted to 6s4p3d1f1g pattern {711111/2111/211/2/1}
 Group   2 Type H   : 5s2p1d contracted to 3s1p1d pattern {311/2/1}
 Group   3 Type N   : 12s5p4d2f1g contracted to 6s4p3d1f1g pattern {711111/2111/211/2/1}

Atom   0C    basis set group =>   1
Atom   1C    basis set group =>   1
Atom   2C    basis set group =>   1
Atom   3H    basis set group =>   2
Atom   4H    basis set group =>   2
Atom   5C    basis set group =>   1
Atom   6N    basis set group =>   3
Atom   7N    basis set group =>   3
Atom   8H    basis set group =>   2
Atom   9H    basis set group =>   2
Atom  10H    basis set group =>   2
Atom  11H    basis set group =>   2
Atom  12H    basis set group =>   2
Atom  13H    basis set group =>   2
Atom  14H    basis set group =>   2
Atom  15H    basis set group =>   2


           ************************************************************
           *        Program running with 4 parallel MPI-processes     *
           *              working on a common directory               *
           ************************************************************
------------------------------------------------------------------------------
                           ORCA GTO INTEGRAL CALCULATION
                           -- RI-GTO INTEGRALS CHOSEN --
------------------------------------------------------------------------------
------------------------------------------------------------------------------
                   ___                                                        
                  /   \      - P O W E R E D   B Y -                         
                 /     \                                                     
                 |  |  |   _    _      __       _____    __    __             
                 |  |  |  | |  | |    /  \     |  _  \  |  |  /  |          
                  \  \/   | |  | |   /    \    | | | |  |  | /  /          
                 / \  \   | |__| |  /  /\  \   | |_| |  |  |/  /          
                |  |  |   |  __  | /  /__\  \  |    /   |      \           
                |  |  |   | |  | | |   __   |  |    \   |  |\   \          
                \     /   | |  | | |  |  |  |  | |\  \  |  | \   \       
                 \___/    |_|  |_| |__|  |__|  |_| \__\ |__|  \__/        
                                                                              
                      - O R C A' S   B I G   F R I E N D -                    
                                      &                                       
                       - I N T E G R A L  F E E D E R -                       
                                                                              
 v1 FN, 2020, v2 2021                                                         
------------------------------------------------------------------------------


Reading SHARK input file TZVPD_TPSS_C1_wt_dlpno_pos.SHARKINP.tmp ... ok
----------------------
SHARK INTEGRAL PACKAGE
----------------------

Number of atoms                             ...     16
Number of basis functions                   ...    312
Number of shells                            ...    128
Maximum angular momentum                    ...      3
Integral batch strategy                     ... SHARK/LIBINT Hybrid
RI-J (if used) integral strategy            ... SPLIT-RIJ (Revised 2003 algorithm where possible)
Printlevel                                  ...      1
Contraction scheme used                     ... SEGMENTED contraction
Coulomb Range Separation                    ... NOT USED
Exchange Range Separation                   ... NOT USED
Finite Nucleus Model                        ... NOT USED
Auxiliary Coulomb fitting basis             ... AVAILABLE
   # of basis functions in Aux-J            ...    404
   # of shells in Aux-J                     ...    140
   Maximum angular momentum in Aux-J        ...      4
Auxiliary J/K fitting basis                 ... NOT available
Auxiliary Correlation fitting basis         ... NOT available
Auxiliary 'external' fitting basis          ... NOT available
Integral threshold                          ...     2.500000e-11
Primitive cut-off                           ...     2.500000e-12
Primitive pair pre-selection threshold      ...     2.500000e-12

Calculating pre-screening integrals         ... done (  0.1 sec) Dimension = 128
Organizing shell pair data                  ... done (  0.1 sec)
Shell pair information
Total number of shell pairs                 ...      8256
Shell pairs after pre-screening             ...      7838
Total number of primitive shell pairs       ...     20665
Primitive shell pairs kept                  ...     16063
          la=0 lb=0:   2038 shell pairs
          la=1 lb=0:   2386 shell pairs
          la=1 lb=1:    720 shell pairs
          la=2 lb=0:   1144 shell pairs
          la=2 lb=1:    667 shell pairs
          la=2 lb=2:    169 shell pairs
          la=3 lb=0:    371 shell pairs
          la=3 lb=1:    218 shell pairs
          la=3 lb=2:    104 shell pairs
          la=3 lb=3:     21 shell pairs

Calculating one electron integrals          ... done (  0.0 sec)
Calculating RI/J V-Matrix + Cholesky decomp.... done (  0.0 sec)
Calculating Nuclear repulsion               ... done (  0.0 sec) ENN=    245.153532751643 Eh

SHARK setup successfully completed in   0.3 seconds

Maximum memory used throughout the entire GTOINT-calculation: 14.0 MB


           ************************************************************
           *        Program running with 4 parallel MPI-processes     *
           *              working on a common directory               *
           ************************************************************
-------------------------------------------------------------------------------
                                 ORCA SCF
-------------------------------------------------------------------------------

------------
SCF SETTINGS
------------
Hamiltonian:
 Density Functional     Method          .... DFT(GTOs)
 Exchange Functional    Exchange        .... TPSS
 Correlation Functional Correlation     .... TPSS
 LDA part of GGA corr.  LDAOpt          .... PW91-LDA
 Gradients option       PostSCFGGA      .... off
   Density functional embedding theory  .... OFF
   NL short-range parameter             ....  5.000000
 RI-approximation to the Coulomb term is turned on
   Number of AuxJ basis functions       .... 404


General Settings:
 Integral files         IntName         .... TZVPD_TPSS_C1_wt_dlpno_pos
 Hartree-Fock type      HFTyp           .... RHF
 Total Charge           Charge          ....    0
 Multiplicity           Mult            ....    1
 Number of Electrons    NEL             ....   48
 Basis Dimension        Dim             ....  312
 Nuclear Repulsion      ENuc            ....    245.1535327516 Eh

Convergence Acceleration:
 DIIS                   CNVDIIS         .... on
   Start iteration      DIISMaxIt       ....    12
   Startup error        DIISStart       ....  0.200000
   # of expansion vecs  DIISMaxEq       ....     5
   Bias factor          DIISBfac        ....   1.050
   Max. coefficient     DIISMaxC        ....  10.000
 Trust-Rad. Augm. Hess. CNVTRAH         .... auto
   Auto Start mean grad. ratio tolernc. ....  1.125000
   Auto Start start iteration           ....    20
   Auto Start num. interpolation iter.  ....    10
   Max. Number of Micro iterations      ....    16
   Max. Number of Macro iterations      .... Maxiter - #DIIS iter
   Number of Davidson start vectors     ....     2
   Converg. threshold I  (grad. norm)   ....   1.000e-05
   Converg. threshold II (energy diff.) ....   1.000e-08
   Grad. Scal. Fac. for Micro threshold ....   0.100
   Minimum threshold for Micro iter.    ....   0.010
   NR start threshold (gradient norm)   ....   0.001
   Initial trust radius                 ....   0.400
   Minimum AH scaling param. (alpha)    ....   1.000
   Maximum AH scaling param. (alpha)    .... 1000.000
   Orbital update algorithm             .... Taylor
   White noise on init. David. guess    .... on
   Maximum white noise                  ....   0.010
   Quad. conv. algorithm                .... NR
 SOSCF                  CNVSOSCF        .... on
   Start iteration      SOSCFMaxIt      ....   150
   Startup grad/error   SOSCFStart      ....  0.003300
 Level Shifting         CNVShift        .... on
   Level shift para.    LevelShift      ....    0.2500
   Turn off err/grad.   ShiftErr        ....    0.0010
 Zerner damping         CNVZerner       .... off
 Static damping         CNVDamp         .... on
   Fraction old density DampFac         ....    0.7000
   Max. Damping (<1)    DampMax         ....    0.9800
   Min. Damping (>=0)   DampMin         ....    0.0000
   Turn off err/grad.   DampErr         ....    0.1000
 Fernandez-Rico         CNVRico         .... off

SCF Procedure:
 Maximum # iterations   MaxIter         ....   150
 SCF integral mode      SCFMode         .... Direct
   Integral package                     .... SHARK and LIBINT hybrid scheme
 Reset frequency        DirectResetFreq ....    20
 Integral Threshold     Thresh          ....  2.500e-11 Eh
 Primitive CutOff       TCut            ....  2.500e-12 Eh

Convergence Tolerance:
 Convergence Check Mode ConvCheckMode   .... Total+1el-Energy
 Convergence forced     ConvForced      .... 0
 Energy Change          TolE            ....  1.000e-08 Eh
 1-El. energy change                    ....  1.000e-05 Eh
 Orbital Gradient       TolG            ....  1.000e-05
 Orbital Rotation angle TolX            ....  1.000e-05
 DIIS Error             TolErr          ....  5.000e-07


Diagonalization of the overlap matrix:
Smallest eigenvalue                        ... 1.258e-06
Time for diagonalization                   ...    0.020 sec
Threshold for overlap eigenvalues          ... 1.000e-08
Number of eigenvalues below threshold      ... 0
Time for construction of square roots      ...    0.015 sec
Total time needed                          ...    0.036 sec

Time for model grid setup =    0.136 sec

------------------------------
INITIAL GUESS: MODEL POTENTIAL
------------------------------
Loading Hartree-Fock densities                     ... done
Calculating cut-offs                               ... done
Initializing the effective Hamiltonian             ... done
Setting up the integral package (SHARK)            ... done
Starting the Coulomb interaction                   ... done (   0.1 sec)
Reading the grid                                   ... done
Mapping shells                                     ... done
Starting the XC term evaluation                    ... done (   0.2 sec)
  promolecular density results
     # of electrons  =     47.994808345
     EX              =    -36.590298801
     EC              =     -1.578206323
     EX+EC           =    -38.168505124
Transforming the Hamiltonian                       ... done (   0.0 sec)
Diagonalizing the Hamiltonian                      ... done (   0.0 sec)
Back transforming the eigenvectors                 ... done (   0.0 sec)
Now organizing SCF variables                       ... done
                      ------------------
                      INITIAL GUESS DONE (   0.5 sec)
                      ------------------
-------------------
DFT GRID GENERATION
-------------------

General Integration Accuracy     IntAcc      ... 4.388
Radial Grid Type                 RadialGrid  ... OptM3 with GC (2021)
Angular Grid (max. ang.)         AngularGrid ... 4 (Lebedev-302)
Angular grid pruning method      GridPruning ... 4 (adaptive)
Weight generation scheme         WeightScheme... Becke
Basis function cutoff            BFCut       ... 1.0000e-11
Integration weight cutoff        WCut        ... 1.0000e-14
Angular grids for H and He will be reduced by one unit
Partially contracted basis set               ... off
Rotationally invariant grid construction     ... off

Total number of grid points                  ...    71972
Total number of batches                      ...     1133
Average number of points per batch           ...       63
Average number of grid points per atom       ...     4498
Time for grid setup =    0.498 sec

--------------
SCF ITERATIONS
--------------
ITER       Energy         Delta-E        Max-DP      RMS-DP      [F,P]     Damp
               ***  Starting incremental Fock matrix formation  ***
  0   -267.7401077210   0.000000000000 0.29769690  0.00339955  0.2357947 0.7000
  1   -267.8964115247  -0.156303803695 0.26572734  0.00257317  0.1068122 0.7000
                               ***Turning on DIIS***
  2   -267.9498727456  -0.053461220968 0.48286819  0.00504927  0.0282557 0.0000
  3   -268.0239120167  -0.074039271065 0.17420976  0.00201087  0.0668483 0.0000
  4   -268.0514675429  -0.027555526159 0.03889577  0.00085325  0.0159570 0.0000
  5   -268.0531993857  -0.001731842887 0.02376174  0.00046590  0.0040522 0.0000
                      *** Initiating the SOSCF procedure ***
                           *** Shutting down DIIS ***
                      *** Re-Reading the Fockian *** 
                      *** Removing any level shift *** 
ITER      Energy       Delta-E        Grad      Rot      Max-DP    RMS-DP
  6   -268.05334362  -0.0001442333  0.000570  0.000570  0.016760  0.000249
               *** Restarting incremental Fock matrix formation ***
  7   -268.05336584  -0.0000222220  0.000275  0.001229  0.018104  0.000244
  8   -268.05336894  -0.0000030944  0.000155  0.000376  0.006566  0.000080
  9   -268.05336878   0.0000001551  0.000137  0.000354  0.005125  0.000073
 10   -268.05336993  -0.0000011477  0.000027  0.000099  0.002460  0.000021
 11   -268.05336986   0.0000000670  0.000039  0.000087  0.002774  0.000023
 12   -268.05337001  -0.0000001459  0.000005  0.000013  0.011738  0.000068
 13   -268.05337000   0.0000000023  0.000008  0.000006  0.000684  0.000006
                  ***Gradient check signals convergence***
              ***Rediagonalizing the Fockian in SOSCF/NRSCF***

               *****************************************************
               *                     SUCCESS                       *
               *           SCF CONVERGED AFTER  14 CYCLES          *
               *****************************************************


----------------
TOTAL SCF ENERGY
----------------

Total Energy       :         -268.05337001 Eh           -7294.10302 eV

Components:
Nuclear Repulsion  :          245.15353275 Eh            6670.96677 eV
Electronic Energy  :         -513.20690277 Eh          -13965.06979 eV
One Electron Energy:         -846.65132791 Eh          -23038.55389 eV
Two Electron Energy:          333.44442514 Eh            9073.48410 eV

Virial components:
Potential Energy   :         -535.55596836 Eh          -14573.21879 eV
Kinetic Energy     :          267.50259835 Eh            7279.11576 eV
Virial Ratio       :            2.00205894


DFT components:
N(Alpha)           :       24.000043631103 electrons
N(Beta)            :       24.000043631103 electrons
N(Total)           :       48.000087262206 electrons
E(X)               :      -37.975845761095 Eh       
E(C)               :       -1.586259593491 Eh       
E(XC)              :      -39.562105354586 Eh       
DFET-embed. en.    :        0.000000000000 Eh       

---------------
SCF CONVERGENCE
---------------

  Last Energy change         ...   -9.7136e-09  Tolerance :   1.0000e-08
  Last MAX-Density change    ...    2.4763e-03  Tolerance :   1.0000e-07
  Last RMS-Density change    ...    1.8295e-05  Tolerance :   5.0000e-09
  Last Orbital Gradient      ...    8.3485e-07  Tolerance :   1.0000e-05
  Last Orbital Rotation      ...    1.3242e-06  Tolerance :   1.0000e-05

             **** THE GBW FILE WAS UPDATED (TZVPD_TPSS_C1_wt_dlpno_pos.gbw) ****
             **** DENSITY TZVPD_TPSS_C1_wt_dlpno_pos.scfp WAS UPDATED ****
             **** ENERGY FILE WAS UPDATED (TZVPD_TPSS_C1_wt_dlpno_pos.en.tmp) ****
             **** THE GBW FILE WAS UPDATED (TZVPD_TPSS_C1_wt_dlpno_pos.gbw) ****
             **** DENSITY TZVPD_TPSS_C1_wt_dlpno_pos.scfp WAS UPDATED ****
----------------
ORBITAL ENERGIES
----------------

  NO   OCC          E(Eh)            E(eV) 
   0   2.0000     -14.103216      -383.7680 
   1   2.0000     -14.098690      -383.6448 
   2   2.0000     -10.017109      -272.5794 
   3   2.0000      -9.963072      -271.1090 
   4   2.0000      -9.953909      -270.8596 
   5   2.0000      -9.907162      -269.5876 
   6   2.0000      -0.893138       -24.3035 
   7   2.0000      -0.811746       -22.0887 
   8   2.0000      -0.718831       -19.5604 
   9   2.0000      -0.643981       -17.5236 
  10   2.0000      -0.562676       -15.3112 
  11   2.0000      -0.532654       -14.4942 
  12   2.0000      -0.488372       -13.2893 
  13   2.0000      -0.468958       -12.7610 
  14   2.0000      -0.424348       -11.5471 
  15   2.0000      -0.399262       -10.8645 
  16   2.0000      -0.385906       -10.5010 
  17   2.0000      -0.354302        -9.6411 
  18   2.0000      -0.337487        -9.1835 
  19   2.0000      -0.304509        -8.2861 
  20   2.0000      -0.294843        -8.0231 
  21   2.0000      -0.293106        -7.9758 
  22   2.0000      -0.224372        -6.1055 
  23   2.0000      -0.134751        -3.6668 
  24   0.0000      -0.010372        -0.2822 
  25   0.0000       0.013086         0.3561 
  26   0.0000       0.019229         0.5233 
  27   0.0000       0.038750         1.0544 
  28   0.0000       0.041886         1.1398 
  29   0.0000       0.048285         1.3139 
  30   0.0000       0.061945         1.6856 
  31   0.0000       0.065096         1.7714 
  32   0.0000       0.085350         2.3225 
  33   0.0000       0.094039         2.5589 
  34   0.0000       0.098932         2.6921 
  35   0.0000       0.112087         3.0500 
  36   0.0000       0.117382         3.1941 
  37   0.0000       0.123131         3.3506 
  38   0.0000       0.136287         3.7086 
  39   0.0000       0.140958         3.8357 
  40   0.0000       0.142587         3.8800 
  41   0.0000       0.153148         4.1674 
  42   0.0000       0.162076         4.4103 
  43   0.0000       0.167654         4.5621 
  44   0.0000       0.181447         4.9374 
  45   0.0000       0.188190         5.1209 
  46   0.0000       0.193846         5.2748 
  47   0.0000       0.197259         5.3677 
  48   0.0000       0.215277         5.8580 
  49   0.0000       0.222367         6.0509 
  50   0.0000       0.224450         6.1076 
  51   0.0000       0.227338         6.1862 
  52   0.0000       0.233375         6.3505 
  53   0.0000       0.239538         6.5182 
  54   0.0000       0.252005         6.8574 
  55   0.0000       0.257723         7.0130 
  56   0.0000       0.258255         7.0275 
  57   0.0000       0.268513         7.3066 
  58   0.0000       0.272989         7.4284 
  59   0.0000       0.277720         7.5572 
  60   0.0000       0.279886         7.6161 
  61   0.0000       0.289996         7.8912 
  62   0.0000       0.292529         7.9601 
  63   0.0000       0.303646         8.2626 
  64   0.0000       0.304475         8.2852 
  65   0.0000       0.313074         8.5192 
  66   0.0000       0.317702         8.6451 
  67   0.0000       0.326578         8.8866 
  68   0.0000       0.332604         9.0506 
  69   0.0000       0.339746         9.2449 
  70   0.0000       0.344190         9.3659 
  71   0.0000       0.351403         9.5622 
  72   0.0000       0.364724         9.9247 
  73   0.0000       0.369545        10.0558 
  74   0.0000       0.370007        10.0684 
  75   0.0000       0.381319        10.3762 
  76   0.0000       0.385242        10.4830 
  77   0.0000       0.398599        10.8464 
  78   0.0000       0.404705        11.0126 
  79   0.0000       0.413450        11.2505 
  80   0.0000       0.417571        11.3627 
  81   0.0000       0.419448        11.4138 
  82   0.0000       0.424474        11.5505 
  83   0.0000       0.430659        11.7188 
  84   0.0000       0.436385        11.8746 
  85   0.0000       0.439887        11.9699 
  86   0.0000       0.452884        12.3236 
  87   0.0000       0.455616        12.3979 
  88   0.0000       0.463612        12.6155 
  89   0.0000       0.477566        12.9952 
  90   0.0000       0.477780        13.0010 
  91   0.0000       0.482642        13.1333 
  92   0.0000       0.494939        13.4680 
  93   0.0000       0.507027        13.7969 
  94   0.0000       0.511863        13.9285 
  95   0.0000       0.522134        14.2080 
  96   0.0000       0.523671        14.2498 
  97   0.0000       0.532881        14.5004 
  98   0.0000       0.543526        14.7901 
  99   0.0000       0.549124        14.9424 
 100   0.0000       0.555232        15.1086 
 101   0.0000       0.559741        15.2313 
 102   0.0000       0.583211        15.8700 
 103   0.0000       0.595643        16.2083 
 104   0.0000       0.602753        16.4017 
 105   0.0000       0.615705        16.7542 
 106   0.0000       0.619266        16.8511 
 107   0.0000       0.636427        17.3181 
 108   0.0000       0.665267        18.1028 
 109   0.0000       0.672193        18.2913 
 110   0.0000       0.678340        18.4586 
 111   0.0000       0.684818        18.6348 
 112   0.0000       0.689732        18.7686 
 113   0.0000       0.696873        18.9629 
 114   0.0000       0.700555        19.0631 
 115   0.0000       0.708135        19.2693 
 116   0.0000       0.718385        19.5482 
 117   0.0000       0.722170        19.6512 
 118   0.0000       0.729937        19.8626 
 119   0.0000       0.740944        20.1621 
 120   0.0000       0.747898        20.3513 
 121   0.0000       0.752694        20.4819 
 122   0.0000       0.768312        20.9068 
 123   0.0000       0.775207        21.0945 
 124   0.0000       0.785060        21.3626 
 125   0.0000       0.789648        21.4874 
 126   0.0000       0.808406        21.9978 
 127   0.0000       0.812259        22.1027 
 128   0.0000       0.829525        22.5725 
 129   0.0000       0.834549        22.7092 
 130   0.0000       0.857796        23.3418 
 131   0.0000       0.864474        23.5235 
 132   0.0000       0.887539        24.1512 
 133   0.0000       0.901612        24.5341 
 134   0.0000       0.917016        24.9533 
 135   0.0000       0.941281        25.6136 
 136   0.0000       0.952423        25.9168 
 137   0.0000       0.963826        26.2270 
 138   0.0000       0.972360        26.4593 
 139   0.0000       0.993163        27.0253 
 140   0.0000       1.001732        27.2585 
 141   0.0000       1.014957        27.6184 
 142   0.0000       1.022821        27.8324 
 143   0.0000       1.068499        29.0753 
 144   0.0000       1.074288        29.2329 
 145   0.0000       1.136707        30.9314 
 146   0.0000       1.162731        31.6395 
 147   0.0000       1.171013        31.8649 
 148   0.0000       1.200621        32.6706 
 149   0.0000       1.237430        33.6722 
 150   0.0000       1.262344        34.3501 
 151   0.0000       1.278895        34.8005 
 152   0.0000       1.315276        35.7905 
 153   0.0000       1.330693        36.2100 
 154   0.0000       1.348871        36.7047 
 155   0.0000       1.350993        36.7624 
 156   0.0000       1.361523        37.0489 
 157   0.0000       1.384249        37.6673 
 158   0.0000       1.440738        39.2045 
 159   0.0000       1.463927        39.8355 
 160   0.0000       1.490972        40.5714 
 161   0.0000       1.508376        41.0450 
 162   0.0000       1.551772        42.2259 
 163   0.0000       1.568568        42.6829 
 164   0.0000       1.611925        43.8627 
 165   0.0000       1.640392        44.6373 
 166   0.0000       1.655777        45.0560 
 167   0.0000       1.701228        46.2928 
 168   0.0000       1.744260        47.4637 
 169   0.0000       1.767274        48.0900 
 170   0.0000       1.782340        48.4999 
 171   0.0000       1.794173        48.8219 
 172   0.0000       1.803181        49.0670 
 173   0.0000       1.809740        49.2455 
 174   0.0000       1.826152        49.6921 
 175   0.0000       1.853277        50.4302 
 176   0.0000       1.869924        50.8832 
 177   0.0000       1.875119        51.0246 
 178   0.0000       1.895988        51.5925 
 179   0.0000       1.901891        51.7531 
 180   0.0000       1.919586        52.2346 
 181   0.0000       1.944498        52.9125 
 182   0.0000       1.953052        53.1453 
 183   0.0000       1.987785        54.0904 
 184   0.0000       2.007323        54.6220 
 185   0.0000       2.029977        55.2385 
 186   0.0000       2.047882        55.7257 
 187   0.0000       2.101209        57.1768 
 188   0.0000       2.117689        57.6252 
 189   0.0000       2.142500        58.3004 
 190   0.0000       2.151142        58.5355 
 191   0.0000       2.180801        59.3426 
 192   0.0000       2.195687        59.7477 
 193   0.0000       2.222696        60.4826 
 194   0.0000       2.238597        60.9153 
 195   0.0000       2.258162        61.4477 
 196   0.0000       2.296279        62.4849 
 197   0.0000       2.322131        63.1884 
 198   0.0000       2.376467        64.6669 
 199   0.0000       2.389960        65.0341 
 200   0.0000       2.407454        65.5102 
 201   0.0000       2.429574        66.1121 
 202   0.0000       2.471132        67.2429 
 203   0.0000       2.472368        67.2765 
 204   0.0000       2.525342        68.7181 
 205   0.0000       2.543865        69.2221 
 206   0.0000       2.549155        69.3660 
 207   0.0000       2.562737        69.7356 
 208   0.0000       2.596660        70.6587 
 209   0.0000       2.622634        71.3655 
 210   0.0000       2.646213        72.0071 
 211   0.0000       2.666180        72.5504 
 212   0.0000       2.690464        73.2113 
 213   0.0000       2.717301        73.9415 
 214   0.0000       2.742115        74.6167 
 215   0.0000       2.768278        75.3287 
 216   0.0000       2.776789        75.5603 
 217   0.0000       2.798726        76.1572 
 218   0.0000       2.805398        76.3388 
 219   0.0000       2.821216        76.7692 
 220   0.0000       2.854333        77.6704 
 221   0.0000       2.885741        78.5250 
 222   0.0000       2.894605        78.7662 
 223   0.0000       2.932055        79.7853 
 224   0.0000       2.939248        79.9810 
 225   0.0000       2.964756        80.6751 
 226   0.0000       3.024897        82.3116 
 227   0.0000       3.031291        82.4856 
 228   0.0000       3.060528        83.2812 
 229   0.0000       3.078197        83.7620 
 230   0.0000       3.094471        84.2048 
 231   0.0000       3.123779        85.0023 
 232   0.0000       3.139907        85.4412 
 233   0.0000       3.167216        86.1843 
 234   0.0000       3.174267        86.3762 
 235   0.0000       3.200085        87.0788 
 236   0.0000       3.208211        87.2999 
 237   0.0000       3.232986        87.9740 
 238   0.0000       3.258730        88.6746 
 239   0.0000       3.280882        89.2773 
 240   0.0000       3.323791        90.4449 
 241   0.0000       3.330255        90.6208 
 242   0.0000       3.348911        91.1285 
 243   0.0000       3.383087        92.0585 
 244   0.0000       3.390962        92.2728 
 245   0.0000       3.435795        93.4927 
 246   0.0000       3.454036        93.9891 
 247   0.0000       3.474764        94.5531 
 248   0.0000       3.482909        94.7748 
 249   0.0000       3.518295        95.7377 
 250   0.0000       3.549997        96.6003 
 251   0.0000       3.588249        97.6412 
 252   0.0000       3.606861        98.1477 
 253   0.0000       3.634460        98.8987 
 254   0.0000       3.649847        99.3174 
 255   0.0000       3.675312       100.0103 
 256   0.0000       3.730126       101.5019 
 257   0.0000       3.779868       102.8554 
 258   0.0000       3.790077       103.1332 
 259   0.0000       3.851361       104.8009 
 260   0.0000       3.907025       106.3156 
 261   0.0000       3.925579       106.8204 
 262   0.0000       3.954616       107.6106 
 263   0.0000       4.001084       108.8750 
 264   0.0000       4.006449       109.0210 
 265   0.0000       4.032451       109.7286 
 266   0.0000       4.119462       112.0963 
 267   0.0000       4.177495       113.6754 
 268   0.0000       4.221599       114.8755 
 269   0.0000       4.289654       116.7274 
 270   0.0000       4.303946       117.1163 
 271   0.0000       4.334342       117.9434 
 272   0.0000       4.403381       119.8221 
 273   0.0000       4.497771       122.3906 
 274   0.0000       4.501509       122.4923 
 275   0.0000       4.539445       123.5246 
 276   0.0000       4.613973       125.5526 
 277   0.0000       4.677029       127.2684 
 278   0.0000       4.706955       128.0828 
 279   0.0000       4.738288       128.9354 
 280   0.0000       4.755375       129.4003 
 281   0.0000       4.774773       129.9282 
 282   0.0000       4.806823       130.8003 
 283   0.0000       4.839256       131.6829 
 284   0.0000       4.860950       132.2732 
 285   0.0000       4.881752       132.8392 
 286   0.0000       4.932026       134.2073 
 287   0.0000       4.936002       134.3155 
 288   0.0000       4.990484       135.7980 
 289   0.0000       5.028778       136.8400 
 290   0.0000       5.080176       138.2386 
 291   0.0000       5.115030       139.1870 
 292   0.0000       5.180003       140.9550 
 293   0.0000       5.199120       141.4752 
 294   0.0000       5.257757       143.0708 
 295   0.0000       5.328399       144.9931 
 296   0.0000       5.345324       145.4537 
 297   0.0000       5.437503       147.9620 
 298   0.0000       5.479370       149.1012 
 299   0.0000       5.561201       151.3280 
 300   0.0000       5.576610       151.7473 
 301   0.0000       5.587034       152.0309 
 302   0.0000       5.731168       155.9530 
 303   0.0000       6.087034       165.6366 
 304   0.0000       6.197803       168.6508 
 305   0.0000       6.227978       169.4719 
 306   0.0000      22.595935       614.8666 
 307   0.0000      22.752156       619.1176 
 308   0.0000      23.022073       626.4625 
 309   0.0000      23.552214       640.8883 
 310   0.0000      32.230373       877.0330 
 311   0.0000      32.489341       884.0799 

                    ********************************
                    * MULLIKEN POPULATION ANALYSIS *
                    ********************************

-----------------------
MULLIKEN ATOMIC CHARGES
-----------------------
   0 C :   -0.132890
   1 C :   -1.254623
   2 C :   -0.804899
   3 H :    0.240597
   4 H :    0.210085
   5 C :    0.802149
   6 N :   -0.470474
   7 N :   -0.507337
   8 H :    0.189325
   9 H :    0.163083
  10 H :    0.359227
  11 H :    0.168847
  12 H :    0.157432
  13 H :    0.340071
  14 H :    0.295348
  15 H :    0.244059
Sum of atomic charges:    0.0000000

--------------------------------
MULLIKEN REDUCED ORBITAL CHARGES
--------------------------------
  0 C s       :     3.208240  s :     3.208240
      pz      :     1.042852  p :     2.954689
      px      :     0.924779
      py      :     0.987058
      dz2     :     0.011781  d :    -0.036927
      dxz     :    -0.030868
      dyz     :    -0.024262
      dx2y2   :     0.008154
      dxy     :    -0.001731
      f0      :     0.001155  f :     0.006888
      f+1     :     0.001171
      f-1     :     0.000234
      f+2     :     0.000467
      f-2     :     0.001187
      f+3     :     0.001203
      f-3     :     0.001473
  1 C s       :     3.625493  s :     3.625493
      pz      :     1.188263  p :     3.508696
      px      :     1.087101
      py      :     1.233332
      dz2     :     0.040922  d :     0.115938
      dxz     :     0.015950
      dyz     :     0.012182
      dx2y2   :     0.014714
      dxy     :     0.032169
      f0      :     0.000831  f :     0.004496
      f+1     :     0.001032
      f-1     :     0.000137
      f+2     :     0.000343
      f-2     :     0.000596
      f+3     :     0.001049
      f-3     :     0.000508
  2 C s       :     3.672908  s :     3.672908
      pz      :     0.829478  p :     2.913055
      px      :     1.044190
      py      :     1.039386
      dz2     :     0.061512  d :     0.210444
      dxz     :     0.038385
      dyz     :    -0.028079
      dx2y2   :     0.116201
      dxy     :     0.022425
      f0      :     0.001024  f :     0.008492
      f+1     :     0.001490
      f-1     :     0.000626
      f+2     :     0.001007
      f-2     :     0.001673
      f+3     :     0.001112
      f-3     :     0.001561
  3 H s       :     0.716947  s :     0.716947
      pz      :     0.028147  p :     0.042456
      px      :     0.005162
      py      :     0.009146
  4 H s       :     0.744738  s :     0.744738
      pz      :     0.004724  p :     0.045177
      px      :     0.016101
      py      :     0.024351
  5 C s       :     3.200971  s :     3.200971
      pz      :     0.450149  p :     1.771410
      px      :     0.686413
      py      :     0.634848
      dz2     :     0.126145  d :     0.206740
      dxz     :    -0.007273
      dyz     :     0.044664
      dx2y2   :     0.024889
      dxy     :     0.018315
      f0      :     0.002657  f :     0.018730
      f+1     :     0.002228
      f-1     :     0.002452
      f+2     :     0.002967
      f-2     :     0.002795
      f+3     :     0.002390
      f-3     :     0.003241
  6 N s       :     3.564526  s :     3.564526
      pz      :     1.474522  p :     3.849491
      px      :     1.224482
      py      :     1.150487
      dz2     :     0.004691  d :     0.052797
      dxz     :     0.005347
      dyz     :     0.011548
      dx2y2   :     0.020637
      dxy     :     0.010573
      f0      :     0.000492  f :     0.003659
      f+1     :     0.000386
      f-1     :     0.000464
      f+2     :     0.000621
      f-2     :     0.000588
      f+3     :     0.000486
      f-3     :     0.000623
  7 N s       :     3.577709  s :     3.577709
      pz      :     1.212279  p :     3.885259
      px      :     1.513221
      py      :     1.159759
      dz2     :     0.018358  d :     0.040929
      dxz     :     0.006231
      dyz     :     0.004746
      dx2y2   :     0.002572
      dxy     :     0.009022
      f0      :     0.000295  f :     0.003440
      f+1     :     0.000646
      f-1     :     0.000500
      f+2     :     0.000485
      f-2     :     0.000643
      f+3     :     0.000626
      f-3     :     0.000245
  8 H s       :     0.765168  s :     0.765168
      pz      :     0.016336  p :     0.045507
      px      :     0.004172
      py      :     0.024999
  9 H s       :     0.776005  s :     0.776005
      pz      :     0.032098  p :     0.060913
      px      :     0.023485
      py      :     0.005330
 10 H s       :     0.615694  s :     0.615694
      pz      :    -0.008534  p :     0.025079
      px      :     0.026761
      py      :     0.006851
 11 H s       :     0.784876  s :     0.784876
      pz      :     0.022249  p :     0.046277
      px      :     0.003863
      py      :     0.020165
 12 H s       :     0.781981  s :     0.781981
      pz      :     0.020756  p :     0.060587
      px      :     0.036248
      py      :     0.003584
 13 H s       :     0.603155  s :     0.603155
      pz      :     0.015562  p :     0.056774
      px      :     0.008001
      py      :     0.033211
 14 H s       :     0.650869  s :     0.650869
      pz      :     0.034093  p :     0.053782
      px      :     0.007008
      py      :     0.012682
 15 H s       :     0.687317  s :     0.687317
      pz      :     0.013850  p :     0.068624
      px      :     0.027063
      py      :     0.027712


                     *******************************
                     * LOEWDIN POPULATION ANALYSIS *
                     *******************************

----------------------
LOEWDIN ATOMIC CHARGES
----------------------
   0 C :   -0.287237
   1 C :   -0.106201
   2 C :   -0.148918
   3 H :    0.103232
   4 H :    0.103953
   5 C :   -0.544879
   6 N :    0.105858
   7 N :    0.132679
   8 H :    0.092520
   9 H :    0.092878
  10 H :    0.067280
  11 H :    0.106401
  12 H :    0.097325
  13 H :    0.064664
  14 H :    0.064005
  15 H :    0.056441

-------------------------------
LOEWDIN REDUCED ORBITAL CHARGES
-------------------------------
  0 C s       :     2.670261  s :     2.670261
      pz      :     0.903339  p :     2.753667
      px      :     0.916068
      py      :     0.934260
      dz2     :     0.172614  d :     0.816489
      dxz     :     0.142794
      dyz     :     0.110651
      dx2y2   :     0.190371
      dxy     :     0.200059
      f0      :     0.006467  f :     0.046820
      f+1     :     0.006452
      f-1     :     0.002479
      f+2     :     0.005333
      f-2     :     0.008998
      f+3     :     0.008082
      f-3     :     0.009008
  1 C s       :     2.731240  s :     2.731240
      pz      :     0.961124  p :     2.871265
      px      :     0.947072
      py      :     0.963069
      dz2     :     0.146166  d :     0.475145
      dxz     :     0.079113
      dyz     :     0.029292
      dx2y2   :     0.058199
      dxy     :     0.162375
      f0      :     0.003707  f :     0.028552
      f+1     :     0.005632
      f-1     :     0.001715
      f+2     :     0.004386
      f-2     :     0.004768
      f+3     :     0.005700
      f-3     :     0.002645
  2 C s       :     2.642078  s :     2.642078
      pz      :     0.913464  p :     2.722773
      px      :     0.916173
      py      :     0.893136
      dz2     :     0.103044  d :     0.734339
      dxz     :     0.125804
      dyz     :     0.155870
      dx2y2   :     0.187310
      dxy     :     0.162311
      f0      :     0.006166  f :     0.049728
      f+1     :     0.008020
      f-1     :     0.004163
      f+2     :     0.007252
      f-2     :     0.008788
      f+3     :     0.006286
      f-3     :     0.009052
  3 H s       :     0.684591  s :     0.684591
      pz      :     0.100099  p :     0.212177
      px      :     0.059466
      py      :     0.052612
  4 H s       :     0.692492  s :     0.692492
      pz      :     0.056472  p :     0.203555
      px      :     0.061629
      py      :     0.085455
  5 C s       :     2.593880  s :     2.593880
      pz      :     0.836563  p :     2.538130
      px      :     0.863597
      py      :     0.837969
      dz2     :     0.267052  d :     1.295006
      dxz     :     0.174057
      dyz     :     0.296874
      dx2y2   :     0.277517
      dxy     :     0.279505
      f0      :     0.017002  f :     0.117863
      f+1     :     0.012113
      f-1     :     0.016879
      f+2     :     0.017280
      f-2     :     0.015692
      f+3     :     0.016946
      f-3     :     0.021952
  6 N s       :     2.907789  s :     2.907789
      pz      :     1.259341  p :     3.575543
      px      :     1.157506
      py      :     1.158697
      dz2     :     0.035634  d :     0.398150
      dxz     :     0.036837
      dyz     :     0.107550
      dx2y2   :     0.113128
      dxy     :     0.105001
      f0      :     0.001508  f :     0.012660
      f+1     :     0.000917
      f-1     :     0.001493
      f+2     :     0.002020
      f-2     :     0.001787
      f+3     :     0.002285
      f-3     :     0.002649
  7 N s       :     2.916244  s :     2.916244
      pz      :     1.166245  p :     3.566330
      px      :     1.284032
      py      :     1.116054
      dz2     :     0.099087  d :     0.373250
      dxz     :     0.071967
      dyz     :     0.072328
      dx2y2   :     0.066297
      dxy     :     0.063571
      f0      :     0.001222  f :     0.011496
      f+1     :     0.001745
      f-1     :     0.002094
      f+2     :     0.001738
      f-2     :     0.001841
      f+3     :     0.001947
      f-3     :     0.000909
  8 H s       :     0.619573  s :     0.619573
      pz      :     0.070654  p :     0.287907
      px      :     0.111032
      py      :     0.106221
  9 H s       :     0.639724  s :     0.639724
      pz      :     0.105664  p :     0.267398
      px      :     0.091754
      py      :     0.069980
 10 H s       :     0.686386  s :     0.686386
      pz      :     0.081857  p :     0.246333
      px      :     0.074033
      py      :     0.090444
 11 H s       :     0.620553  s :     0.620553
      pz      :     0.110067  p :     0.273045
      px      :     0.082570
      py      :     0.080408
 12 H s       :     0.637054  s :     0.637054
      pz      :     0.087034  p :     0.265621
      px      :     0.118040
      py      :     0.060547
 13 H s       :     0.710565  s :     0.710565
      pz      :     0.062609  p :     0.224770
      px      :     0.067431
      py      :     0.094730
 14 H s       :     0.710745  s :     0.710745
      pz      :     0.104224  p :     0.225251
      px      :     0.060586
      py      :     0.060440
 15 H s       :     0.719171  s :     0.719171
      pz      :     0.059550  p :     0.224389
      px      :     0.073053
      py      :     0.091786


                      *****************************
                      * MAYER POPULATION ANALYSIS *
                      *****************************

  NA   - Mulliken gross atomic population
  ZA   - Total nuclear charge
  QA   - Mulliken gross atomic charge
  VA   - Mayer's total valence
  BVA  - Mayer's bonded valence
  FA   - Mayer's free valence

  ATOM       NA         ZA         QA         VA         BVA        FA
  0 C      6.1329     6.0000    -0.1329     3.5949     3.5949     0.0000
  1 C      7.2546     6.0000    -1.2546     3.9677     3.9677     0.0000
  2 C      6.8049     6.0000    -0.8049     3.3777     3.3777     0.0000
  3 H      0.7594     1.0000     0.2406     0.8447     0.8447     0.0000
  4 H      0.7899     1.0000     0.2101     0.8670     0.8670     0.0000
  5 C      5.1979     6.0000     0.8021     3.0315     3.0315    -0.0000
  6 N      7.4705     7.0000    -0.4705     3.1344     3.1344     0.0000
  7 N      7.5073     7.0000    -0.5073     3.0742     3.0742    -0.0000
  8 H      0.8107     1.0000     0.1893     0.9838     0.9838    -0.0000
  9 H      0.8369     1.0000     0.1631     1.0098     1.0098    -0.0000
 10 H      0.6408     1.0000     0.3592     0.6177     0.6177    -0.0000
 11 H      0.8312     1.0000     0.1688     1.0147     1.0147     0.0000
 12 H      0.8426     1.0000     0.1574     1.0163     1.0163     0.0000
 13 H      0.6599     1.0000     0.3401     0.8979     0.8979     0.0000
 14 H      0.7047     1.0000     0.2953     0.9691     0.9691    -0.0000
 15 H      0.7559     1.0000     0.2441     1.0400     1.0400    -0.0000

  Mayer bond orders larger than 0.100000
B(  0-C ,  1-C ) :   0.9249 B(  0-C ,  2-C ) :   0.9369 B(  0-C ,  3-H ) :   0.8043 
B(  0-C ,  4-H ) :   0.8309 B(  0-C ,  5-C ) :   0.1940 B(  1-C ,  2-C ) :   0.2575 
B(  1-C , 13-H ) :   0.9096 B(  1-C , 14-H ) :   0.9463 B(  1-C , 15-H ) :   0.9830 
B(  2-C ,  5-C ) :   1.1826 B(  2-C ,  7-N ) :   0.1080 B(  2-C , 10-H ) :   0.8677 
B(  5-C ,  6-N ) :   0.9856 B(  5-C ,  7-N ) :   0.8501 B(  5-C , 10-H ) :  -0.1758 
B(  6-N , 11-H ) :   0.9862 B(  6-N , 12-H ) :   1.0631 B(  7-N ,  8-H ) :   0.9550 
B(  7-N ,  9-H ) :   1.0423 

-------
TIMINGS
-------

Total SCF time: 0 days 0 hours 0 min 24 sec 

Total time                  ....      24.771 sec
Sum of individual times     ....      23.975 sec  ( 96.8%)

Fock matrix formation       ....      22.275 sec  ( 89.9%)
  Split-RI-J                ....       3.194 sec  ( 14.3% of F)
  XC integration            ....      18.987 sec  ( 85.2% of F)
    Basis function eval.    ....       2.294 sec  ( 12.1% of XC)
    Density eval.           ....       6.482 sec  ( 34.1% of XC)
    XC-Functional eval.     ....       0.631 sec  (  3.3% of XC)
    XC-Potential eval.      ....       9.255 sec  ( 48.7% of XC)
Diagonalization             ....       0.305 sec  (  1.2%)
Density matrix formation    ....       0.016 sec  (  0.1%)
Population analysis         ....       0.021 sec  (  0.1%)
Initial guess               ....       0.374 sec  (  1.5%)
Orbital Transformation      ....       0.000 sec  (  0.0%)
Orbital Orthonormalization  ....       0.000 sec  (  0.0%)
DIIS solution               ....       0.095 sec  (  0.4%)
SOSCF solution              ....       0.255 sec  (  1.0%)
Grid generation             ....       0.634 sec  (  2.6%)

Maximum memory used throughout the entire SCF-calculation: 36.7 MB


-------------------------------------------------------------------------------
                          DFT DISPERSION CORRECTION                            
                                                                               
                              DFTD3 V3.1  Rev 1                                
                          USING Becke-Johnson damping                          
-------------------------------------------------------------------------------
The TPSS functional is recognized
Active option DFTDOPT                   ...         4   

molecular C6(AA) [au] = 1932.029162 


            DFT-D V3
 parameters
 s6 scaling factor         :     1.0000 
 a1 scaling factor         :     0.4535 
 s8 scaling factor         :     1.9435 
 a2 scaling factor         :     4.4752 
 ad hoc parameters k1-k3   :    16.0000     1.3333    -4.0000 

 Edisp/kcal,au: -9.654932876118  -0.015386113270 
 E6   /kcal   :  -5.071535930 
 E8   /kcal   :  -4.583396946 
 % E8         :  47.472074688 

-------------------------   ----------------
Dispersion correction           -0.015386113
-------------------------   ----------------


-------------------------   --------------------
FINAL SINGLE POINT ENERGY      -268.068756127629
-------------------------   --------------------


                            ***************************************
                            *     ORCA property calculations      *
                            ***************************************

                                    ---------------------
                                    Active property flags
                                    ---------------------
   (+) Dipole Moment


------------------------------------------------------------------------------
                       ORCA ELECTRIC PROPERTIES CALCULATION
------------------------------------------------------------------------------

Dipole Moment Calculation                       ... on
Quadrupole Moment Calculation                   ... off
Polarizability Calculation                      ... off
GBWName                                         ... TZVPD_TPSS_C1_wt_dlpno_pos.gbw
Electron density file                           ... TZVPD_TPSS_C1_wt_dlpno_pos.scfp
The origin for moment calculation is the CENTER OF MASS  = ( 4.998810, -1.162541 -10.624264)

-------------
DIPOLE MOMENT
-------------
                                X             Y             Z
Electronic contribution:      4.52226       2.16298      -1.89038
Nuclear contribution   :     -3.99655      -1.83277       1.34879
                        -----------------------------------------
Total Dipole Moment    :      0.52572       0.33021      -0.54160
                        -----------------------------------------
Magnitude (a.u.)       :      0.82386
Magnitude (Debye)      :      2.09408



--------------------
Rotational spectrum 
--------------------
 
Rotational constants in cm-1:     0.262971     0.067064     0.055026 
Rotational constants in MHz :  7883.664566  2010.513309  1649.636654 

 Dipole components along the rotational axes: 
x,y,z [a.u.] :    -0.781640     0.126831     0.227365 
x,y,z [Debye]:    -1.986771     0.322378     0.577915 

 

Timings for individual modules:

Sum of individual times         ...       29.281 sec (=   0.488 min)
GTO integral calculation        ...        2.863 sec (=   0.048 min)   9.8 %
SCF iterations                  ...       26.418 sec (=   0.440 min)  90.2 %
                             ****ORCA TERMINATED NORMALLY****
TOTAL RUN TIME: 0 days 0 hours 0 minutes 29 seconds 871 msec
