
                                        *****************
                                        * O   R   C   A *
                                        *****************

                                            #,                                       
                                            ###                                      
                                            ####                                     
                                            #####                                    
                                            ######                                   
                                           ########,                                 
                                     ,,################,,,,,                         
                               ,,#################################,,                 
                          ,,##########################################,,             
                       ,#########################################, ''#####,          
                    ,#############################################,,   '####,        
                  ,##################################################,,,,####,       
                ,###########''''           ''''###############################       
              ,#####''   ,,,,##########,,,,          '''####'''          '####       
            ,##' ,,,,###########################,,,                        '##       
           ' ,,###''''                  '''############,,,                           
         ,,##''                                '''############,,,,        ,,,,,,###''
      ,#''                                            '''#######################'''  
     '                                                          ''''####''''         
             ,#######,   #######,   ,#######,      ##                                
            ,#'     '#,  ##    ##  ,#'     '#,    #''#        ######   ,####,        
            ##       ##  ##   ,#'  ##            #'  '#       #        #'  '#        
            ##       ##  #######   ##           ,######,      #####,   #    #        
            '#,     ,#'  ##    ##  '#,     ,#' ,#      #,         ##   #,  ,#        
             '#######'   ##     ##  '#######'  #'      '#     #####' # '####'        



                  #######################################################
                  #                        -***-                        #
                  #          Department of theory and spectroscopy      #
                  #    Directorship and core code : Frank Neese         #
                  #        Max Planck Institute fuer Kohlenforschung    #
                  #                Kaiser Wilhelm Platz 1               #
                  #                 D-45470 Muelheim/Ruhr               #
                  #                      Germany                        #
                  #                                                     #
                  #                  All rights reserved                #
                  #                        -***-                        #
                  #######################################################


                         Program Version 5.0.0 -  RELEASE  -
                                (SVN: $Rev: 19529$)
                ($Date: 2021-06-28 11:36:33 +0200 (Mo, 28 Jun 2021) $)


 With contributions from (in alphabetic order):
   Daniel Aravena         : Magnetic Suceptibility
   Michael Atanasov       : Ab Initio Ligand Field Theory (pilot matlab implementation)
   Alexander A. Auer      : GIAO ZORA, VPT2 properties, NMR spectrum
   Ute Becker             : Parallelization
   Giovanni Bistoni       : ED, misc. LED, open-shell LED, HFLD
   Martin Brehm           : Molecular dynamics
   Dmytro Bykov           : SCF Hessian
   Vijay G. Chilkuri      : MRCI spin determinant printing, contributions to CSF-ICE
   Dipayan Datta          : RHF DLPNO-CCSD density
   Achintya Kumar Dutta   : EOM-CC, STEOM-CC
   Dmitry Ganyushin       : Spin-Orbit,Spin-Spin,Magnetic field MRCI
   Miquel Garcia          : C-PCM Hessian, Gaussian charge scheme
   Yang Guo               : DLPNO-NEVPT2, F12-NEVPT2, CIM, IAO-localization
   Andreas Hansen         : Spin unrestricted coupled pair/coupled cluster methods
   Benjamin Helmich-Paris : MC-RPA, TRAH-SCF, COSX integrals
   Lee Huntington         : MR-EOM, pCC
   Robert Izsak           : Overlap fitted RIJCOSX, COSX-SCS-MP3, EOM
   Marcus Kettner         : VPT2
   Christian Kollmar      : KDIIS, OOCD, Brueckner-CCSD(T), CCSD density, CASPT2, CASPT2-K
   Simone Kossmann        : Meta GGA functionals, TD-DFT gradient, OOMP2, MP2 Hessian
   Martin Krupicka        : Initial AUTO-CI
   Lucas Lang             : DCDCAS
   Marvin Lechner         : AUTO-CI (C++ implementation), FIC-MRCC
   Dagmar Lenk            : GEPOL surface, SMD
   Dimitrios Liakos       : Extrapolation schemes; Compound Job, initial MDCI parallelization
   Dimitrios Manganas     : Further ROCIS development; embedding schemes
   Dimitrios Pantazis     : SARC Basis sets
   Anastasios Papadopoulos: AUTO-CI, single reference methods and gradients
   Taras Petrenko         : DFT Hessian,TD-DFT gradient, ASA, ECA, R-Raman, ABS, FL, XAS/XES, NRVS
   Peter Pinski           : DLPNO-MP2, DLPNO-MP2 Gradient
   Christoph Reimann      : Effective Core Potentials
   Marius Retegan         : Local ZFS, SOC
   Christoph Riplinger    : Optimizer, TS searches, QM/MM, DLPNO-CCSD(T), (RO)-DLPNO pert. Triples
   Tobias Risthaus        : Range-separated hybrids, TD-DFT gradient, RPA, STAB
   Michael Roemelt        : Original ROCIS implementation
   Masaaki Saitow         : Open-shell DLPNO-CCSD energy and density
   Barbara Sandhoefer     : DKH picture change effects
   Avijit Sen             : IP-ROCIS
   Kantharuban Sivalingam : CASSCF convergence, NEVPT2, FIC-MRCI
   Bernardo de Souza      : ESD, SOC TD-DFT
   Georgi Stoychev        : AutoAux, RI-MP2 NMR
   Willem Van den Heuvel  : Paramagnetic NMR
   Boris Wezisla          : Elementary symmetry handling
   Frank Wennmohs         : Technical directorship


 We gratefully acknowledge several colleagues who have allowed us to
 interface, adapt or use parts of their codes:
   Stefan Grimme, W. Hujo, H. Kruse, P. Pracht,  : VdW corrections, initial TS optimization,
                  C. Bannwarth, S. Ehlert          DFT functionals, gCP, sTDA/sTD-DF
   Ed Valeev, F. Pavosevic, A. Kumar             : LibInt (2-el integral package), F12 methods
   Garnet Chan, S. Sharma, J. Yang, R. Olivares  : DMRG
   Ulf Ekstrom                                   : XCFun DFT Library
   Mihaly Kallay                                 : mrcc  (arbitrary order and MRCC methods)
   Jiri Pittner, Ondrej Demel                    : Mk-CCSD
   Frank Weinhold                                : gennbo (NPA and NBO analysis)
   Christopher J. Cramer and Donald G. Truhlar   : smd solvation model
   Lars Goerigk                                  : TD-DFT with DH, B97 family of functionals
   V. Asgeirsson, H. Jonsson                     : NEB implementation
   FAccTs GmbH                                   : IRC, NEB, NEB-TS, DLPNO-Multilevel, CI-OPT
                                                   MM, QMMM, 2- and 3-layer-ONIOM, Crystal-QMMM,
                                                   LR-CPCM, SF, NACMEs, symmetry and pop. for TD-DFT,
                                                   nearIR, NL-DFT gradient (VV10), updates on ESD,
                                                   ML-optimized integration grids
   S Lehtola, MJT Oliveira, MAL Marques          : LibXC Library
   Liviu Ungur et al                             : ANISO software


 Your calculation uses the libint2 library for the computation of 2-el integrals
 For citations please refer to: http://libint.valeyev.net

 Your ORCA version has been built with support for libXC version: 5.1.0
 For citations please refer to: https://tddft.org/programs/libxc/

 This ORCA versions uses:
   CBLAS   interface :  Fast vector & matrix operations
   LAPACKE interface :  Fast linear algebra routines
   SCALAPACK package :  Parallel linear algebra routines
   Shared memory     :  Shared parallel matrices
   BLAS/LAPACK       :  OpenBLAS 0.3.15  USE64BITINT DYNAMIC_ARCH NO_AFFINITY Haswell SINGLE_THREADED
        Core in use  :  Haswell
   Copyright (c) 2011-2014, The OpenBLAS Project


Your calculation utilizes the atom-pairwise dispersion correction
with the Becke-Johnson damping scheme (D3BJ)
Cite in your paper:
S.Grimme, S.Ehrlich, L.Goerigk, J Comput Chem, (2011), 32, 1456–1465 
S.Grimme, J.Antony, S.Ehrlich and H.Krieg, J.Chem.Phys., 132, (2010), 154104 
   

================================================================================

----- Orbital basis set information -----
Your calculation utilizes the basis: def2-TZVPD
   F. Weigend and R. Ahlrichs, Phys. Chem. Chem. Phys. 7, 3297 (2005).
   D. Rappoport and F. Furche, J. Chem. Phys. 133 134105 (2010).

----- AuxJ basis set information -----
Your calculation utilizes the auxiliary basis: def2/J
   F. Weigend, Phys. Chem. Chem. Phys. 8, 1057 (2006).

================================================================================
                                        WARNINGS
                       Please study these warnings very carefully!
================================================================================


INFO   : the flag for use of the SHARK integral package has been found!

================================================================================
                                       INPUT FILE
================================================================================
NAME = TZVPD_B3LYP_C1_wt_dlpno_neg.com
|  1> !B3LYP D3BJ RIJCOSX def2-TZVPD def2/J TightSCF
|  2> *xyz 0 1
|  3> C          0.70466        1.44313       -4.50363
|  4> C          1.72854        1.42432       -5.63944
|  5> H          2.64672        1.95379       -5.38105
|  6> H          1.29992        1.93061       -6.50361
|  7> S          2.25263       -0.18811       -6.27184
|  8> F          3.56261       -0.44446       -5.63155
|  9> O          2.34494       -0.03374       -7.69650
| 10> O          1.26606       -1.15918       -5.80536
| 11> H         -0.17385        0.91270       -4.80656
| 12> H          0.44778        2.45562       -4.27173
| 13> H          1.12367        0.97423       -3.63791
| 14> *
| 15> 
| 16> %MaxCore 64000
| 17> 
| 18> %pal nprocs 4
| 19> end  
| 20> 
| 21> %scf
| 22>   MaxIter 150
| 23> end
| 24> 
| 25> 
| 26>                          ****END OF INPUT****
================================================================================

                       ****************************
                       * Single Point Calculation *
                       ****************************

---------------------------------
CARTESIAN COORDINATES (ANGSTROEM)
---------------------------------
  C      0.704660    1.443130   -4.503630
  C      1.728540    1.424320   -5.639440
  H      2.646720    1.953790   -5.381050
  H      1.299920    1.930610   -6.503610
  S      2.252630   -0.188110   -6.271840
  F      3.562610   -0.444460   -5.631550
  O      2.344940   -0.033740   -7.696500
  O      1.266060   -1.159180   -5.805360
  H     -0.173850    0.912700   -4.806560
  H      0.447780    2.455620   -4.271730
  H      1.123670    0.974230   -3.637910

----------------------------
CARTESIAN COORDINATES (A.U.)
----------------------------
  NO LB      ZA    FRAG     MASS         X           Y           Z
   0 C     6.0000    0    12.011    1.331614    2.727120   -8.510627
   1 C     6.0000    0    12.011    3.266467    2.691575  -10.656997
   2 H     1.0000    0     1.008    5.001576    3.692128  -10.168711
   3 H     1.0000    0     1.008    2.456493    3.648324  -12.290042
   4 S    16.0000    0    32.060    4.256854   -0.355476  -11.852060
   5 F     9.0000    0    18.998    6.732357   -0.839908  -10.642087
   6 O     8.0000    0    15.999    4.431294   -0.063759  -14.544277
   7 O     8.0000    0    15.999    2.392507   -2.190533  -10.970541
   8 H     1.0000    0     1.008   -0.328529    1.724753   -9.083082
   9 H     1.0000    0     1.008    0.846182    4.640449   -8.072400
  10 H     1.0000    0     1.008    2.123429    1.841028   -6.874654

--------------------------------
INTERNAL COORDINATES (ANGSTROEM)
--------------------------------
 C      0   0   0     0.000000000000     0.00000000     0.00000000
 C      1   0   0     1.529296709798     0.00000000     0.00000000
 H      2   1   0     1.090943804877   112.43328207     0.00000000
 H      2   1   3     1.089419321198   108.66363796   241.66929353
 S      2   1   3     1.809566410221   117.67274222   123.23928946
 F      5   2   1     1.480450676990   105.03554050   259.70518295
 O      5   2   1     1.435969132189   105.63754188   140.00773506
 O      5   2   1     1.460787766994   106.56703737    16.57367235
 H      1   2   3     1.070001116775   109.47087815   180.00014641
 H      1   2   3     1.070000441355   109.47137608    60.00032598
 H      1   2   3     1.070003602097   109.47146090   300.00030428

---------------------------
INTERNAL COORDINATES (A.U.)
---------------------------
 C      0   0   0     0.000000000000     0.00000000     0.00000000
 C      1   0   0     2.889951959026     0.00000000     0.00000000
 H      2   1   0     2.061585018716   112.43328207     0.00000000
 H      2   1   3     2.058704162067   108.66363796   241.66929353
 S      2   1   3     3.419584936461   117.67274222   123.23928946
 F      5   2   1     2.797646334289   105.03554050   259.70518295
 O      5   2   1     2.713588396602   105.63754188   140.00773506
 O      5   2   1     2.760488819401   106.56703737    16.57367235
 H      1   2   3     2.022009073695   109.47087815   180.00014641
 H      1   2   3     2.022007797336   109.47137608    60.00032598
 H      1   2   3     2.022013770272   109.47146090   300.00030428

---------------------
BASIS SET INFORMATION
---------------------
There are 5 groups of distinct atoms

 Group   1 Type C   : 12s6p3d1f contracted to 6s3p3d1f pattern {621111/411/111/1}
 Group   2 Type H   : 5s2p contracted to 3s2p pattern {311/11}
 Group   3 Type S   : 15s10p4d1f contracted to 6s6p3d1f pattern {732111/511111/211/1}
 Group   4 Type F   : 12s7p3d1f contracted to 6s4p3d1f pattern {621111/4111/111/1}
 Group   5 Type O   : 12s7p3d1f contracted to 6s4p3d1f pattern {621111/4111/111/1}

Atom   0C    basis set group =>   1
Atom   1C    basis set group =>   1
Atom   2H    basis set group =>   2
Atom   3H    basis set group =>   2
Atom   4S    basis set group =>   3
Atom   5F    basis set group =>   4
Atom   6O    basis set group =>   5
Atom   7O    basis set group =>   5
Atom   8H    basis set group =>   2
Atom   9H    basis set group =>   2
Atom  10H    basis set group =>   2
---------------------------------
AUXILIARY/J BASIS SET INFORMATION
---------------------------------
There are 5 groups of distinct atoms

 Group   1 Type C   : 12s5p4d2f1g contracted to 6s4p3d1f1g pattern {711111/2111/211/2/1}
 Group   2 Type H   : 5s2p1d contracted to 3s1p1d pattern {311/2/1}
 Group   3 Type S   : 14s5p5d2f1g contracted to 8s4p3d1f1g pattern {71111111/2111/311/2/1}
 Group   4 Type F   : 12s5p4d2f1g contracted to 6s4p3d1f1g pattern {711111/2111/211/2/1}
 Group   5 Type O   : 12s5p4d2f1g contracted to 6s4p3d1f1g pattern {711111/2111/211/2/1}

Atom   0C    basis set group =>   1
Atom   1C    basis set group =>   1
Atom   2H    basis set group =>   2
Atom   3H    basis set group =>   2
Atom   4S    basis set group =>   3
Atom   5F    basis set group =>   4
Atom   6O    basis set group =>   5
Atom   7O    basis set group =>   5
Atom   8H    basis set group =>   2
Atom   9H    basis set group =>   2
Atom  10H    basis set group =>   2


           ************************************************************
           *        Program running with 4 parallel MPI-processes     *
           *              working on a common directory               *
           ************************************************************
------------------------------------------------------------------------------
                           ORCA GTO INTEGRAL CALCULATION
                           -- RI-GTO INTEGRALS CHOSEN --
------------------------------------------------------------------------------
------------------------------------------------------------------------------
                   ___                                                        
                  /   \      - P O W E R E D   B Y -                         
                 /     \                                                     
                 |  |  |   _    _      __       _____    __    __             
                 |  |  |  | |  | |    /  \     |  _  \  |  |  /  |          
                  \  \/   | |  | |   /    \    | | | |  |  | /  /          
                 / \  \   | |__| |  /  /\  \   | |_| |  |  |/  /          
                |  |  |   |  __  | /  /__\  \  |    /   |      \           
                |  |  |   | |  | | |   __   |  |    \   |  |\   \          
                \     /   | |  | | |  |  |  |  | |\  \  |  | \   \       
                 \___/    |_|  |_| |__|  |__|  |_| \__\ |__|  \__/        
                                                                              
                      - O R C A' S   B I G   F R I E N D -                    
                                      &                                       
                       - I N T E G R A L  F E E D E R -                       
                                                                              
 v1 FN, 2020, v2 2021                                                         
------------------------------------------------------------------------------


Reading SHARK input file TZVPD_B3LYP_C1_wt_dlpno_neg.SHARKINP.tmp ... ok
----------------------
SHARK INTEGRAL PACKAGE
----------------------

Number of atoms                             ...     11
Number of basis functions                   ...    285
Number of shells                            ...    109
Maximum angular momentum                    ...      3
Integral batch strategy                     ... SHARK/LIBINT Hybrid
RI-J (if used) integral strategy            ... SPLIT-RIJ (Revised 2003 algorithm where possible)
Printlevel                                  ...      1
Contraction scheme used                     ... SEGMENTED contraction
Coulomb Range Separation                    ... NOT USED
Exchange Range Separation                   ... NOT USED
Finite Nucleus Model                        ... NOT USED
Auxiliary Coulomb fitting basis             ... AVAILABLE
   # of basis functions in Aux-J            ...    351
   # of shells in Aux-J                     ...    117
   Maximum angular momentum in Aux-J        ...      4
Auxiliary J/K fitting basis                 ... NOT available
Auxiliary Correlation fitting basis         ... NOT available
Auxiliary 'external' fitting basis          ... NOT available
Integral threshold                          ...     2.500000e-11
Primitive cut-off                           ...     2.500000e-12
Primitive pair pre-selection threshold      ...     2.500000e-12

Calculating pre-screening integrals         ... done (  0.1 sec) Dimension = 109
Organizing shell pair data                  ... done (  0.1 sec)
Shell pair information
Total number of shell pairs                 ...      5995
Shell pairs after pre-screening             ...      5731
Total number of primitive shell pairs       ...     16092
Primitive shell pairs kept                  ...     12364
          la=0 lb=0:   1215 shell pairs
          la=1 lb=0:   1666 shell pairs
          la=1 lb=1:    589 shell pairs
          la=2 lb=0:    874 shell pairs
          la=2 lb=1:    603 shell pairs
          la=2 lb=2:    169 shell pairs
          la=3 lb=0:    286 shell pairs
          la=3 lb=1:    200 shell pairs
          la=3 lb=2:    108 shell pairs
          la=3 lb=3:     21 shell pairs

Calculating one electron integrals          ... done (  0.0 sec)
Calculating RI/J V-Matrix + Cholesky decomp.... done (  0.0 sec)
Calculating Nuclear repulsion               ... done (  0.0 sec) ENN=    360.948271101848 Eh

SHARK setup successfully completed in   0.3 seconds

Maximum memory used throughout the entire GTOINT-calculation: 15.3 MB


           ************************************************************
           *        Program running with 4 parallel MPI-processes     *
           *              working on a common directory               *
           ************************************************************
-------------------------------------------------------------------------------
                                 ORCA SCF
-------------------------------------------------------------------------------

------------
SCF SETTINGS
------------
Hamiltonian:
 Density Functional     Method          .... DFT(GTOs)
 Exchange Functional    Exchange        .... B88
   X-Alpha parameter    XAlpha          ....  0.666667
   Becke's b parameter  XBeta           ....  0.004200
 Correlation Functional Correlation     .... LYP
 LDA part of GGA corr.  LDAOpt          .... VWN-5
 Gradients option       PostSCFGGA      .... off
 Hybrid DFT is turned on
   Fraction HF Exchange ScalHFX         ....  0.200000
   Scaling of DF-GGA-X  ScalDFX         ....  0.720000
   Scaling of DF-GGA-C  ScalDFC         ....  0.810000
   Scaling of DF-LDA-C  ScalLDAC        ....  1.000000
   Perturbative correction              ....  0.000000
   Density functional embedding theory  .... OFF
   NL short-range parameter             ....  4.800000
 RI-approximation to the Coulomb term is turned on
   Number of AuxJ basis functions       .... 351
   RIJ-COSX (HFX calculated with COS-X)).... on


General Settings:
 Integral files         IntName         .... TZVPD_B3LYP_C1_wt_dlpno_neg
 Hartree-Fock type      HFTyp           .... RHF
 Total Charge           Charge          ....    0
 Multiplicity           Mult            ....    1
 Number of Electrons    NEL             ....   58
 Basis Dimension        Dim             ....  285
 Nuclear Repulsion      ENuc            ....    360.9482711018 Eh

Convergence Acceleration:
 DIIS                   CNVDIIS         .... on
   Start iteration      DIISMaxIt       ....    12
   Startup error        DIISStart       ....  0.200000
   # of expansion vecs  DIISMaxEq       ....     5
   Bias factor          DIISBfac        ....   1.050
   Max. coefficient     DIISMaxC        ....  10.000
 Trust-Rad. Augm. Hess. CNVTRAH         .... auto
   Auto Start mean grad. ratio tolernc. ....  1.125000
   Auto Start start iteration           ....    20
   Auto Start num. interpolation iter.  ....    10
   Max. Number of Micro iterations      ....    16
   Max. Number of Macro iterations      .... Maxiter - #DIIS iter
   Number of Davidson start vectors     ....     2
   Converg. threshold I  (grad. norm)   ....   1.000e-05
   Converg. threshold II (energy diff.) ....   1.000e-08
   Grad. Scal. Fac. for Micro threshold ....   0.100
   Minimum threshold for Micro iter.    ....   0.010
   NR start threshold (gradient norm)   ....   0.001
   Initial trust radius                 ....   0.400
   Minimum AH scaling param. (alpha)    ....   1.000
   Maximum AH scaling param. (alpha)    .... 1000.000
   Orbital update algorithm             .... Taylor
   White noise on init. David. guess    .... on
   Maximum white noise                  ....   0.010
   Quad. conv. algorithm                .... NR
 SOSCF                  CNVSOSCF        .... on
   Start iteration      SOSCFMaxIt      ....   150
   Startup grad/error   SOSCFStart      ....  0.003300
 Level Shifting         CNVShift        .... on
   Level shift para.    LevelShift      ....    0.2500
   Turn off err/grad.   ShiftErr        ....    0.0010
 Zerner damping         CNVZerner       .... off
 Static damping         CNVDamp         .... on
   Fraction old density DampFac         ....    0.7000
   Max. Damping (<1)    DampMax         ....    0.9800
   Min. Damping (>=0)   DampMin         ....    0.0000
   Turn off err/grad.   DampErr         ....    0.1000
 Fernandez-Rico         CNVRico         .... off

SCF Procedure:
 Maximum # iterations   MaxIter         ....   150
 SCF integral mode      SCFMode         .... Direct
   Integral package                     .... SHARK and LIBINT hybrid scheme
 Reset frequency        DirectResetFreq ....    20
 Integral Threshold     Thresh          ....  2.500e-11 Eh
 Primitive CutOff       TCut            ....  2.500e-12 Eh

Convergence Tolerance:
 Convergence Check Mode ConvCheckMode   .... Total+1el-Energy
 Convergence forced     ConvForced      .... 0
 Energy Change          TolE            ....  1.000e-08 Eh
 1-El. energy change                    ....  1.000e-05 Eh
 Orbital Gradient       TolG            ....  1.000e-05
 Orbital Rotation angle TolX            ....  1.000e-05
 DIIS Error             TolErr          ....  5.000e-07


Diagonalization of the overlap matrix:
Smallest eigenvalue                        ... 1.129e-05
Time for diagonalization                   ...    0.018 sec
Threshold for overlap eigenvalues          ... 1.000e-08
Number of eigenvalues below threshold      ... 0
Time for construction of square roots      ...    0.014 sec
Total time needed                          ...    0.033 sec

Time for model grid setup =    0.102 sec

------------------------------
INITIAL GUESS: MODEL POTENTIAL
------------------------------
Loading Hartree-Fock densities                     ... done
Calculating cut-offs                               ... done
Initializing the effective Hamiltonian             ... done
Setting up the integral package (SHARK)            ... done
Starting the Coulomb interaction                   ... done (   0.1 sec)
Reading the grid                                   ... done
Mapping shells                                     ... done
Starting the XC term evaluation                    ... done (   0.2 sec)
  promolecular density results
     # of electrons  =     57.998399486
     EX              =    -63.385158280
     EC              =     -2.151846060
     EX+EC           =    -65.537004340
Transforming the Hamiltonian                       ... done (   0.0 sec)
Diagonalizing the Hamiltonian                      ... done (   0.0 sec)
Back transforming the eigenvectors                 ... done (   0.0 sec)
Now organizing SCF variables                       ... done
                      ------------------
                      INITIAL GUESS DONE (   0.4 sec)
                      ------------------
-------------------
DFT GRID GENERATION
-------------------

General Integration Accuracy     IntAcc      ... 4.388
Radial Grid Type                 RadialGrid  ... OptM3 with GC (2021)
Angular Grid (max. ang.)         AngularGrid ... 4 (Lebedev-302)
Angular grid pruning method      GridPruning ... 4 (adaptive)
Weight generation scheme         WeightScheme... Becke
Basis function cutoff            BFCut       ... 1.0000e-11
Integration weight cutoff        WCut        ... 1.0000e-14
Angular grids for H and He will be reduced by one unit
Partially contracted basis set               ... off
Rotationally invariant grid construction     ... off

Total number of grid points                  ...    56616
Total number of batches                      ...      890
Average number of points per batch           ...       63
Average number of grid points per atom       ...     5147
Time for grid setup =    0.401 sec

--------------------
COSX GRID GENERATION
--------------------

GRIDX 1
-------
General Integration Accuracy     IntAcc      ... 3.816
Radial Grid Type                 RadialGrid  ... OptM3 with GC (2021)
Angular Grid (max. ang.)         AngularGrid ... 1 (Lebedev-50)
Angular grid pruning method      GridPruning ... 4 (adaptive)
Weight generation scheme         WeightScheme... Becke
Basis function cutoff            BFCut       ... 1.0000e-11
Integration weight cutoff        WCut        ... 1.0000e-14
Angular grids for H and He will be reduced by one unit
Partially contracted basis set               ... on
Rotationally invariant grid construction     ... off

Total number of grid points                  ...     7024
Total number of batches                      ...      115
Average number of points per batch           ...       61
Average number of grid points per atom       ...      639
UseSFitting                                  ... on

GRIDX 2
-------
General Integration Accuracy     IntAcc      ... 4.020
Radial Grid Type                 RadialGrid  ... OptM3 with GC (2021)
Angular Grid (max. ang.)         AngularGrid ... 2 (Lebedev-110)
Angular grid pruning method      GridPruning ... 4 (adaptive)
Weight generation scheme         WeightScheme... Becke
Basis function cutoff            BFCut       ... 1.0000e-11
Integration weight cutoff        WCut        ... 1.0000e-14
Angular grids for H and He will be reduced by one unit
Partially contracted basis set               ... on
Rotationally invariant grid construction     ... off

Total number of grid points                  ...    17412
Total number of batches                      ...      278
Average number of points per batch           ...       62
Average number of grid points per atom       ...     1583
UseSFitting                                  ... on

GRIDX 3
-------
General Integration Accuracy     IntAcc      ... 4.338
Radial Grid Type                 RadialGrid  ... OptM3 with GC (2021)
Angular Grid (max. ang.)         AngularGrid ... 3 (Lebedev-194)
Angular grid pruning method      GridPruning ... 4 (adaptive)
Weight generation scheme         WeightScheme... Becke
Basis function cutoff            BFCut       ... 1.0000e-11
Integration weight cutoff        WCut        ... 1.0000e-14
Angular grids for H and He will be reduced by one unit
Partially contracted basis set               ... on
Rotationally invariant grid construction     ... off

Total number of grid points                  ...    39339
Total number of batches                      ...      619
Average number of points per batch           ...       63
Average number of grid points per atom       ...     3576
UseSFitting                                  ... on

Time for X-Grid setup             =    0.498 sec

--------------
SCF ITERATIONS
--------------
ITER       Energy         Delta-E        Max-DP      RMS-DP      [F,P]     Damp
               ***  Starting incremental Fock matrix formation  ***
  0   -727.2662908935   0.000000000000 0.16672972  0.00179037  0.3170975 0.7000
  1   -727.4539609827  -0.187670089208 0.08767386  0.00106578  0.1074018 0.7000
                               ***Turning on DIIS***
  2   -727.5077343550  -0.053773372240 0.09708299  0.00150789  0.0379183 0.0000
  3   -727.6231786375  -0.115444282508 0.06830116  0.00067941  0.0556866 0.0000
  4   -727.6365272579  -0.013348620434 0.02282982  0.00023470  0.0190254 0.0000
                      *** Initiating the SOSCF procedure ***
                           *** Shutting down DIIS ***
                      *** Re-Reading the Fockian *** 
                      *** Removing any level shift *** 
ITER      Energy       Delta-E        Grad      Rot      Max-DP    RMS-DP
  5   -727.63856936  -0.0020420972  0.000569  0.000569  0.003804  0.000065
               *** Restarting incremental Fock matrix formation ***
  6   -727.63858616  -0.0000168082  0.000302  0.000625  0.002122  0.000047
  7   -727.63857425   0.0000119142  0.000549  0.000432  0.001405  0.000019
  8   -727.63859514  -0.0000208938  0.000073  0.000132  0.000767  0.000009
  9   -727.63859480   0.0000003422  0.000105  0.000086  0.000418  0.000005
 10   -727.63859551  -0.0000007137  0.000016  0.000033  0.000074  0.000001
 11   -727.63859549   0.0000000284  0.000029  0.000022  0.000056  0.000001
                  ***Gradient check signals convergence***
              ***Rediagonalizing the Fockian in SOSCF/NRSCF***

               *****************************************************
               *                     SUCCESS                       *
               *           SCF CONVERGED AFTER  12 CYCLES          *
               *****************************************************

Old exchange energy                            =    -12.766480923 Eh
New exchange energy                            =    -12.766428093 Eh
Exchange energy change after final integration =      0.000052830 Eh
Total energy after final integration           =   -727.638542692 Eh
Final COS-X integration done in                =     5.063 sec

----------------
TOTAL SCF ENERGY
----------------

Total Energy       :         -727.63854269 Eh          -19800.05136 eV

Components:
Nuclear Repulsion  :          360.94827110 Eh            9821.90179 eV
Electronic Energy  :        -1088.58681379 Eh          -29621.95315 eV
One Electron Energy:        -1718.16802010 Eh          -46753.72874 eV
Two Electron Energy:          629.58120631 Eh           17131.77559 eV
Max COSX asymmetry :            0.00000318 Eh               0.00009 eV

Virial components:
Potential Energy   :        -1453.45232017 Eh          -39550.44834 eV
Kinetic Energy     :          725.81377748 Eh           19750.39698 eV
Virial Ratio       :            2.00251410


DFT components:
N(Alpha)           :       28.999982599603 electrons
N(Beta)            :       28.999982599603 electrons
N(Total)           :       57.999965199207 electrons
E(X)               :      -50.778191375952 Eh       
E(C)               :       -2.526613150811 Eh       
E(XC)              :      -53.304804526762 Eh       
DFET-embed. en.    :        0.000000000000 Eh       

---------------
SCF CONVERGENCE
---------------

  Last Energy change         ...   -3.6471e-08  Tolerance :   1.0000e-08
  Last MAX-Density change    ...    3.2196e-15  Tolerance :   1.0000e-07
  Last RMS-Density change    ...    2.3534e-17  Tolerance :   5.0000e-09
  Last Orbital Gradient      ...    1.7846e-06  Tolerance :   1.0000e-05
  Last Orbital Rotation      ...    2.7146e-06  Tolerance :   1.0000e-05

             **** THE GBW FILE WAS UPDATED (TZVPD_B3LYP_C1_wt_dlpno_neg.gbw) ****
             **** DENSITY TZVPD_B3LYP_C1_wt_dlpno_neg.scfp WAS UPDATED ****
             **** ENERGY FILE WAS UPDATED (TZVPD_B3LYP_C1_wt_dlpno_neg.en.tmp) ****
             **** THE GBW FILE WAS UPDATED (TZVPD_B3LYP_C1_wt_dlpno_neg.gbw) ****
             **** DENSITY TZVPD_B3LYP_C1_wt_dlpno_neg.scfp WAS UPDATED ****
----------------
ORBITAL ENERGIES
----------------

  NO   OCC          E(Eh)            E(eV) 
   0   2.0000     -89.097775     -2424.4737 
   1   2.0000     -24.783257      -674.3867 
   2   2.0000     -19.141758      -520.8737 
   3   2.0000     -19.134476      -520.6756 
   4   2.0000     -10.230568      -278.3879 
   5   2.0000     -10.187088      -277.2047 
   6   2.0000      -8.141691      -221.5467 
   7   2.0000      -6.108556      -166.2223 
   8   2.0000      -6.102272      -166.0513 
   9   2.0000      -6.101693      -166.0355 
  10   2.0000      -1.353270       -36.8244 
  11   2.0000      -1.113104       -30.2891 
  12   2.0000      -1.020806       -27.7775 
  13   2.0000      -0.820376       -22.3236 
  14   2.0000      -0.725434       -19.7401 
  15   2.0000      -0.670566       -18.2470 
  16   2.0000      -0.576293       -15.6817 
  17   2.0000      -0.564245       -15.3539 
  18   2.0000      -0.551252       -15.0003 
  19   2.0000      -0.492960       -13.4141 
  20   2.0000      -0.480992       -13.0885 
  21   2.0000      -0.456277       -12.4159 
  22   2.0000      -0.432762       -11.7760 
  23   2.0000      -0.405131       -11.0242 
  24   2.0000      -0.400778       -10.9057 
  25   2.0000      -0.385566       -10.4918 
  26   2.0000      -0.338510        -9.2113 
  27   2.0000      -0.333676        -9.0798 
  28   2.0000      -0.319519        -8.6946 
  29   0.0000      -0.012296        -0.3346 
  30   0.0000       0.010443         0.2842 
  31   0.0000       0.021990         0.5984 
  32   0.0000       0.024501         0.6667 
  33   0.0000       0.039725         1.0810 
  34   0.0000       0.056563         1.5392 
  35   0.0000       0.059141         1.6093 
  36   0.0000       0.061961         1.6861 
  37   0.0000       0.077051         2.0967 
  38   0.0000       0.082140         2.2351 
  39   0.0000       0.082844         2.2543 
  40   0.0000       0.089892         2.4461 
  41   0.0000       0.101981         2.7750 
  42   0.0000       0.112377         3.0579 
  43   0.0000       0.118269         3.2183 
  44   0.0000       0.125822         3.4238 
  45   0.0000       0.134538         3.6610 
  46   0.0000       0.138216         3.7611 
  47   0.0000       0.145881         3.9696 
  48   0.0000       0.149622         4.0714 
  49   0.0000       0.161923         4.4061 
  50   0.0000       0.165910         4.5146 
  51   0.0000       0.166254         4.5240 
  52   0.0000       0.175637         4.7793 
  53   0.0000       0.189802         5.1648 
  54   0.0000       0.204640         5.5685 
  55   0.0000       0.209308         5.6956 
  56   0.0000       0.220646         6.0041 
  57   0.0000       0.236628         6.4390 
  58   0.0000       0.244934         6.6650 
  59   0.0000       0.252583         6.8731 
  60   0.0000       0.259222         7.0538 
  61   0.0000       0.264410         7.1950 
  62   0.0000       0.272727         7.4213 
  63   0.0000       0.277056         7.5391 
  64   0.0000       0.283546         7.7157 
  65   0.0000       0.289410         7.8753 
  66   0.0000       0.291175         7.9233 
  67   0.0000       0.305519         8.3136 
  68   0.0000       0.309587         8.4243 
  69   0.0000       0.316779         8.6200 
  70   0.0000       0.323684         8.8079 
  71   0.0000       0.327274         8.9056 
  72   0.0000       0.345841         9.4108 
  73   0.0000       0.346836         9.4379 
  74   0.0000       0.354067         9.6347 
  75   0.0000       0.365287         9.9400 
  76   0.0000       0.376519        10.2456 
  77   0.0000       0.381246        10.3742 
  78   0.0000       0.390907        10.6371 
  79   0.0000       0.398411        10.8413 
  80   0.0000       0.405398        11.0314 
  81   0.0000       0.407470        11.0878 
  82   0.0000       0.412377        11.2214 
  83   0.0000       0.414695        11.2844 
  84   0.0000       0.435187        11.8420 
  85   0.0000       0.437798        11.9131 
  86   0.0000       0.445687        12.1278 
  87   0.0000       0.473637        12.8883 
  88   0.0000       0.485242        13.2041 
  89   0.0000       0.491368        13.3708 
  90   0.0000       0.523212        14.2373 
  91   0.0000       0.528330        14.3766 
  92   0.0000       0.540166        14.6987 
  93   0.0000       0.546232        14.8637 
  94   0.0000       0.562198        15.2982 
  95   0.0000       0.575844        15.6695 
  96   0.0000       0.581511        15.8237 
  97   0.0000       0.595018        16.1913 
  98   0.0000       0.599584        16.3155 
  99   0.0000       0.611265        16.6334 
 100   0.0000       0.618311        16.8251 
 101   0.0000       0.628931        17.1141 
 102   0.0000       0.639097        17.3907 
 103   0.0000       0.641337        17.4517 
 104   0.0000       0.658259        17.9121 
 105   0.0000       0.669607        18.2209 
 106   0.0000       0.678095        18.4519 
 107   0.0000       0.685493        18.6532 
 108   0.0000       0.686740        18.6872 
 109   0.0000       0.697030        18.9671 
 110   0.0000       0.701008        19.0754 
 111   0.0000       0.714475        19.4419 
 112   0.0000       0.734219        19.9791 
 113   0.0000       0.744412        20.2565 
 114   0.0000       0.751600        20.4521 
 115   0.0000       0.770747        20.9731 
 116   0.0000       0.782492        21.2927 
 117   0.0000       0.786400        21.3990 
 118   0.0000       0.815991        22.2043 
 119   0.0000       0.829267        22.5655 
 120   0.0000       0.842114        22.9151 
 121   0.0000       0.856842        23.3159 
 122   0.0000       0.860760        23.4225 
 123   0.0000       0.918465        24.9927 
 124   0.0000       0.937472        25.5099 
 125   0.0000       0.950157        25.8551 
 126   0.0000       0.968199        26.3460 
 127   0.0000       0.976760        26.5790 
 128   0.0000       0.989210        26.9178 
 129   0.0000       0.998132        27.1606 
 130   0.0000       1.016921        27.6718 
 131   0.0000       1.021266        27.7901 
 132   0.0000       1.049054        28.5462 
 133   0.0000       1.066181        29.0123 
 134   0.0000       1.107393        30.1337 
 135   0.0000       1.117382        30.4055 
 136   0.0000       1.169020        31.8106 
 137   0.0000       1.173390        31.9296 
 138   0.0000       1.195358        32.5273 
 139   0.0000       1.218120        33.1467 
 140   0.0000       1.248700        33.9789 
 141   0.0000       1.263980        34.3946 
 142   0.0000       1.296129        35.2695 
 143   0.0000       1.312189        35.7065 
 144   0.0000       1.335601        36.3435 
 145   0.0000       1.453895        39.5625 
 146   0.0000       1.520074        41.3633 
 147   0.0000       1.555067        42.3155 
 148   0.0000       1.580731        43.0139 
 149   0.0000       1.593602        43.3641 
 150   0.0000       1.623162        44.1685 
 151   0.0000       1.639086        44.6018 
 152   0.0000       1.655007        45.0350 
 153   0.0000       1.729710        47.0678 
 154   0.0000       1.736031        47.2398 
 155   0.0000       1.757815        47.8326 
 156   0.0000       1.774102        48.2758 
 157   0.0000       1.784784        48.5664 
 158   0.0000       1.800459        48.9930 
 159   0.0000       1.824599        49.6499 
 160   0.0000       1.832246        49.8579 
 161   0.0000       1.852452        50.4078 
 162   0.0000       1.868291        50.8388 
 163   0.0000       1.890586        51.4455 
 164   0.0000       1.892968        51.5103 
 165   0.0000       1.900207        51.7072 
 166   0.0000       1.933593        52.6158 
 167   0.0000       1.953150        53.1479 
 168   0.0000       1.983280        53.9678 
 169   0.0000       1.999362        54.4054 
 170   0.0000       2.034649        55.3656 
 171   0.0000       2.105356        57.2896 
 172   0.0000       2.131921        58.0125 
 173   0.0000       2.172956        59.1291 
 174   0.0000       2.235103        60.8203 
 175   0.0000       2.258771        61.4643 
 176   0.0000       2.284298        62.1589 
 177   0.0000       2.353323        64.0372 
 178   0.0000       2.365351        64.3645 
 179   0.0000       2.406824        65.4930 
 180   0.0000       2.415297        65.7236 
 181   0.0000       2.426271        66.0222 
 182   0.0000       2.455978        66.8306 
 183   0.0000       2.478973        67.4563 
 184   0.0000       2.496207        67.9253 
 185   0.0000       2.509228        68.2796 
 186   0.0000       2.522695        68.6460 
 187   0.0000       2.548988        69.3615 
 188   0.0000       2.581490        70.2459 
 189   0.0000       2.601971        70.8032 
 190   0.0000       2.604083        70.8607 
 191   0.0000       2.644197        71.9523 
 192   0.0000       2.657641        72.3181 
 193   0.0000       2.682949        73.0067 
 194   0.0000       2.696549        73.3768 
 195   0.0000       2.746873        74.7462 
 196   0.0000       2.758042        75.0501 
 197   0.0000       2.776133        75.5424 
 198   0.0000       2.813888        76.5698 
 199   0.0000       2.835789        77.1657 
 200   0.0000       2.860674        77.8429 
 201   0.0000       2.954114        80.3855 
 202   0.0000       2.977371        81.0184 
 203   0.0000       3.029743        82.4435 
 204   0.0000       3.093633        84.1820 
 205   0.0000       3.134151        85.2846 
 206   0.0000       3.136915        85.3598 
 207   0.0000       3.158455        85.9459 
 208   0.0000       3.189201        86.7826 
 209   0.0000       3.209499        87.3349 
 210   0.0000       3.233612        87.9911 
 211   0.0000       3.236778        88.0772 
 212   0.0000       3.321590        90.3850 
 213   0.0000       3.333097        90.6982 
 214   0.0000       3.379181        91.9522 
 215   0.0000       3.411990        92.8450 
 216   0.0000       3.431476        93.3752 
 217   0.0000       3.471027        94.4515 
 218   0.0000       3.498016        95.1859 
 219   0.0000       3.520075        95.7861 
 220   0.0000       3.542897        96.4071 
 221   0.0000       3.580871        97.4404 
 222   0.0000       3.611999        98.2875 
 223   0.0000       3.622441        98.5716 
 224   0.0000       3.716831       101.1401 
 225   0.0000       3.803546       103.4997 
 226   0.0000       3.831040       104.2479 
 227   0.0000       3.928070       106.8882 
 228   0.0000       3.969236       108.0084 
 229   0.0000       4.029982       109.6614 
 230   0.0000       4.049948       110.2047 
 231   0.0000       4.112438       111.9051 
 232   0.0000       4.242760       115.4514 
 233   0.0000       4.362633       118.7133 
 234   0.0000       4.425209       120.4161 
 235   0.0000       4.516066       122.8884 
 236   0.0000       4.532971       123.3484 
 237   0.0000       4.639419       126.2450 
 238   0.0000       4.705948       128.0554 
 239   0.0000       4.919369       133.8628 
 240   0.0000       5.124931       139.4565 
 241   0.0000       5.142320       139.9296 
 242   0.0000       5.158180       140.3612 
 243   0.0000       5.166740       140.5941 
 244   0.0000       5.200204       141.5047 
 245   0.0000       5.219245       142.0229 
 246   0.0000       5.252217       142.9201 
 247   0.0000       5.346419       145.4835 
 248   0.0000       5.400972       146.9679 
 249   0.0000       5.538851       150.7198 
 250   0.0000       5.543928       150.8580 
 251   0.0000       5.595877       152.2716 
 252   0.0000       5.634044       153.3101 
 253   0.0000       5.726016       155.8128 
 254   0.0000       6.423795       174.8003 
 255   0.0000       6.446001       175.4046 
 256   0.0000       6.486503       176.5067 
 257   0.0000       6.529973       177.6896 
 258   0.0000       6.673302       181.5898 
 259   0.0000       6.677484       181.7036 
 260   0.0000       6.729864       183.1289 
 261   0.0000       6.771351       184.2578 
 262   0.0000       6.809411       185.2935 
 263   0.0000       6.832906       185.9328 
 264   0.0000       6.880628       187.2314 
 265   0.0000       6.926455       188.4784 
 266   0.0000       6.967866       189.6053 
 267   0.0000       7.008350       190.7069 
 268   0.0000       7.035855       191.4554 
 269   0.0000       7.071376       192.4219 
 270   0.0000       7.097900       193.1437 
 271   0.0000       8.424396       229.2395 
 272   0.0000       8.441440       229.7033 
 273   0.0000       8.636131       235.0011 
 274   0.0000       8.674743       236.0518 
 275   0.0000       8.904105       242.2930 
 276   0.0000       9.448839       257.1160 
 277   0.0000       9.737159       264.9616 
 278   0.0000       9.792268       266.4612 
 279   0.0000      22.285887       606.4298 
 280   0.0000      22.536331       613.2447 
 281   0.0000      22.653419       616.4309 
 282   0.0000      43.888855      1194.2764 
 283   0.0000      44.006013      1197.4645 
 284   0.0000      57.353624      1560.6715 

                    ********************************
                    * MULLIKEN POPULATION ANALYSIS *
                    ********************************

-----------------------
MULLIKEN ATOMIC CHARGES
-----------------------
   0 C :   -0.999096
   1 C :   -0.396296
   2 H :    0.336183
   3 H :    0.283357
   4 S :    1.205302
   5 F :   -0.179252
   6 O :   -0.571627
   7 O :   -0.589539
   8 H :    0.299638
   9 H :    0.313011
  10 H :    0.298320
Sum of atomic charges:    0.0000000

--------------------------------
MULLIKEN REDUCED ORBITAL CHARGES
--------------------------------
  0 C s       :     3.409867  s :     3.409867
      pz      :     1.096584  p :     3.554610
      px      :     1.150602
      py      :     1.307424
      dz2     :    -0.013108  d :     0.030963
      dxz     :     0.008772
      dyz     :     0.007995
      dx2y2   :     0.007247
      dxy     :     0.020057
      f0      :     0.000473  f :     0.003656
      f+1     :     0.000966
      f-1     :     0.000244
      f+2     :     0.000587
      f-2     :     0.000729
      f+3     :     0.000157
      f-3     :     0.000500
  1 C s       :     3.265564  s :     3.265564
      pz      :     1.096769  p :     3.112029
      px      :     1.116669
      py      :     0.898591
      dz2     :    -0.015733  d :     0.013696
      dxz     :    -0.002837
      dyz     :     0.013387
      dx2y2   :     0.004258
      dxy     :     0.014620
      f0      :     0.000694  f :     0.005008
      f+1     :     0.001018
      f-1     :     0.000440
      f+2     :     0.000765
      f-2     :     0.001018
      f+3     :     0.000493
      f-3     :     0.000579
  2 H s       :     0.620776  s :     0.620776
      pz      :     0.005087  p :     0.043042
      px      :     0.027758
      py      :     0.010197
  3 H s       :     0.670414  s :     0.670414
      pz      :     0.025419  p :     0.046230
      px      :     0.017299
      py      :     0.003512
  4 S s       :     5.396763  s :     5.396763
      pz      :     2.660519  p :     8.106658
      px      :     2.624321
      py      :     2.821818
      dz2     :     0.227842  d :     1.169659
      dxz     :     0.262582
      dyz     :     0.265030
      dx2y2   :     0.242916
      dxy     :     0.171289
      f0      :     0.012473  f :     0.121618
      f+1     :     0.031261
      f-1     :     0.019477
      f+2     :     0.015316
      f-2     :     0.014932
      f+3     :     0.012933
      f-3     :     0.015226
  5 F s       :     3.936866  s :     3.936866
      pz      :     1.800490  p :     5.214908
      px      :     1.550235
      py      :     1.864182
      dz2     :     0.004442  d :     0.026657
      dxz     :     0.006670
      dyz     :     0.002225
      dx2y2   :     0.006106
      dxy     :     0.007213
      f0      :     0.000083  f :     0.000822
      f+1     :     0.000161
      f-1     :     0.000011
      f+2     :     0.000181
      f-2     :     0.000096
      f+3     :     0.000151
      f-3     :     0.000139
  6 O s       :     3.965021  s :     3.965021
      pz      :     1.225434  p :     4.561532
      px      :     1.661760
      py      :     1.674338
      dz2     :     0.016268  d :     0.043011
      dxz     :     0.013168
      dyz     :     0.012227
      dx2y2   :     0.000529
      dxy     :     0.000820
      f0      :     0.000718  f :     0.002063
      f+1     :     0.000618
      f-1     :     0.000640
      f+2     :     0.000046
      f-2     :     0.000039
      f+3     :     0.000001
      f-3     :     0.000001
  7 O s       :     3.964198  s :     3.964198
      pz      :     1.661338  p :     4.582779
      px      :     1.423087
      py      :     1.498354
      dz2     :     0.004489  d :     0.040621
      dxz     :     0.006547
      dyz     :     0.006439
      dx2y2   :     0.011204
      dxy     :     0.011943
      f0      :     0.000180  f :     0.001941
      f+1     :     0.000212
      f-1     :     0.000204
      f+2     :     0.000148
      f-2     :     0.000372
      f+3     :     0.000402
      f-3     :     0.000425
  8 H s       :     0.626660  s :     0.626660
      pz      :     0.008320  p :     0.073702
      px      :     0.041072
      py      :     0.024309
  9 H s       :     0.623134  s :     0.623134
      pz      :     0.015301  p :     0.063856
      px      :     0.021013
      py      :     0.027541
 10 H s       :     0.627882  s :     0.627882
      pz      :     0.036170  p :     0.073797
      px      :     0.012401
      py      :     0.025226


                     *******************************
                     * LOEWDIN POPULATION ANALYSIS *
                     *******************************

----------------------
LOEWDIN ATOMIC CHARGES
----------------------
   0 C :   -0.104210
   1 C :   -0.267612
   2 H :    0.094533
   3 H :    0.098118
   4 S :    0.608732
   5 F :   -0.086874
   6 O :   -0.272125
   7 O :   -0.284918
   8 H :    0.070778
   9 H :    0.071847
  10 H :    0.071732

-------------------------------
LOEWDIN REDUCED ORBITAL CHARGES
-------------------------------
  0 C s       :     2.725923  s :     2.725923
      pz      :     0.957378  p :     2.893658
      px      :     0.960792
      py      :     0.975487
      dz2     :     0.121541  d :     0.456802
      dxz     :     0.097996
      dyz     :     0.077938
      dx2y2   :     0.085323
      dxy     :     0.074003
      f0      :     0.004147  f :     0.027828
      f+1     :     0.005647
      f-1     :     0.003492
      f+2     :     0.003753
      f-2     :     0.004914
      f+3     :     0.002134
      f-3     :     0.003741
  1 C s       :     2.729546  s :     2.729546
      pz      :     0.977870  p :     2.810171
      px      :     0.967371
      py      :     0.864929
      dz2     :     0.161236  d :     0.694860
      dxz     :     0.119455
      dyz     :     0.146452
      dx2y2   :     0.122043
      dxy     :     0.145673
      f0      :     0.005172  f :     0.033035
      f+1     :     0.005064
      f-1     :     0.004388
      f+2     :     0.004352
      f-2     :     0.005861
      f+3     :     0.003673
      f-3     :     0.004526
  2 H s       :     0.690332  s :     0.690332
      pz      :     0.055566  p :     0.215135
      px      :     0.090049
      py      :     0.069519
  3 H s       :     0.679527  s :     0.679527
      pz      :     0.090611  p :     0.222355
      px      :     0.065144
      py      :     0.066600
  4 S s       :     4.581382  s :     4.581382
      pz      :     2.780556  p :     8.291326
      px      :     2.709548
      py      :     2.801222
      dz2     :     0.473591  d :     2.140408
      dxz     :     0.455051
      dyz     :     0.430941
      dx2y2   :     0.424942
      dxy     :     0.355883
      f0      :     0.051008  f :     0.378152
      f+1     :     0.087183
      f-1     :     0.056496
      f+2     :     0.046952
      f-2     :     0.044739
      f+3     :     0.043350
      f-3     :     0.048425
  5 F s       :     3.635679  s :     3.635679
      pz      :     1.761000  p :     5.213595
      px      :     1.663825
      py      :     1.788771
      dz2     :     0.046210  d :     0.235894
      dxz     :     0.058969
      dyz     :     0.013991
      dx2y2   :     0.055551
      dxy     :     0.061173
      f0      :     0.000195  f :     0.001707
      f+1     :     0.000300
      f-1     :     0.000025
      f+2     :     0.000410
      f-2     :     0.000178
      f+3     :     0.000323
      f-3     :     0.000275
  6 O s       :     3.483442  s :     3.483442
      pz      :     1.451556  p :     4.531245
      px      :     1.531393
      py      :     1.548296
      dz2     :     0.098300  d :     0.252584
      dxz     :     0.062269
      dyz     :     0.071198
      dx2y2   :     0.008220
      dxy     :     0.012598
      f0      :     0.002463  f :     0.004854
      f+1     :     0.001018
      f-1     :     0.001154
      f+2     :     0.000114
      f-2     :     0.000100
      f+3     :     0.000003
      f-3     :     0.000002
  7 O s       :     3.491754  s :     3.491754
      pz      :     1.560907  p :     4.539248
      px      :     1.454414
      py      :     1.523927
      dz2     :     0.040389  d :     0.249351
      dxz     :     0.037826
      dyz     :     0.040246
      dx2y2   :     0.062444
      dxy     :     0.068446
      f0      :     0.000486  f :     0.004565
      f+1     :     0.000429
      f-1     :     0.000447
      f+2     :     0.000244
      f-2     :     0.001004
      f+3     :     0.000951
      f-3     :     0.001004
  8 H s       :     0.696670  s :     0.696670
      pz      :     0.061065  p :     0.232552
      px      :     0.091952
      py      :     0.079535
  9 H s       :     0.704995  s :     0.704995
      pz      :     0.058400  p :     0.223158
      px      :     0.059681
      py      :     0.105076
 10 H s       :     0.703793  s :     0.703793
      pz      :     0.089293  p :     0.224475
      px      :     0.064362
      py      :     0.070821


                      *****************************
                      * MAYER POPULATION ANALYSIS *
                      *****************************

  NA   - Mulliken gross atomic population
  ZA   - Total nuclear charge
  QA   - Mulliken gross atomic charge
  VA   - Mayer's total valence
  BVA  - Mayer's bonded valence
  FA   - Mayer's free valence

  ATOM       NA         ZA         QA         VA         BVA        FA
  0 C      6.9991     6.0000    -0.9991     3.5682     3.5682     0.0000
  1 C      6.3963     6.0000    -0.3963     3.5249     3.5249     0.0000
  2 H      0.6638     1.0000     0.3362     0.9104     0.9104     0.0000
  3 H      0.7166     1.0000     0.2834     0.9620     0.9620     0.0000
  4 S     14.7947    16.0000     1.2053     5.3098     5.3098    -0.0000
  5 F      9.1793     9.0000    -0.1793     1.1321     1.1321    -0.0000
  6 O      8.5716     8.0000    -0.5716     1.9476     1.9476     0.0000
  7 O      8.5895     8.0000    -0.5895     1.9124     1.9124    -0.0000
  8 H      0.7004     1.0000     0.2996     1.0569     1.0569     0.0000
  9 H      0.6870     1.0000     0.3130     1.0125     1.0125     0.0000
 10 H      0.7017     1.0000     0.2983     1.0389     1.0389     0.0000

  Mayer bond orders larger than 0.100000
B(  0-C ,  1-C ) :   0.6556 B(  0-C ,  8-H ) :   0.9833 B(  0-C ,  9-H ) :   0.9421 
B(  0-C , 10-H ) :   0.9518 B(  1-C ,  2-H ) :   0.8795 B(  1-C ,  3-H ) :   0.9597 
B(  1-C ,  4-S ) :   0.8904 B(  1-C ,  6-O ) :   0.1105 B(  4-S ,  5-F ) :   0.9830 
B(  4-S ,  6-O ) :   1.6889 B(  4-S ,  7-O ) :   1.6611 

-------
TIMINGS
-------

Total SCF time: 0 days 0 hours 0 min 37 sec 

Total time                  ....      37.217 sec
Sum of individual times     ....      36.941 sec  ( 99.3%)

Fock matrix formation       ....      35.336 sec  ( 94.9%)
  Split-RI-J                ....       2.215 sec  (  6.3% of F)
  Chain of spheres X        ....      26.906 sec  ( 76.1% of F)
  XC integration            ....       5.361 sec  ( 15.2% of F)
    Basis function eval.    ....       1.436 sec  ( 26.8% of XC)
    Density eval.           ....       1.430 sec  ( 26.7% of XC)
    XC-Functional eval.     ....       0.190 sec  (  3.6% of XC)
    XC-Potential eval.      ....       2.137 sec  ( 39.9% of XC)
Diagonalization             ....       0.128 sec  (  0.3%)
Density matrix formation    ....       0.011 sec  (  0.0%)
Population analysis         ....       0.017 sec  (  0.0%)
Initial guess               ....       0.277 sec  (  0.7%)
Orbital Transformation      ....       0.000 sec  (  0.0%)
Orbital Orthonormalization  ....       0.000 sec  (  0.0%)
DIIS solution               ....       0.065 sec  (  0.2%)
SOSCF solution              ....       0.105 sec  (  0.3%)
Grid generation             ....       1.002 sec  (  2.7%)

Maximum memory used throughout the entire SCF-calculation: 76.4 MB


-------------------------------------------------------------------------------
                          DFT DISPERSION CORRECTION                            
                                                                               
                              DFTD3 V3.1  Rev 1                                
                          USING Becke-Johnson damping                          
-------------------------------------------------------------------------------
The B3LYP functional is recognized
Active option DFTDOPT                   ...         4   

molecular C6(AA) [au] = 1445.727449 


            DFT-D V3
 parameters
 s6 scaling factor         :     1.0000 
 a1 scaling factor         :     0.3981 
 s8 scaling factor         :     1.9889 
 a2 scaling factor         :     4.4211 
 ad hoc parameters k1-k3   :    16.0000     1.3333    -4.0000 

 Edisp/kcal,au: -9.881284378458  -0.015746827312 
 E6   /kcal   :  -4.548641734 
 E8   /kcal   :  -5.332642645 
 % E8         :  53.967100230 

-------------------------   ----------------
Dispersion correction           -0.015746827
-------------------------   ----------------


-------------------------   --------------------
FINAL SINGLE POINT ENERGY      -727.654289519488
-------------------------   --------------------


                            ***************************************
                            *     ORCA property calculations      *
                            ***************************************

                                    ---------------------
                                    Active property flags
                                    ---------------------
   (+) Dipole Moment


------------------------------------------------------------------------------
                       ORCA ELECTRIC PROPERTIES CALCULATION
------------------------------------------------------------------------------

Dipole Moment Calculation                       ... on
Quadrupole Moment Calculation                   ... off
Polarizability Calculation                      ... off
GBWName                                         ... TZVPD_B3LYP_C1_wt_dlpno_neg.gbw
Electron density file                           ... TZVPD_B3LYP_C1_wt_dlpno_neg.scfp
The origin for moment calculation is the CENTER OF MASS  = ( 3.915139,  0.154618 -11.304609)

-------------
DIPOLE MOMENT
-------------
                                X             Y             Z
Electronic contribution:      6.29433      -6.48592      -3.70368
Nuclear contribution   :     -6.09914       7.80989       4.64238
                        -----------------------------------------
Total Dipole Moment    :      0.19519       1.32397       0.93870
                        -----------------------------------------
Magnitude (a.u.)       :      1.63467
Magnitude (Debye)      :      4.15501



--------------------
Rotational spectrum 
--------------------
 
Rotational constants in cm-1:     0.154372     0.078826     0.078033 
Rotational constants in MHz :  4627.943144  2363.154585  2339.382767 

 Dipole components along the rotational axes: 
x,y,z [a.u.] :     1.209599     0.425294    -1.013976 
x,y,z [Debye]:     3.074557     1.081012    -2.577323 

 

Timings for individual modules:

Sum of individual times         ...       41.474 sec (=   0.691 min)
GTO integral calculation        ...        2.502 sec (=   0.042 min)   6.0 %
SCF iterations                  ...       38.972 sec (=   0.650 min)  94.0 %
                             ****ORCA TERMINATED NORMALLY****
TOTAL RUN TIME: 0 days 0 hours 0 minutes 42 seconds 134 msec
