
                                        *****************
                                        * O   R   C   A *
                                        *****************

                                            #,                                       
                                            ###                                      
                                            ####                                     
                                            #####                                    
                                            ######                                   
                                           ########,                                 
                                     ,,################,,,,,                         
                               ,,#################################,,                 
                          ,,##########################################,,             
                       ,#########################################, ''#####,          
                    ,#############################################,,   '####,        
                  ,##################################################,,,,####,       
                ,###########''''           ''''###############################       
              ,#####''   ,,,,##########,,,,          '''####'''          '####       
            ,##' ,,,,###########################,,,                        '##       
           ' ,,###''''                  '''############,,,                           
         ,,##''                                '''############,,,,        ,,,,,,###''
      ,#''                                            '''#######################'''  
     '                                                          ''''####''''         
             ,#######,   #######,   ,#######,      ##                                
            ,#'     '#,  ##    ##  ,#'     '#,    #''#        ######   ,####,        
            ##       ##  ##   ,#'  ##            #'  '#       #        #'  '#        
            ##       ##  #######   ##           ,######,      #####,   #    #        
            '#,     ,#'  ##    ##  '#,     ,#' ,#      #,         ##   #,  ,#        
             '#######'   ##     ##  '#######'  #'      '#     #####' # '####'        



                  #######################################################
                  #                        -***-                        #
                  #          Department of theory and spectroscopy      #
                  #    Directorship and core code : Frank Neese         #
                  #        Max Planck Institute fuer Kohlenforschung    #
                  #                Kaiser Wilhelm Platz 1               #
                  #                 D-45470 Muelheim/Ruhr               #
                  #                      Germany                        #
                  #                                                     #
                  #                  All rights reserved                #
                  #                        -***-                        #
                  #######################################################


                         Program Version 5.0.0 -  RELEASE  -
                                (SVN: $Rev: 19529$)
                ($Date: 2021-06-28 11:36:33 +0200 (Mo, 28 Jun 2021) $)


 With contributions from (in alphabetic order):
   Daniel Aravena         : Magnetic Suceptibility
   Michael Atanasov       : Ab Initio Ligand Field Theory (pilot matlab implementation)
   Alexander A. Auer      : GIAO ZORA, VPT2 properties, NMR spectrum
   Ute Becker             : Parallelization
   Giovanni Bistoni       : ED, misc. LED, open-shell LED, HFLD
   Martin Brehm           : Molecular dynamics
   Dmytro Bykov           : SCF Hessian
   Vijay G. Chilkuri      : MRCI spin determinant printing, contributions to CSF-ICE
   Dipayan Datta          : RHF DLPNO-CCSD density
   Achintya Kumar Dutta   : EOM-CC, STEOM-CC
   Dmitry Ganyushin       : Spin-Orbit,Spin-Spin,Magnetic field MRCI
   Miquel Garcia          : C-PCM Hessian, Gaussian charge scheme
   Yang Guo               : DLPNO-NEVPT2, F12-NEVPT2, CIM, IAO-localization
   Andreas Hansen         : Spin unrestricted coupled pair/coupled cluster methods
   Benjamin Helmich-Paris : MC-RPA, TRAH-SCF, COSX integrals
   Lee Huntington         : MR-EOM, pCC
   Robert Izsak           : Overlap fitted RIJCOSX, COSX-SCS-MP3, EOM
   Marcus Kettner         : VPT2
   Christian Kollmar      : KDIIS, OOCD, Brueckner-CCSD(T), CCSD density, CASPT2, CASPT2-K
   Simone Kossmann        : Meta GGA functionals, TD-DFT gradient, OOMP2, MP2 Hessian
   Martin Krupicka        : Initial AUTO-CI
   Lucas Lang             : DCDCAS
   Marvin Lechner         : AUTO-CI (C++ implementation), FIC-MRCC
   Dagmar Lenk            : GEPOL surface, SMD
   Dimitrios Liakos       : Extrapolation schemes; Compound Job, initial MDCI parallelization
   Dimitrios Manganas     : Further ROCIS development; embedding schemes
   Dimitrios Pantazis     : SARC Basis sets
   Anastasios Papadopoulos: AUTO-CI, single reference methods and gradients
   Taras Petrenko         : DFT Hessian,TD-DFT gradient, ASA, ECA, R-Raman, ABS, FL, XAS/XES, NRVS
   Peter Pinski           : DLPNO-MP2, DLPNO-MP2 Gradient
   Christoph Reimann      : Effective Core Potentials
   Marius Retegan         : Local ZFS, SOC
   Christoph Riplinger    : Optimizer, TS searches, QM/MM, DLPNO-CCSD(T), (RO)-DLPNO pert. Triples
   Tobias Risthaus        : Range-separated hybrids, TD-DFT gradient, RPA, STAB
   Michael Roemelt        : Original ROCIS implementation
   Masaaki Saitow         : Open-shell DLPNO-CCSD energy and density
   Barbara Sandhoefer     : DKH picture change effects
   Avijit Sen             : IP-ROCIS
   Kantharuban Sivalingam : CASSCF convergence, NEVPT2, FIC-MRCI
   Bernardo de Souza      : ESD, SOC TD-DFT
   Georgi Stoychev        : AutoAux, RI-MP2 NMR
   Willem Van den Heuvel  : Paramagnetic NMR
   Boris Wezisla          : Elementary symmetry handling
   Frank Wennmohs         : Technical directorship


 We gratefully acknowledge several colleagues who have allowed us to
 interface, adapt or use parts of their codes:
   Stefan Grimme, W. Hujo, H. Kruse, P. Pracht,  : VdW corrections, initial TS optimization,
                  C. Bannwarth, S. Ehlert          DFT functionals, gCP, sTDA/sTD-DF
   Ed Valeev, F. Pavosevic, A. Kumar             : LibInt (2-el integral package), F12 methods
   Garnet Chan, S. Sharma, J. Yang, R. Olivares  : DMRG
   Ulf Ekstrom                                   : XCFun DFT Library
   Mihaly Kallay                                 : mrcc  (arbitrary order and MRCC methods)
   Jiri Pittner, Ondrej Demel                    : Mk-CCSD
   Frank Weinhold                                : gennbo (NPA and NBO analysis)
   Christopher J. Cramer and Donald G. Truhlar   : smd solvation model
   Lars Goerigk                                  : TD-DFT with DH, B97 family of functionals
   V. Asgeirsson, H. Jonsson                     : NEB implementation
   FAccTs GmbH                                   : IRC, NEB, NEB-TS, DLPNO-Multilevel, CI-OPT
                                                   MM, QMMM, 2- and 3-layer-ONIOM, Crystal-QMMM,
                                                   LR-CPCM, SF, NACMEs, symmetry and pop. for TD-DFT,
                                                   nearIR, NL-DFT gradient (VV10), updates on ESD,
                                                   ML-optimized integration grids
   S Lehtola, MJT Oliveira, MAL Marques          : LibXC Library
   Liviu Ungur et al                             : ANISO software


 Your calculation uses the libint2 library for the computation of 2-el integrals
 For citations please refer to: http://libint.valeyev.net

 Your ORCA version has been built with support for libXC version: 5.1.0
 For citations please refer to: https://tddft.org/programs/libxc/

 This ORCA versions uses:
   CBLAS   interface :  Fast vector & matrix operations
   LAPACKE interface :  Fast linear algebra routines
   SCALAPACK package :  Parallel linear algebra routines
   Shared memory     :  Shared parallel matrices
   BLAS/LAPACK       :  OpenBLAS 0.3.15  USE64BITINT DYNAMIC_ARCH NO_AFFINITY Haswell SINGLE_THREADED
        Core in use  :  Haswell
   Copyright (c) 2011-2014, The OpenBLAS Project


Your calculation utilizes the atom-pairwise dispersion correction
with the Becke-Johnson damping scheme (D3BJ)
Cite in your paper:
S.Grimme, S.Ehrlich, L.Goerigk, J Comput Chem, (2011), 32, 1456–1465 
S.Grimme, J.Antony, S.Ehrlich and H.Krieg, J.Chem.Phys., 132, (2010), 154104 
   

================================================================================

----- Orbital basis set information -----
Your calculation utilizes the basis: def2-SVPD
   F. Weigend and R. Ahlrichs, Phys. Chem. Chem. Phys. 7, 3297 (2005).
   D. Rappoport and F. Furche, J. Chem. Phys. 133 134105 (2010).

----- AuxJ basis set information -----
Your calculation utilizes the auxiliary basis: def2/J
   F. Weigend, Phys. Chem. Chem. Phys. 8, 1057 (2006).

================================================================================
                                        WARNINGS
                       Please study these warnings very carefully!
================================================================================



WARNING: Found flag for RIJCOSX approximation but no HF exchange needed!
  ===> : RIJCOSX  will be disabled and Split-RI-J is turned on

INFO   : the flag for use of the SHARK integral package has been found!

================================================================================
                                       INPUT FILE
================================================================================
NAME = SVPD_PBE_A_wt_dlpno_pos.com
|  1> !PBE D3BJ RIJCOSX def2-SVPD def2/J TightSCF
|  2> *xyz 1 1
|  3> C          4.36645       -0.13321       -1.41606
|  4> C          4.50829       -0.93187       -2.72425
|  5> C          3.05650       -0.32080       -0.70738
|  6> N          2.38983        0.71129       -0.24391
|  7> N          2.51600       -1.50772       -0.55023
|  8> H          2.96768       -2.32291       -0.95631
|  9> H          1.54987       -1.49063       -0.24988
| 10> H          2.74307        1.64947       -0.41280
| 11> H          1.44036        0.50278        0.03703
| 12> H          4.48784        0.93300       -1.61157
| 13> H          5.16967       -0.41443       -0.72982
| 14> H          5.46700       -0.73824       -3.15818
| 15> H          3.74074       -0.63528       -3.40821
| 16> H          4.41574       -1.97727       -2.51573
| 17> *
| 18> 
| 19> %MaxCore 64000
| 20> 
| 21> %pal nprocs 4
| 22> end  
| 23> 
| 24> %scf
| 25>   MaxIter 150
| 26> end
| 27> 
| 28> 
| 29>                          ****END OF INPUT****
================================================================================

                       ****************************
                       * Single Point Calculation *
                       ****************************

---------------------------------
CARTESIAN COORDINATES (ANGSTROEM)
---------------------------------
  C      4.366450   -0.133210   -1.416060
  C      4.508290   -0.931870   -2.724250
  C      3.056500   -0.320800   -0.707380
  N      2.389830    0.711290   -0.243910
  N      2.516000   -1.507720   -0.550230
  H      2.967680   -2.322910   -0.956310
  H      1.549870   -1.490630   -0.249880
  H      2.743070    1.649470   -0.412800
  H      1.440360    0.502780    0.037030
  H      4.487840    0.933000   -1.611570
  H      5.169670   -0.414430   -0.729820
  H      5.467000   -0.738240   -3.158180
  H      3.740740   -0.635280   -3.408210
  H      4.415740   -1.977270   -2.515730

----------------------------
CARTESIAN COORDINATES (A.U.)
----------------------------
  NO LB      ZA    FRAG     MASS         X           Y           Z
   0 C     6.0000    0    12.011    8.251395   -0.251730   -2.675966
   1 C     6.0000    0    12.011    8.519433   -1.760979   -5.148086
   2 C     6.0000    0    12.011    5.775948   -0.606224   -1.336754
   3 N     7.0000    0    14.007    4.516124    1.344143   -0.460923
   4 N     7.0000    0    14.007    4.754551   -2.849178   -1.039784
   5 H     1.0000    0     1.008    5.608102   -4.389664   -1.807164
   6 H     1.0000    0     1.008    2.928830   -2.816882   -0.472205
   7 H     1.0000    0     1.008    5.183651    3.117047   -0.780079
   8 H     1.0000    0     1.008    2.721886    0.950117    0.069977
   9 H     1.0000    0     1.008    8.480789    1.763114   -3.045426
  10 H     1.0000    0     1.008    9.769261   -0.783159   -1.379160
  11 H     1.0000    0     1.008   10.331133   -1.395071   -5.968095
  12 H     1.0000    0     1.008    7.068974   -1.200505   -6.440584
  13 H     1.0000    0     1.008    8.344539   -3.736499   -4.754041

--------------------------------
INTERNAL COORDINATES (ANGSTROEM)
--------------------------------
 C      0   0   0     0.000000000000     0.00000000     0.00000000
 C      1   0   0     1.539265232928     0.00000000     0.00000000
 C      1   2   0     1.501128359935   114.63267394     0.00000000
 N      3   1   2     1.313188142613   120.75855316   226.12761581
 N      3   1   2     1.313626833960   121.90040797    44.59980591
 H      5   3   1     1.016587686774   119.59992619   356.93386062
 H      5   3   1     1.011884068211   114.39974781   193.13877807
 H      4   3   1     1.016604171790   119.35879441     3.31232697
 H      4   3   1     1.011877949458   114.35559111   167.65058872
 H      1   2   3     1.090762786448   110.15675921   238.36983159
 H      1   2   3     1.093239403973   109.40897091   121.75146148
 H      2   1   3     1.070005927974   109.47100427   180.00044577
 H      2   1   3     1.069999958972   109.47126463    60.00036001
 H      2   1   3     1.070003389200   109.47128537   300.00008246

---------------------------
INTERNAL COORDINATES (A.U.)
---------------------------
 C      0   0   0     0.000000000000     0.00000000     0.00000000
 C      1   0   0     2.908789737700     0.00000000     0.00000000
 C      1   2   0     2.836721492139   114.63267394     0.00000000
 N      3   1   2     2.481565951852   120.75855316   226.12761581
 N      3   1   2     2.482394958355   121.90040797    44.59980591
 H      5   3   1     1.921072319119   119.59992619   356.93386062
 H      5   3   1     1.912183768198   114.39974781   193.13877807
 H      4   3   1     1.921103471284   119.35879441     3.31232697
 H      4   3   1     1.912172205430   114.35559111   167.65058872
 H      1   2   3     2.061242943460   110.15675921   238.36983159
 H      1   2   3     2.065923072321   109.40897091   121.75146148
 H      2   1   3     2.022018165544   109.47100427   180.00044577
 H      2   1   3     2.022006885764   109.47126463    60.00036001
 H      2   1   3     2.022013367956   109.47128537   300.00008246

---------------------
BASIS SET INFORMATION
---------------------
There are 3 groups of distinct atoms

 Group   1 Type C   : 8s4p2d contracted to 4s2p2d pattern {5111/31/11}
 Group   2 Type N   : 8s4p2d contracted to 4s2p2d pattern {5111/31/11}
 Group   3 Type H   : 4s2p contracted to 2s2p pattern {31/11}

Atom   0C    basis set group =>   1
Atom   1C    basis set group =>   1
Atom   2C    basis set group =>   1
Atom   3N    basis set group =>   2
Atom   4N    basis set group =>   2
Atom   5H    basis set group =>   3
Atom   6H    basis set group =>   3
Atom   7H    basis set group =>   3
Atom   8H    basis set group =>   3
Atom   9H    basis set group =>   3
Atom  10H    basis set group =>   3
Atom  11H    basis set group =>   3
Atom  12H    basis set group =>   3
Atom  13H    basis set group =>   3
---------------------------------
AUXILIARY/J BASIS SET INFORMATION
---------------------------------
There are 3 groups of distinct atoms

 Group   1 Type C   : 12s5p4d2f1g contracted to 6s4p3d1f1g pattern {711111/2111/211/2/1}
 Group   2 Type N   : 12s5p4d2f1g contracted to 6s4p3d1f1g pattern {711111/2111/211/2/1}
 Group   3 Type H   : 5s2p1d contracted to 3s1p1d pattern {311/2/1}

Atom   0C    basis set group =>   1
Atom   1C    basis set group =>   1
Atom   2C    basis set group =>   1
Atom   3N    basis set group =>   2
Atom   4N    basis set group =>   2
Atom   5H    basis set group =>   3
Atom   6H    basis set group =>   3
Atom   7H    basis set group =>   3
Atom   8H    basis set group =>   3
Atom   9H    basis set group =>   3
Atom  10H    basis set group =>   3
Atom  11H    basis set group =>   3
Atom  12H    basis set group =>   3
Atom  13H    basis set group =>   3


           ************************************************************
           *        Program running with 4 parallel MPI-processes     *
           *              working on a common directory               *
           ************************************************************
------------------------------------------------------------------------------
                           ORCA GTO INTEGRAL CALCULATION
                           -- RI-GTO INTEGRALS CHOSEN --
------------------------------------------------------------------------------
------------------------------------------------------------------------------
                   ___                                                        
                  /   \      - P O W E R E D   B Y -                         
                 /     \                                                     
                 |  |  |   _    _      __       _____    __    __             
                 |  |  |  | |  | |    /  \     |  _  \  |  |  /  |          
                  \  \/   | |  | |   /    \    | | | |  |  | /  /          
                 / \  \   | |__| |  /  /\  \   | |_| |  |  |/  /          
                |  |  |   |  __  | /  /__\  \  |    /   |      \           
                |  |  |   | |  | | |   __   |  |    \   |  |\   \          
                \     /   | |  | | |  |  |  |  | |\  \  |  | \   \       
                 \___/    |_|  |_| |__|  |__|  |_| \__\ |__|  \__/        
                                                                              
                      - O R C A' S   B I G   F R I E N D -                    
                                      &                                       
                       - I N T E G R A L  F E E D E R -                       
                                                                              
 v1 FN, 2020, v2 2021                                                         
------------------------------------------------------------------------------


Reading SHARK input file SVPD_PBE_A_wt_dlpno_pos.SHARKINP.tmp ... ok
----------------------
SHARK INTEGRAL PACKAGE
----------------------

Number of atoms                             ...     14
Number of basis functions                   ...    172
Number of shells                            ...     76
Maximum angular momentum                    ...      2
Integral batch strategy                     ... SHARK/LIBINT Hybrid
RI-J (if used) integral strategy            ... SPLIT-RIJ (Revised 2003 algorithm where possible)
Printlevel                                  ...      1
Contraction scheme used                     ... SEGMENTED contraction
Coulomb Range Separation                    ... NOT USED
Exchange Range Separation                   ... NOT USED
Finite Nucleus Model                        ... NOT USED
Auxiliary Coulomb fitting basis             ... AVAILABLE
   # of basis functions in Aux-J            ...    344
   # of shells in Aux-J                     ...    120
   Maximum angular momentum in Aux-J        ...      4
Auxiliary J/K fitting basis                 ... NOT available
Auxiliary Correlation fitting basis         ... NOT available
Auxiliary 'external' fitting basis          ... NOT available
Integral threshold                          ...     2.500000e-11
Primitive cut-off                           ...     2.500000e-12
Primitive pair pre-selection threshold      ...     2.500000e-12

Calculating pre-screening integrals         ... done (  0.0 sec) Dimension = 76
Organizing shell pair data                  ... done (  0.0 sec)
Shell pair information
Total number of shell pairs                 ...      2926
Shell pairs after pre-screening             ...      2901
Total number of primitive shell pairs       ...      7842
Primitive shell pairs kept                  ...      6635
          la=0 lb=0:    733 shell pairs
          la=1 lb=0:   1053 shell pairs
          la=1 lb=1:    403 shell pairs
          la=2 lb=0:    378 shell pairs
          la=2 lb=1:    279 shell pairs
          la=2 lb=2:     55 shell pairs

Calculating one electron integrals          ... done (  0.0 sec)
Calculating RI/J V-Matrix + Cholesky decomp.... done (  0.0 sec)
Calculating Nuclear repulsion               ... done (  0.0 sec) ENN=    189.987867639951 Eh

SHARK setup successfully completed in   0.2 seconds

Maximum memory used throughout the entire GTOINT-calculation: 8.9 MB


           ************************************************************
           *        Program running with 4 parallel MPI-processes     *
           *              working on a common directory               *
           ************************************************************
-------------------------------------------------------------------------------
                                 ORCA SCF
-------------------------------------------------------------------------------

------------
SCF SETTINGS
------------
Hamiltonian:
 Density Functional     Method          .... DFT(GTOs)
 Exchange Functional    Exchange        .... PBE
   PBE kappa parameter   XKappa         ....  0.804000
   PBE mue parameter    XMuePBE         ....  0.219520
 Correlation Functional Correlation     .... PBE
   PBE beta parameter  CBetaPBE         ....  0.066725
 LDA part of GGA corr.  LDAOpt          .... PW91-LDA
 Gradients option       PostSCFGGA      .... off
   Density functional embedding theory  .... OFF
   NL short-range parameter             ....  6.400000
 RI-approximation to the Coulomb term is turned on
   Number of AuxJ basis functions       .... 344


General Settings:
 Integral files         IntName         .... SVPD_PBE_A_wt_dlpno_pos
 Hartree-Fock type      HFTyp           .... RHF
 Total Charge           Charge          ....    1
 Multiplicity           Mult            ....    1
 Number of Electrons    NEL             ....   40
 Basis Dimension        Dim             ....  172
 Nuclear Repulsion      ENuc            ....    189.9878676400 Eh

Convergence Acceleration:
 DIIS                   CNVDIIS         .... on
   Start iteration      DIISMaxIt       ....    12
   Startup error        DIISStart       ....  0.200000
   # of expansion vecs  DIISMaxEq       ....     5
   Bias factor          DIISBfac        ....   1.050
   Max. coefficient     DIISMaxC        ....  10.000
 Trust-Rad. Augm. Hess. CNVTRAH         .... auto
   Auto Start mean grad. ratio tolernc. ....  1.125000
   Auto Start start iteration           ....    20
   Auto Start num. interpolation iter.  ....    10
   Max. Number of Micro iterations      ....    16
   Max. Number of Macro iterations      .... Maxiter - #DIIS iter
   Number of Davidson start vectors     ....     2
   Converg. threshold I  (grad. norm)   ....   1.000e-05
   Converg. threshold II (energy diff.) ....   1.000e-08
   Grad. Scal. Fac. for Micro threshold ....   0.100
   Minimum threshold for Micro iter.    ....   0.010
   NR start threshold (gradient norm)   ....   0.001
   Initial trust radius                 ....   0.400
   Minimum AH scaling param. (alpha)    ....   1.000
   Maximum AH scaling param. (alpha)    .... 1000.000
   Orbital update algorithm             .... Taylor
   White noise on init. David. guess    .... on
   Maximum white noise                  ....   0.010
   Quad. conv. algorithm                .... NR
 SOSCF                  CNVSOSCF        .... on
   Start iteration      SOSCFMaxIt      ....   150
   Startup grad/error   SOSCFStart      ....  0.003300
 Level Shifting         CNVShift        .... on
   Level shift para.    LevelShift      ....    0.2500
   Turn off err/grad.   ShiftErr        ....    0.0010
 Zerner damping         CNVZerner       .... off
 Static damping         CNVDamp         .... on
   Fraction old density DampFac         ....    0.7000
   Max. Damping (<1)    DampMax         ....    0.9800
   Min. Damping (>=0)   DampMin         ....    0.0000
   Turn off err/grad.   DampErr         ....    0.1000
 Fernandez-Rico         CNVRico         .... off

SCF Procedure:
 Maximum # iterations   MaxIter         ....   150
 SCF integral mode      SCFMode         .... Direct
   Integral package                     .... SHARK and LIBINT hybrid scheme
 Reset frequency        DirectResetFreq ....    20
 Integral Threshold     Thresh          ....  2.500e-11 Eh
 Primitive CutOff       TCut            ....  2.500e-12 Eh

Convergence Tolerance:
 Convergence Check Mode ConvCheckMode   .... Total+1el-Energy
 Convergence forced     ConvForced      .... 0
 Energy Change          TolE            ....  1.000e-08 Eh
 1-El. energy change                    ....  1.000e-05 Eh
 Orbital Gradient       TolG            ....  1.000e-05
 Orbital Rotation angle TolX            ....  1.000e-05
 DIIS Error             TolErr          ....  5.000e-07


Diagonalization of the overlap matrix:
Smallest eigenvalue                        ... 6.167e-05
Time for diagonalization                   ...    0.005 sec
Threshold for overlap eigenvalues          ... 1.000e-08
Number of eigenvalues below threshold      ... 0
Time for construction of square roots      ...    0.005 sec
Total time needed                          ...    0.011 sec

Time for model grid setup =    0.083 sec

------------------------------
INITIAL GUESS: MODEL POTENTIAL
------------------------------
Loading Hartree-Fock densities                     ... done
Calculating cut-offs                               ... done
Initializing the effective Hamiltonian             ... done
Setting up the integral package (SHARK)            ... done
Starting the Coulomb interaction                   ... done (   0.0 sec)
Reading the grid                                   ... done
Mapping shells                                     ... done
Starting the XC term evaluation                    ... done (   0.1 sec)
  promolecular density results
     # of electrons  =     40.996762204
     EX              =    -31.143979676
     EC              =     -1.342388894
     EX+EC           =    -32.486368570
Transforming the Hamiltonian                       ... done (   0.0 sec)
Diagonalizing the Hamiltonian                      ... done (   0.0 sec)
Back transforming the eigenvectors                 ... done (   0.0 sec)
Now organizing SCF variables                       ... done
                      ------------------
                      INITIAL GUESS DONE (   0.2 sec)
                      ------------------
-------------------
DFT GRID GENERATION
-------------------

General Integration Accuracy     IntAcc      ... 4.388
Radial Grid Type                 RadialGrid  ... OptM3 with GC (2021)
Angular Grid (max. ang.)         AngularGrid ... 4 (Lebedev-302)
Angular grid pruning method      GridPruning ... 4 (adaptive)
Weight generation scheme         WeightScheme... Becke
Basis function cutoff            BFCut       ... 1.0000e-11
Integration weight cutoff        WCut        ... 1.0000e-14
Angular grids for H and He will be reduced by one unit
Partially contracted basis set               ... off
Rotationally invariant grid construction     ... off

Total number of grid points                  ...    60976
Total number of batches                      ...      960
Average number of points per batch           ...       63
Average number of grid points per atom       ...     4355
Time for grid setup =    0.387 sec

--------------
SCF ITERATIONS
--------------
ITER       Energy         Delta-E        Max-DP      RMS-DP      [F,P]     Damp
               ***  Starting incremental Fock matrix formation  ***
  0   -228.4367262343   0.000000000000 0.08915142  0.00257712  0.1639967 0.7000
  1   -228.5067117681  -0.069985533834 0.04812188  0.00155334  0.0714306 0.7000
                               ***Turning on DIIS***
  2   -228.5300608390  -0.023349070830 0.07856304  0.00242657  0.0189484 0.0000
  3   -228.5658667338  -0.035805894841 0.03230452  0.00092663  0.0470264 0.0000
  4   -228.5762085503  -0.010341816509 0.01119608  0.00035797  0.0089398 0.0000
                      *** Initiating the SOSCF procedure ***
                           *** Shutting down DIIS ***
                      *** Re-Reading the Fockian *** 
                      *** Removing any level shift *** 
ITER      Energy       Delta-E        Grad      Rot      Max-DP    RMS-DP
  5   -228.57675086  -0.0005423098  0.000977  0.000977  0.003543  0.000128
               *** Restarting incremental Fock matrix formation ***
  6   -228.57680546  -0.0000545972  0.000304  0.001147  0.002669  0.000082
  7   -228.57680533   0.0000001250  0.000301  0.000335  0.001035  0.000026
  8   -228.57680983  -0.0000045015  0.000082  0.000252  0.000474  0.000016
  9   -228.57680976   0.0000000722  0.000119  0.000214  0.000306  0.000006
 10   -228.57680999  -0.0000002236  0.000040  0.000105  0.000175  0.000006
 11   -228.57680998   0.0000000092  0.000042  0.000066  0.000122  0.000002
 12   -228.57681000  -0.0000000292  0.000009  0.000027  0.000073  0.000002
 13   -228.57681001  -0.0000000003  0.000007  0.000010  0.000037  0.000001
 14   -228.57681001  -0.0000000037  0.000003  0.000007  0.000016  0.000001
 15   -228.57681001   0.0000000013  0.000003  0.000004  0.000010  0.000000
                 **** Energy Check signals convergence ****
              ***Rediagonalizing the Fockian in SOSCF/NRSCF***

               *****************************************************
               *                     SUCCESS                       *
               *           SCF CONVERGED AFTER  16 CYCLES          *
               *****************************************************


----------------
TOTAL SCF ENERGY
----------------

Total Energy       :         -228.57681001 Eh           -6219.89121 eV

Components:
Nuclear Repulsion  :          189.98786764 Eh            5169.83271 eV
Electronic Energy  :         -418.56467765 Eh          -11389.72392 eV
One Electron Energy:         -675.12531567 Eh          -18371.09381 eV
Two Electron Energy:          256.56063802 Eh            6981.36989 eV

Virial components:
Potential Energy   :         -454.80946831 Eh          -12375.99482 eV
Kinetic Energy     :          226.23265830 Eh            6156.10360 eV
Virial Ratio       :            2.01036169


DFT components:
N(Alpha)           :       20.000031466874 electrons
N(Beta)            :       20.000031466874 electrons
N(Total)           :       40.000062933748 electrons
E(X)               :      -31.583309357626 Eh       
E(C)               :       -1.321353538498 Eh       
E(XC)              :      -32.904662896124 Eh       
DFET-embed. en.    :        0.000000000000 Eh       

---------------
SCF CONVERGENCE
---------------

  Last Energy change         ...   -2.0414e-09  Tolerance :   1.0000e-08
  Last MAX-Density change    ...    1.3696e-05  Tolerance :   1.0000e-07
  Last RMS-Density change    ...    5.4940e-07  Tolerance :   5.0000e-09
  Last Orbital Gradient      ...    2.0522e-07  Tolerance :   1.0000e-05
  Last Orbital Rotation      ...    1.4521e-07  Tolerance :   1.0000e-05

             **** THE GBW FILE WAS UPDATED (SVPD_PBE_A_wt_dlpno_pos.gbw) ****
             **** DENSITY SVPD_PBE_A_wt_dlpno_pos.scfp WAS UPDATED ****
             **** ENERGY FILE WAS UPDATED (SVPD_PBE_A_wt_dlpno_pos.en.tmp) ****
             **** THE GBW FILE WAS UPDATED (SVPD_PBE_A_wt_dlpno_pos.gbw) ****
             **** DENSITY SVPD_PBE_A_wt_dlpno_pos.scfp WAS UPDATED ****
----------------
ORBITAL ENERGIES
----------------

  NO   OCC          E(Eh)            E(eV) 
   0   2.0000     -14.247131      -387.6841 
   1   2.0000     -14.245971      -387.6526 
   2   2.0000     -10.209105      -277.8039 
   3   2.0000     -10.098661      -274.7985 
   4   2.0000     -10.056564      -273.6530 
   5   2.0000      -1.123422       -30.5699 
   6   2.0000      -1.023663       -27.8553 
   7   2.0000      -0.895127       -24.3576 
   8   2.0000      -0.794988       -21.6327 
   9   2.0000      -0.761759       -20.7285 
  10   2.0000      -0.718012       -19.5381 
  11   2.0000      -0.701762       -19.0959 
  12   2.0000      -0.657895       -17.9022 
  13   2.0000      -0.613729       -16.7004 
  14   2.0000      -0.582630       -15.8542 
  15   2.0000      -0.557759       -15.1774 
  16   2.0000      -0.514478       -13.9997 
  17   2.0000      -0.499163       -13.5829 
  18   2.0000      -0.485323       -13.2063 
  19   2.0000      -0.457071       -12.4375 
  20   0.0000      -0.249710        -6.7950 
  21   0.0000      -0.187980        -5.1152 
  22   0.0000      -0.143383        -3.9017 
  23   0.0000      -0.141040        -3.8379 
  24   0.0000      -0.109836        -2.9888 
  25   0.0000      -0.102891        -2.7998 
  26   0.0000      -0.092016        -2.5039 
  27   0.0000      -0.084429        -2.2974 
  28   0.0000      -0.064185        -1.7466 
  29   0.0000      -0.048457        -1.3186 
  30   0.0000      -0.042191        -1.1481 
  31   0.0000      -0.034367        -0.9352 
  32   0.0000      -0.023328        -0.6348 
  33   0.0000      -0.019025        -0.5177 
  34   0.0000      -0.011440        -0.3113 
  35   0.0000      -0.005514        -0.1500 
  36   0.0000       0.010776         0.2932 
  37   0.0000       0.014775         0.4020 
  38   0.0000       0.030182         0.8213 
  39   0.0000       0.034461         0.9377 
  40   0.0000       0.050442         1.3726 
  41   0.0000       0.079197         2.1551 
  42   0.0000       0.083331         2.2676 
  43   0.0000       0.088895         2.4189 
  44   0.0000       0.107129         2.9151 
  45   0.0000       0.113276         3.0824 
  46   0.0000       0.121273         3.3000 
  47   0.0000       0.128969         3.5094 
  48   0.0000       0.134213         3.6521 
  49   0.0000       0.145242         3.9522 
  50   0.0000       0.155201         4.2232 
  51   0.0000       0.169193         4.6040 
  52   0.0000       0.174510         4.7487 
  53   0.0000       0.177683         4.8350 
  54   0.0000       0.189082         5.1452 
  55   0.0000       0.195880         5.3302 
  56   0.0000       0.199888         5.4392 
  57   0.0000       0.211403         5.7526 
  58   0.0000       0.225739         6.1427 
  59   0.0000       0.236262         6.4290 
  60   0.0000       0.243749         6.6327 
  61   0.0000       0.253628         6.9016 
  62   0.0000       0.255961         6.9650 
  63   0.0000       0.261736         7.1222 
  64   0.0000       0.277081         7.5397 
  65   0.0000       0.284015         7.7284 
  66   0.0000       0.293732         7.9928 
  67   0.0000       0.303689         8.2638 
  68   0.0000       0.305391         8.3101 
  69   0.0000       0.322874         8.7859 
  70   0.0000       0.333434         9.0732 
  71   0.0000       0.336992         9.1700 
  72   0.0000       0.341456         9.2915 
  73   0.0000       0.348548         9.4845 
  74   0.0000       0.365859         9.9555 
  75   0.0000       0.370525        10.0825 
  76   0.0000       0.386692        10.5224 
  77   0.0000       0.388829        10.5806 
  78   0.0000       0.399312        10.8658 
  79   0.0000       0.411691        11.2027 
  80   0.0000       0.420014        11.4291 
  81   0.0000       0.432113        11.7584 
  82   0.0000       0.457071        12.4375 
  83   0.0000       0.466337        12.6897 
  84   0.0000       0.489045        13.3076 
  85   0.0000       0.500858        13.6290 
  86   0.0000       0.508904        13.8480 
  87   0.0000       0.525098        14.2886 
  88   0.0000       0.561740        15.2857 
  89   0.0000       0.567593        15.4450 
  90   0.0000       0.600040        16.3279 
  91   0.0000       0.654978        17.8229 
  92   0.0000       0.674823        18.3629 
  93   0.0000       0.711569        19.3628 
  94   0.0000       0.719667        19.5831 
  95   0.0000       0.740298        20.1445 
  96   0.0000       0.786422        21.3996 
  97   0.0000       0.793361        21.5885 
  98   0.0000       0.802481        21.8366 
  99   0.0000       0.816158        22.2088 
 100   0.0000       0.823524        22.4092 
 101   0.0000       0.839888        22.8545 
 102   0.0000       0.860413        23.4130 
 103   0.0000       0.869044        23.6479 
 104   0.0000       0.898783        24.4571 
 105   0.0000       0.939954        25.5774 
 106   0.0000       0.951432        25.8898 
 107   0.0000       0.956846        26.0371 
 108   0.0000       0.969830        26.3904 
 109   0.0000       1.015025        27.6202 
 110   0.0000       1.047523        28.5046 
 111   0.0000       1.064596        28.9691 
 112   0.0000       1.102752        30.0074 
 113   0.0000       1.162490        31.6329 
 114   0.0000       1.256822        34.1999 
 115   0.0000       1.284923        34.9645 
 116   0.0000       1.327693        36.1284 
 117   0.0000       1.352740        36.8099 
 118   0.0000       1.385010        37.6880 
 119   0.0000       1.399574        38.0843 
 120   0.0000       1.404619        38.2216 
 121   0.0000       1.436940        39.1011 
 122   0.0000       1.464424        39.8490 
 123   0.0000       1.475606        40.1533 
 124   0.0000       1.491374        40.5824 
 125   0.0000       1.514773        41.2191 
 126   0.0000       1.531444        41.6727 
 127   0.0000       1.566134        42.6167 
 128   0.0000       1.599046        43.5123 
 129   0.0000       1.622215        44.1427 
 130   0.0000       1.655285        45.0426 
 131   0.0000       1.672387        45.5080 
 132   0.0000       1.688674        45.9512 
 133   0.0000       1.717581        46.7377 
 134   0.0000       1.723295        46.8932 
 135   0.0000       1.779516        48.4231 
 136   0.0000       1.786990        48.6265 
 137   0.0000       1.826804        49.7099 
 138   0.0000       1.845936        50.2305 
 139   0.0000       1.847926        50.2846 
 140   0.0000       1.874664        51.0122 
 141   0.0000       1.899642        51.6919 
 142   0.0000       1.931888        52.5693 
 143   0.0000       1.951341        53.0987 
 144   0.0000       2.000119        54.4260 
 145   0.0000       2.037203        55.4351 
 146   0.0000       2.061512        56.0966 
 147   0.0000       2.100707        57.1632 
 148   0.0000       2.118965        57.6600 
 149   0.0000       2.144833        58.3639 
 150   0.0000       2.168647        59.0119 
 151   0.0000       2.255009        61.3619 
 152   0.0000       2.305475        62.7352 
 153   0.0000       2.316263        63.0287 
 154   0.0000       2.349481        63.9326 
 155   0.0000       2.393500        65.1305 
 156   0.0000       2.418436        65.8090 
 157   0.0000       2.466537        67.1179 
 158   0.0000       2.494145        67.8691 
 159   0.0000       2.556411        69.5635 
 160   0.0000       2.575779        70.0905 
 161   0.0000       2.717068        73.9352 
 162   0.0000       2.793036        76.0024 
 163   0.0000       2.828235        76.9602 
 164   0.0000       2.893454        78.7349 
 165   0.0000       2.907641        79.1209 
 166   0.0000       2.936095        79.8952 
 167   0.0000       2.972311        80.8807 
 168   0.0000       3.069620        83.5286 
 169   0.0000       3.108227        84.5791 
 170   0.0000       3.297959        89.7420 
 171   0.0000       3.390148        92.2506 

                    ********************************
                    * MULLIKEN POPULATION ANALYSIS *
                    ********************************

-----------------------
MULLIKEN ATOMIC CHARGES
-----------------------
   0 C :   -0.301402
   1 C :    0.766519
   2 C :    0.628297
   3 N :    0.073255
   4 N :    0.125971
   5 H :   -0.008576
   6 H :   -0.116627
   7 H :    0.015086
   8 H :   -0.075727
   9 H :    0.066855
  10 H :    0.025812
  11 H :   -0.024916
  12 H :   -0.057554
  13 H :   -0.116993
Sum of atomic charges:    1.0000000

--------------------------------
MULLIKEN REDUCED ORBITAL CHARGES
--------------------------------
  0 C s       :     2.854421  s :     2.854421
      pz      :     1.014193  p :     3.038968
      px      :     1.042648
      py      :     0.982127
      dz2     :     0.127493  d :     0.408013
      dxz     :     0.145913
      dyz     :     0.065957
      dx2y2   :     0.053877
      dxy     :     0.014773
  1 C s       :     2.451522  s :     2.451522
      pz      :     0.905942  p :     2.679850
      px      :     0.863184
      py      :     0.910724
      dz2     :     0.047933  d :     0.102109
      dxz     :     0.029495
      dyz     :     0.033906
      dx2y2   :     0.001732
      dxy     :    -0.010956
  2 C s       :     3.066646  s :     3.066646
      pz      :     0.659318  p :     2.436206
      px      :     0.934927
      py      :     0.841961
      dz2     :     0.053733  d :    -0.131149
      dxz     :    -0.035104
      dyz     :    -0.010577
      dx2y2   :    -0.054244
      dxy     :    -0.084957
  3 N s       :     3.388555  s :     3.388555
      pz      :     1.459931  p :     3.537550
      px      :     1.086098
      py      :     0.991520
      dz2     :     0.007963  d :     0.000640
      dxz     :     0.010694
      dyz     :     0.011755
      dx2y2   :    -0.026190
      dxy     :    -0.003582
  4 N s       :     3.336557  s :     3.336557
      pz      :     1.467378  p :     3.549833
      px      :     1.081894
      py      :     1.000561
      dz2     :     0.007351  d :    -0.012361
      dxz     :     0.001932
      dyz     :     0.011931
      dx2y2   :    -0.032304
      dxy     :    -0.001270
  5 H s       :     0.997244  s :     0.997244
      pz      :     0.034600  p :     0.011331
      px      :    -0.030711
      py      :     0.007442
  6 H s       :     1.083332  s :     1.083332
      pz      :     0.044013  p :     0.033295
      px      :     0.011449
      py      :    -0.022168
  7 H s       :     0.967471  s :     0.967471
      pz      :     0.030156  p :     0.017443
      px      :    -0.017204
      py      :     0.004491
  8 H s       :     1.038623  s :     1.038623
      pz      :     0.043643  p :     0.037104
      px      :     0.020051
      py      :    -0.026591
  9 H s       :     0.848563  s :     0.848563
      pz      :    -0.004250  p :     0.084581
      px      :     0.009934
      py      :     0.078896
 10 H s       :     0.938896  s :     0.938896
      pz      :     0.012654  p :     0.035292
      px      :     0.033312
      py      :    -0.010674
 11 H s       :     1.002670  s :     1.002670
      pz      :    -0.004293  p :     0.022246
      px      :     0.034515
      py      :    -0.007976
 12 H s       :     1.020513  s :     1.020513
      pz      :     0.020771  p :     0.037041
      px      :     0.017574
      py      :    -0.001305
 13 H s       :     1.034981  s :     1.034981
      pz      :     0.036681  p :     0.082012
      px      :    -0.022611
      py      :     0.067942


                     *******************************
                     * LOEWDIN POPULATION ANALYSIS *
                     *******************************

----------------------
LOEWDIN ATOMIC CHARGES
----------------------
   0 C :    0.016328
   1 C :    0.170823
   2 C :   -0.061295
   3 N :    0.292594
   4 N :    0.299947
   5 H :    0.046908
   6 H :    0.043093
   7 H :    0.057399
   8 H :    0.042290
   9 H :    0.037616
  10 H :    0.058088
  11 H :    0.010394
  12 H :    0.003258
  13 H :   -0.017444

-------------------------------
LOEWDIN REDUCED ORBITAL CHARGES
-------------------------------
  0 C s       :     2.695270  s :     2.695270
      pz      :     0.905829  p :     2.699642
      px      :     0.868175
      py      :     0.925639
      dz2     :     0.133768  d :     0.588759
      dxz     :     0.173452
      dyz     :     0.094685
      dx2y2   :     0.120063
      dxy     :     0.066791
  1 C s       :     2.703995  s :     2.703995
      pz      :     0.881867  p :     2.751065
      px      :     0.951331
      py      :     0.917868
      dz2     :     0.088710  d :     0.374117
      dxz     :     0.104517
      dyz     :     0.075898
      dx2y2   :     0.083195
      dxy     :     0.021798
  2 C s       :     2.648046  s :     2.648046
      pz      :     0.694185  p :     2.442633
      px      :     0.870085
      py      :     0.878363
      dz2     :     0.126221  d :     0.970615
      dxz     :     0.125023
      dyz     :     0.219170
      dx2y2   :     0.247908
      dxy     :     0.252293
  3 N s       :     2.936891  s :     2.936891
      pz      :     1.278386  p :     3.455669
      px      :     1.104227
      py      :     1.073056
      dz2     :     0.033145  d :     0.314846
      dxz     :     0.039602
      dyz     :     0.053244
      dx2y2   :     0.114189
      dxy     :     0.074665
  4 N s       :     2.932334  s :     2.932334
      pz      :     1.272516  p :     3.455187
      px      :     1.101733
      py      :     1.080938
      dz2     :     0.027945  d :     0.312532
      dxz     :     0.023355
      dyz     :     0.066657
      dx2y2   :     0.102781
      dxy     :     0.091793
  5 H s       :     0.626031  s :     0.626031
      pz      :     0.115961  p :     0.327061
      px      :     0.094982
      py      :     0.116117
  6 H s       :     0.637621  s :     0.637621
      pz      :     0.097705  p :     0.319286
      px      :     0.145437
      py      :     0.076144
  7 H s       :     0.629724  s :     0.629724
      pz      :     0.094493  p :     0.312877
      px      :     0.084581
      py      :     0.133803
  8 H s       :     0.637686  s :     0.637686
      pz      :     0.096459  p :     0.320024
      px      :     0.142822
      py      :     0.080743
  9 H s       :     0.708567  s :     0.708567
      pz      :     0.065647  p :     0.253816
      px      :     0.064493
      py      :     0.123676
 10 H s       :     0.700464  s :     0.700464
      pz      :     0.082732  p :     0.241448
      px      :     0.089905
      py      :     0.068810
 11 H s       :     0.722532  s :     0.722532
      pz      :     0.073603  p :     0.267074
      px      :     0.122203
      py      :     0.071268
 12 H s       :     0.730494  s :     0.730494
      pz      :     0.086772  p :     0.266248
      px      :     0.105591
      py      :     0.073884
 13 H s       :     0.730243  s :     0.730243
      pz      :     0.077427  p :     0.287201
      px      :     0.082092
      py      :     0.127682


                      *****************************
                      * MAYER POPULATION ANALYSIS *
                      *****************************

  NA   - Mulliken gross atomic population
  ZA   - Total nuclear charge
  QA   - Mulliken gross atomic charge
  VA   - Mayer's total valence
  BVA  - Mayer's bonded valence
  FA   - Mayer's free valence

  ATOM       NA         ZA         QA         VA         BVA        FA
  0 C      6.3014     6.0000    -0.3014     4.8702     4.8702     0.0000
  1 C      5.2335     6.0000     0.7665     3.9604     3.9604     0.0000
  2 C      5.3717     6.0000     0.6283     3.2168     3.2168    -0.0000
  3 N      6.9267     7.0000     0.0733     3.8081     3.8081    -0.0000
  4 N      6.8740     7.0000     0.1260     3.8451     3.8451    -0.0000
  5 H      1.0086     1.0000    -0.0086     0.8720     0.8720    -0.0000
  6 H      1.1166     1.0000    -0.1166     0.9436     0.9436    -0.0000
  7 H      0.9849     1.0000     0.0151     0.8835     0.8835    -0.0000
  8 H      1.0757     1.0000    -0.0757     0.9515     0.9515     0.0000
  9 H      0.9331     1.0000     0.0669     1.2038     1.2038     0.0000
 10 H      0.9742     1.0000     0.0258     1.1068     1.1068     0.0000
 11 H      1.0249     1.0000    -0.0249     1.0220     1.0220     0.0000
 12 H      1.0576     1.0000    -0.0576     1.0590     1.0590    -0.0000
 13 H      1.1170     1.0000    -0.1170     1.1479     1.1479     0.0000

  Mayer bond orders larger than 0.100000
B(  0-C ,  1-C ) :   1.3593 B(  0-C ,  2-C ) :   1.1567 B(  0-C ,  9-H ) :   0.8645 
B(  0-C , 10-H ) :   0.8284 B(  0-C , 11-H ) :   0.1869 B(  0-C , 12-H ) :   0.2048 
B(  0-C , 13-H ) :   0.1976 B(  1-C ,  9-H ) :   0.1218 B(  1-C , 11-H ) :   0.8111 
B(  1-C , 12-H ) :   0.7615 B(  1-C , 13-H ) :   0.8155 B(  2-C ,  3-N ) :   1.0929 
B(  2-C ,  4-N ) :   1.1153 B(  2-C ,  6-H ) :  -0.1719 B(  2-C ,  8-H ) :  -0.1228 
B(  2-C ,  9-H ) :   0.1508 B(  2-C , 10-H ) :   0.1328 B(  3-N ,  4-N ) :   0.2453 
B(  3-N ,  7-H ) :   1.1084 B(  3-N ,  8-H ) :   1.2132 B(  4-N ,  5-H ) :   1.0722 
B(  4-N ,  6-H ) :   1.2771 B(  5-H ,  6-H ) :  -0.1856 B(  7-H ,  8-H ) :  -0.1502 


-------
TIMINGS
-------

Total SCF time: 0 days 0 hours 0 min 6 sec 

Total time                  ....       6.300 sec
Sum of individual times     ....       6.127 sec  ( 97.2%)

Fock matrix formation       ....       5.382 sec  ( 85.4%)
  Split-RI-J                ....       1.127 sec  ( 20.9% of F)
  XC integration            ....       4.213 sec  ( 78.3% of F)
    Basis function eval.    ....       1.481 sec  ( 35.2% of XC)
    Density eval.           ....       1.016 sec  ( 24.1% of XC)
    XC-Functional eval.     ....       0.259 sec  (  6.2% of XC)
    XC-Potential eval.      ....       1.268 sec  ( 30.1% of XC)
Diagonalization             ....       0.047 sec  (  0.7%)
Density matrix formation    ....       0.005 sec  (  0.1%)
Population analysis         ....       0.007 sec  (  0.1%)
Initial guess               ....       0.132 sec  (  2.1%)
Orbital Transformation      ....       0.000 sec  (  0.0%)
Orbital Orthonormalization  ....       0.000 sec  (  0.0%)
DIIS solution               ....       0.027 sec  (  0.4%)
SOSCF solution              ....       0.057 sec  (  0.9%)
Grid generation             ....       0.470 sec  (  7.5%)

Maximum memory used throughout the entire SCF-calculation: 19.7 MB


-------------------------------------------------------------------------------
                          DFT DISPERSION CORRECTION                            
                                                                               
                              DFTD3 V3.1  Rev 1                                
                          USING Becke-Johnson damping                          
-------------------------------------------------------------------------------
The PBE functional is recognized
Active option DFTDOPT                   ...         4   

molecular C6(AA) [au] = 1385.842270 


            DFT-D V3
 parameters
 s6 scaling factor         :     1.0000 
 a1 scaling factor         :     0.4289 
 s8 scaling factor         :     0.7875 
 a2 scaling factor         :     4.4407 
 ad hoc parameters k1-k3   :    16.0000     1.3333    -4.0000 

 Edisp/kcal,au: -6.358400091853  -0.010132754447 
 E6   /kcal   :  -4.613569001 
 E8   /kcal   :  -1.744831091 
 % E8         :  27.441354201 

-------------------------   ----------------
Dispersion correction           -0.010132754
-------------------------   ----------------


-------------------------   --------------------
FINAL SINGLE POINT ENERGY      -228.586942764126
-------------------------   --------------------


                            ***************************************
                            *     ORCA property calculations      *
                            ***************************************

                                    ---------------------
                                    Active property flags
                                    ---------------------
   (+) Dipole Moment


------------------------------------------------------------------------------
                       ORCA ELECTRIC PROPERTIES CALCULATION
------------------------------------------------------------------------------

Dipole Moment Calculation                       ... on
Quadrupole Moment Calculation                   ... off
Polarizability Calculation                      ... off
GBWName                                         ... SVPD_PBE_A_wt_dlpno_pos.gbw
Electron density file                           ... SVPD_PBE_A_wt_dlpno_pos.scfp
The origin for moment calculation is the CENTER OF MASS  = ( 6.312782, -0.835576 -2.131105)

-------------
DIPOLE MOMENT
-------------
                                X             Y             Z
Electronic contribution:     -2.67518       0.62243       3.12681
Nuclear contribution   :      1.78847      -0.48174      -2.67127
                        -----------------------------------------
Total Dipole Moment    :     -0.88671       0.14069       0.45554
                        -----------------------------------------
Magnitude (a.u.)       :      1.00676
Magnitude (Debye)      :      2.55897



--------------------
Rotational spectrum 
--------------------
 
Rotational constants in cm-1:     0.286883     0.123210     0.094446 
Rotational constants in MHz :  8600.540572  3693.747366  2831.415242 

 Dipole components along the rotational axes: 
x,y,z [a.u.] :     0.958491     0.146830    -0.270730 
x,y,z [Debye]:     2.436290     0.373213    -0.688141 

 

Timings for individual modules:

Sum of individual times         ...       10.690 sec (=   0.178 min)
GTO integral calculation        ...        2.512 sec (=   0.042 min)  23.5 %
SCF iterations                  ...        8.178 sec (=   0.136 min)  76.5 %
                             ****ORCA TERMINATED NORMALLY****
TOTAL RUN TIME: 0 days 0 hours 0 minutes 11 seconds 220 msec
