
                                        *****************
                                        * O   R   C   A *
                                        *****************

                                            #,                                       
                                            ###                                      
                                            ####                                     
                                            #####                                    
                                            ######                                   
                                           ########,                                 
                                     ,,################,,,,,                         
                               ,,#################################,,                 
                          ,,##########################################,,             
                       ,#########################################, ''#####,          
                    ,#############################################,,   '####,        
                  ,##################################################,,,,####,       
                ,###########''''           ''''###############################       
              ,#####''   ,,,,##########,,,,          '''####'''          '####       
            ,##' ,,,,###########################,,,                        '##       
           ' ,,###''''                  '''############,,,                           
         ,,##''                                '''############,,,,        ,,,,,,###''
      ,#''                                            '''#######################'''  
     '                                                          ''''####''''         
             ,#######,   #######,   ,#######,      ##                                
            ,#'     '#,  ##    ##  ,#'     '#,    #''#        ######   ,####,        
            ##       ##  ##   ,#'  ##            #'  '#       #        #'  '#        
            ##       ##  #######   ##           ,######,      #####,   #    #        
            '#,     ,#'  ##    ##  '#,     ,#' ,#      #,         ##   #,  ,#        
             '#######'   ##     ##  '#######'  #'      '#     #####' # '####'        



                  #######################################################
                  #                        -***-                        #
                  #          Department of theory and spectroscopy      #
                  #    Directorship and core code : Frank Neese         #
                  #        Max Planck Institute fuer Kohlenforschung    #
                  #                Kaiser Wilhelm Platz 1               #
                  #                 D-45470 Muelheim/Ruhr               #
                  #                      Germany                        #
                  #                                                     #
                  #                  All rights reserved                #
                  #                        -***-                        #
                  #######################################################


                         Program Version 5.0.0 -  RELEASE  -
                                (SVN: $Rev: 19529$)
                ($Date: 2021-06-28 11:36:33 +0200 (Mo, 28 Jun 2021) $)


 With contributions from (in alphabetic order):
   Daniel Aravena         : Magnetic Suceptibility
   Michael Atanasov       : Ab Initio Ligand Field Theory (pilot matlab implementation)
   Alexander A. Auer      : GIAO ZORA, VPT2 properties, NMR spectrum
   Ute Becker             : Parallelization
   Giovanni Bistoni       : ED, misc. LED, open-shell LED, HFLD
   Martin Brehm           : Molecular dynamics
   Dmytro Bykov           : SCF Hessian
   Vijay G. Chilkuri      : MRCI spin determinant printing, contributions to CSF-ICE
   Dipayan Datta          : RHF DLPNO-CCSD density
   Achintya Kumar Dutta   : EOM-CC, STEOM-CC
   Dmitry Ganyushin       : Spin-Orbit,Spin-Spin,Magnetic field MRCI
   Miquel Garcia          : C-PCM Hessian, Gaussian charge scheme
   Yang Guo               : DLPNO-NEVPT2, F12-NEVPT2, CIM, IAO-localization
   Andreas Hansen         : Spin unrestricted coupled pair/coupled cluster methods
   Benjamin Helmich-Paris : MC-RPA, TRAH-SCF, COSX integrals
   Lee Huntington         : MR-EOM, pCC
   Robert Izsak           : Overlap fitted RIJCOSX, COSX-SCS-MP3, EOM
   Marcus Kettner         : VPT2
   Christian Kollmar      : KDIIS, OOCD, Brueckner-CCSD(T), CCSD density, CASPT2, CASPT2-K
   Simone Kossmann        : Meta GGA functionals, TD-DFT gradient, OOMP2, MP2 Hessian
   Martin Krupicka        : Initial AUTO-CI
   Lucas Lang             : DCDCAS
   Marvin Lechner         : AUTO-CI (C++ implementation), FIC-MRCC
   Dagmar Lenk            : GEPOL surface, SMD
   Dimitrios Liakos       : Extrapolation schemes; Compound Job, initial MDCI parallelization
   Dimitrios Manganas     : Further ROCIS development; embedding schemes
   Dimitrios Pantazis     : SARC Basis sets
   Anastasios Papadopoulos: AUTO-CI, single reference methods and gradients
   Taras Petrenko         : DFT Hessian,TD-DFT gradient, ASA, ECA, R-Raman, ABS, FL, XAS/XES, NRVS
   Peter Pinski           : DLPNO-MP2, DLPNO-MP2 Gradient
   Christoph Reimann      : Effective Core Potentials
   Marius Retegan         : Local ZFS, SOC
   Christoph Riplinger    : Optimizer, TS searches, QM/MM, DLPNO-CCSD(T), (RO)-DLPNO pert. Triples
   Tobias Risthaus        : Range-separated hybrids, TD-DFT gradient, RPA, STAB
   Michael Roemelt        : Original ROCIS implementation
   Masaaki Saitow         : Open-shell DLPNO-CCSD energy and density
   Barbara Sandhoefer     : DKH picture change effects
   Avijit Sen             : IP-ROCIS
   Kantharuban Sivalingam : CASSCF convergence, NEVPT2, FIC-MRCI
   Bernardo de Souza      : ESD, SOC TD-DFT
   Georgi Stoychev        : AutoAux, RI-MP2 NMR
   Willem Van den Heuvel  : Paramagnetic NMR
   Boris Wezisla          : Elementary symmetry handling
   Frank Wennmohs         : Technical directorship


 We gratefully acknowledge several colleagues who have allowed us to
 interface, adapt or use parts of their codes:
   Stefan Grimme, W. Hujo, H. Kruse, P. Pracht,  : VdW corrections, initial TS optimization,
                  C. Bannwarth, S. Ehlert          DFT functionals, gCP, sTDA/sTD-DF
   Ed Valeev, F. Pavosevic, A. Kumar             : LibInt (2-el integral package), F12 methods
   Garnet Chan, S. Sharma, J. Yang, R. Olivares  : DMRG
   Ulf Ekstrom                                   : XCFun DFT Library
   Mihaly Kallay                                 : mrcc  (arbitrary order and MRCC methods)
   Jiri Pittner, Ondrej Demel                    : Mk-CCSD
   Frank Weinhold                                : gennbo (NPA and NBO analysis)
   Christopher J. Cramer and Donald G. Truhlar   : smd solvation model
   Lars Goerigk                                  : TD-DFT with DH, B97 family of functionals
   V. Asgeirsson, H. Jonsson                     : NEB implementation
   FAccTs GmbH                                   : IRC, NEB, NEB-TS, DLPNO-Multilevel, CI-OPT
                                                   MM, QMMM, 2- and 3-layer-ONIOM, Crystal-QMMM,
                                                   LR-CPCM, SF, NACMEs, symmetry and pop. for TD-DFT,
                                                   nearIR, NL-DFT gradient (VV10), updates on ESD,
                                                   ML-optimized integration grids
   S Lehtola, MJT Oliveira, MAL Marques          : LibXC Library
   Liviu Ungur et al                             : ANISO software


 Your calculation uses the libint2 library for the computation of 2-el integrals
 For citations please refer to: http://libint.valeyev.net

 Your ORCA version has been built with support for libXC version: 5.1.0
 For citations please refer to: https://tddft.org/programs/libxc/

 This ORCA versions uses:
   CBLAS   interface :  Fast vector & matrix operations
   LAPACKE interface :  Fast linear algebra routines
   SCALAPACK package :  Parallel linear algebra routines
   Shared memory     :  Shared parallel matrices
   BLAS/LAPACK       :  OpenBLAS 0.3.15  USE64BITINT DYNAMIC_ARCH NO_AFFINITY Haswell SINGLE_THREADED
        Core in use  :  Haswell
   Copyright (c) 2011-2014, The OpenBLAS Project


Your calculation utilizes the atom-pairwise dispersion correction
with the Becke-Johnson damping scheme (D3BJ)
Cite in your paper:
S.Grimme, S.Ehrlich, L.Goerigk, J Comput Chem, (2011), 32, 1456–1465 
S.Grimme, J.Antony, S.Ehrlich and H.Krieg, J.Chem.Phys., 132, (2010), 154104 
   

================================================================================

----- Orbital basis set information -----
Your calculation utilizes the basis: def2-SVPD
   F. Weigend and R. Ahlrichs, Phys. Chem. Chem. Phys. 7, 3297 (2005).
   D. Rappoport and F. Furche, J. Chem. Phys. 133 134105 (2010).

----- AuxJ basis set information -----
Your calculation utilizes the auxiliary basis: def2/J
   F. Weigend, Phys. Chem. Chem. Phys. 8, 1057 (2006).

================================================================================
                                        WARNINGS
                       Please study these warnings very carefully!
================================================================================



WARNING: Found flag for RIJCOSX approximation but no HF exchange needed!
  ===> : RIJCOSX  will be disabled and Split-RI-J is turned on

INFO   : the flag for use of the SHARK integral package has been found!

================================================================================
                                       INPUT FILE
================================================================================
NAME = 18Feb_SVPD_BLYP_A_wt_wb97_typm1_pos.com
|  1> !BLYP D3BJ RIJCOSX def2-SVPD def2/J TightSCF  
|  2> *xyz 1 1 
|  3> C         -0.70169        4.07250       -4.00392
|  4> N          0.68053        4.61482       -4.04800
|  5> H          0.69993        5.58489       -4.38827
|  6> H          1.27804        4.05598       -4.66824
|  7> H          1.08573        4.53358       -3.10652
|  8> H         -1.14500        4.14653       -4.97495
|  9> H         -1.28296        4.63405       -3.30271
| 10> H         -0.67274        3.04629       -3.70235
| 11> *
| 12> %MaxCore 64000
| 13> 
| 14> %pal nprocs 8
| 15> end  
| 16> 
| 17> %scf
| 18>   MaxIter 150
| 19> end
| 20> 
| 21> 
| 22>                          ****END OF INPUT****
================================================================================

                       ****************************
                       * Single Point Calculation *
                       ****************************

---------------------------------
CARTESIAN COORDINATES (ANGSTROEM)
---------------------------------
  C     -0.701690    4.072500   -4.003920
  N      0.680530    4.614820   -4.048000
  H      0.699930    5.584890   -4.388270
  H      1.278040    4.055980   -4.668240
  H      1.085730    4.533580   -3.106520
  H     -1.145000    4.146530   -4.974950
  H     -1.282960    4.634050   -3.302710
  H     -0.672740    3.046290   -3.702350

----------------------------
CARTESIAN COORDINATES (A.U.)
----------------------------
  NO LB      ZA    FRAG     MASS         X           Y           Z
   0 C     6.0000    0    12.011   -1.326002    7.695910   -7.566312
   1 N     7.0000    0    14.007    1.286015    8.720746   -7.649611
   2 H     1.0000    0     1.008    1.322676   10.553913   -8.292629
   3 H     1.0000    0     1.008    2.415146    7.664691   -8.821695
   4 H     1.0000    0     1.008    2.051732    8.567225   -5.870472
   5 H     1.0000    0     1.008   -2.163736    7.835806   -9.401293
   6 H     1.0000    0     1.008   -2.424443    8.757085   -6.241217
   7 H     1.0000    0     1.008   -1.271294    5.756654   -6.996428

--------------------------------
INTERNAL COORDINATES (ANGSTROEM)
--------------------------------
 C      0   0   0     0.000000000000     0.00000000     0.00000000
 N      1   0   0     1.485458231389     0.00000000     0.00000000
 H      2   1   0     1.028200290702   111.82805805     0.00000000
 H      2   1   3     1.026653789405   111.14618581   239.70294721
 H      2   1   3     1.028188488556   108.10044480   123.39480985
 H      1   2   3     1.070001615840   109.47071442    56.60524088
 H      1   2   3     1.070004055833   109.47111037   296.60521274
 H      1   2   3     1.069995108166   109.47126385   176.60531510

---------------------------
INTERNAL COORDINATES (A.U.)
---------------------------
 C      0   0   0     0.000000000000     0.00000000     0.00000000
 N      1   0   0     2.807109240703     0.00000000     0.00000000
 H      2   1   0     1.943016960245   111.82805805     0.00000000
 H      2   1   3     1.940094496328   111.14618581   239.70294721
 H      2   1   3     1.942994657422   108.10044480   123.39480985
 H      1   2   3     2.022010016791   109.47071442    56.60524088
 H      1   2   3     2.022014627710   109.47111037   296.60521274
 H      1   2   3     2.021997719070   109.47126385   176.60531510

---------------------
BASIS SET INFORMATION
---------------------
There are 3 groups of distinct atoms

 Group   1 Type C   : 8s4p2d contracted to 4s2p2d pattern {5111/31/11}
 Group   2 Type N   : 8s4p2d contracted to 4s2p2d pattern {5111/31/11}
 Group   3 Type H   : 4s2p contracted to 2s2p pattern {31/11}

Atom   0C    basis set group =>   1
Atom   1N    basis set group =>   2
Atom   2H    basis set group =>   3
Atom   3H    basis set group =>   3
Atom   4H    basis set group =>   3
Atom   5H    basis set group =>   3
Atom   6H    basis set group =>   3
Atom   7H    basis set group =>   3
---------------------------------
AUXILIARY/J BASIS SET INFORMATION
---------------------------------
There are 3 groups of distinct atoms

 Group   1 Type C   : 12s5p4d2f1g contracted to 6s4p3d1f1g pattern {711111/2111/211/2/1}
 Group   2 Type N   : 12s5p4d2f1g contracted to 6s4p3d1f1g pattern {711111/2111/211/2/1}
 Group   3 Type H   : 5s2p1d contracted to 3s1p1d pattern {311/2/1}

Atom   0C    basis set group =>   1
Atom   1N    basis set group =>   2
Atom   2H    basis set group =>   3
Atom   3H    basis set group =>   3
Atom   4H    basis set group =>   3
Atom   5H    basis set group =>   3
Atom   6H    basis set group =>   3
Atom   7H    basis set group =>   3


           ************************************************************
           *        Program running with 8 parallel MPI-processes     *
           *              working on a common directory               *
           ************************************************************
------------------------------------------------------------------------------
                           ORCA GTO INTEGRAL CALCULATION
                           -- RI-GTO INTEGRALS CHOSEN --
------------------------------------------------------------------------------
------------------------------------------------------------------------------
                   ___                                                        
                  /   \      - P O W E R E D   B Y -                         
                 /     \                                                     
                 |  |  |   _    _      __       _____    __    __             
                 |  |  |  | |  | |    /  \     |  _  \  |  |  /  |          
                  \  \/   | |  | |   /    \    | | | |  |  | /  /          
                 / \  \   | |__| |  /  /\  \   | |_| |  |  |/  /          
                |  |  |   |  __  | /  /__\  \  |    /   |      \           
                |  |  |   | |  | | |   __   |  |    \   |  |\   \          
                \     /   | |  | | |  |  |  |  | |\  \  |  | \   \       
                 \___/    |_|  |_| |__|  |__|  |_| \__\ |__|  \__/        
                                                                              
                      - O R C A' S   B I G   F R I E N D -                    
                                      &                                       
                       - I N T E G R A L  F E E D E R -                       
                                                                              
 v1 FN, 2020, v2 2021                                                         
------------------------------------------------------------------------------


Reading SHARK input file 18Feb_SVPD_BLYP_A_wt_wb97_typm1_pos.SHARKINP.tmp ... ok
----------------------
SHARK INTEGRAL PACKAGE
----------------------

Number of atoms                             ...      8
Number of basis functions                   ...     88
Number of shells                            ...     40
Maximum angular momentum                    ...      2
Integral batch strategy                     ... SHARK/LIBINT Hybrid
RI-J (if used) integral strategy            ... SPLIT-RIJ (Revised 2003 algorithm where possible)
Printlevel                                  ...      1
Contraction scheme used                     ... SEGMENTED contraction
Coulomb Range Separation                    ... NOT USED
Exchange Range Separation                   ... NOT USED
Finite Nucleus Model                        ... NOT USED
Auxiliary Coulomb fitting basis             ... AVAILABLE
   # of basis functions in Aux-J            ...    164
   # of shells in Aux-J                     ...     60
   Maximum angular momentum in Aux-J        ...      4
Auxiliary J/K fitting basis                 ... NOT available
Auxiliary Correlation fitting basis         ... NOT available
Auxiliary 'external' fitting basis          ... NOT available
Integral threshold                          ...     2.500000e-11
Primitive cut-off                           ...     2.500000e-12
Primitive pair pre-selection threshold      ...     2.500000e-12

Calculating pre-screening integrals         ... done (  0.0 sec) Dimension = 40
Organizing shell pair data                  ... done (  0.0 sec)
Shell pair information
Total number of shell pairs                 ...       820
Shell pairs after pre-screening             ...       820
Total number of primitive shell pairs       ...      2124
Primitive shell pairs kept                  ...      1986
          la=0 lb=0:    210 shell pairs
          la=1 lb=0:    320 shell pairs
          la=1 lb=1:    136 shell pairs
          la=2 lb=0:     80 shell pairs
          la=2 lb=1:     64 shell pairs
          la=2 lb=2:     10 shell pairs

Calculating one electron integrals          ... done (  0.0 sec)
Calculating RI/J V-Matrix + Cholesky decomp.... done (  0.0 sec)
Calculating Nuclear repulsion               ... done (  0.0 sec) ENN=     48.264598259520 Eh

SHARK setup successfully completed in   0.1 seconds

Maximum memory used throughout the entire GTOINT-calculation: 8.7 MB


           ************************************************************
           *        Program running with 8 parallel MPI-processes     *
           *              working on a common directory               *
           ************************************************************
-------------------------------------------------------------------------------
                                 ORCA SCF
-------------------------------------------------------------------------------

------------
SCF SETTINGS
------------
Hamiltonian:
 Density Functional     Method          .... DFT(GTOs)
 Exchange Functional    Exchange        .... B88
   X-Alpha parameter    XAlpha          ....  0.666667
   Becke's b parameter  XBeta           ....  0.004200
 Correlation Functional Correlation     .... LYP
 Gradients option       PostSCFGGA      .... off
   Density functional embedding theory  .... OFF
   NL short-range parameter             ....  4.000000
 RI-approximation to the Coulomb term is turned on
   Number of AuxJ basis functions       .... 164


General Settings:
 Integral files         IntName         .... 18Feb_SVPD_BLYP_A_wt_wb97_typm1_pos
 Hartree-Fock type      HFTyp           .... RHF
 Total Charge           Charge          ....    1
 Multiplicity           Mult            ....    1
 Number of Electrons    NEL             ....   18
 Basis Dimension        Dim             ....   88
 Nuclear Repulsion      ENuc            ....     48.2645982595 Eh

Convergence Acceleration:
 DIIS                   CNVDIIS         .... on
   Start iteration      DIISMaxIt       ....    12
   Startup error        DIISStart       ....  0.200000
   # of expansion vecs  DIISMaxEq       ....     5
   Bias factor          DIISBfac        ....   1.050
   Max. coefficient     DIISMaxC        ....  10.000
 Trust-Rad. Augm. Hess. CNVTRAH         .... auto
   Auto Start mean grad. ratio tolernc. ....  1.125000
   Auto Start start iteration           ....    20
   Auto Start num. interpolation iter.  ....    10
   Max. Number of Micro iterations      ....    16
   Max. Number of Macro iterations      .... Maxiter - #DIIS iter
   Number of Davidson start vectors     ....     2
   Converg. threshold I  (grad. norm)   ....   1.000e-05
   Converg. threshold II (energy diff.) ....   1.000e-08
   Grad. Scal. Fac. for Micro threshold ....   0.100
   Minimum threshold for Micro iter.    ....   0.010
   NR start threshold (gradient norm)   ....   0.001
   Initial trust radius                 ....   0.400
   Minimum AH scaling param. (alpha)    ....   1.000
   Maximum AH scaling param. (alpha)    .... 1000.000
   Orbital update algorithm             .... Taylor
   White noise on init. David. guess    .... on
   Maximum white noise                  ....   0.010
   Quad. conv. algorithm                .... NR
 SOSCF                  CNVSOSCF        .... on
   Start iteration      SOSCFMaxIt      ....   150
   Startup grad/error   SOSCFStart      ....  0.003300
 Level Shifting         CNVShift        .... on
   Level shift para.    LevelShift      ....    0.2500
   Turn off err/grad.   ShiftErr        ....    0.0010
 Zerner damping         CNVZerner       .... off
 Static damping         CNVDamp         .... on
   Fraction old density DampFac         ....    0.7000
   Max. Damping (<1)    DampMax         ....    0.9800
   Min. Damping (>=0)   DampMin         ....    0.0000
   Turn off err/grad.   DampErr         ....    0.1000
 Fernandez-Rico         CNVRico         .... off

SCF Procedure:
 Maximum # iterations   MaxIter         ....   150
 SCF integral mode      SCFMode         .... Direct
   Integral package                     .... SHARK and LIBINT hybrid scheme
 Reset frequency        DirectResetFreq ....    20
 Integral Threshold     Thresh          ....  2.500e-11 Eh
 Primitive CutOff       TCut            ....  2.500e-12 Eh

Convergence Tolerance:
 Convergence Check Mode ConvCheckMode   .... Total+1el-Energy
 Convergence forced     ConvForced      .... 0
 Energy Change          TolE            ....  1.000e-08 Eh
 1-El. energy change                    ....  1.000e-05 Eh
 Orbital Gradient       TolG            ....  1.000e-05
 Orbital Rotation angle TolX            ....  1.000e-05
 DIIS Error             TolErr          ....  5.000e-07


Diagonalization of the overlap matrix:
Smallest eigenvalue                        ... 1.725e-04
Time for diagonalization                   ...    0.004 sec
Threshold for overlap eigenvalues          ... 1.000e-08
Number of eigenvalues below threshold      ... 0
Time for construction of square roots      ...    0.004 sec
Total time needed                          ...    0.008 sec

Time for model grid setup =    0.025 sec

------------------------------
INITIAL GUESS: MODEL POTENTIAL
------------------------------
Loading Hartree-Fock densities                     ... done
Calculating cut-offs                               ... done
Initializing the effective Hamiltonian             ... done
Setting up the integral package (SHARK)            ... done
Starting the Coulomb interaction                   ... done (   0.0 sec)
Reading the grid                                   ... done
Mapping shells                                     ... done
Starting the XC term evaluation                    ... done (   0.0 sec)
  promolecular density results
     # of electrons  =     18.997089171
     EX              =    -13.539736687
     EC              =     -0.597576115
     EX+EC           =    -14.137312803
Transforming the Hamiltonian                       ... done (   0.0 sec)
Diagonalizing the Hamiltonian                      ... done (   0.0 sec)
Back transforming the eigenvectors                 ... done (   0.0 sec)
Now organizing SCF variables                       ... done
                      ------------------
                      INITIAL GUESS DONE (   0.0 sec)
                      ------------------
-------------------
DFT GRID GENERATION
-------------------

General Integration Accuracy     IntAcc      ... 4.388
Radial Grid Type                 RadialGrid  ... OptM3 with GC (2021)
Angular Grid (max. ang.)         AngularGrid ... 4 (Lebedev-302)
Angular grid pruning method      GridPruning ... 4 (adaptive)
Weight generation scheme         WeightScheme... Becke
Basis function cutoff            BFCut       ... 1.0000e-11
Integration weight cutoff        WCut        ... 1.0000e-14
Angular grids for H and He will be reduced by one unit
Partially contracted basis set               ... off
Rotationally invariant grid construction     ... off

Total number of grid points                  ...    32896
Total number of batches                      ...      517
Average number of points per batch           ...       63
Average number of grid points per atom       ...     4112
Time for grid setup =    0.149 sec

--------------
SCF ITERATIONS
--------------
ITER       Energy         Delta-E        Max-DP      RMS-DP      [F,P]     Damp
               ***  Starting incremental Fock matrix formation  ***
  0    -96.0476824026   0.000000000000 0.07454394  0.00261197  0.1217497 0.7000
  1    -96.0686863065  -0.021003903834 0.04112436  0.00165467  0.0546105 0.7000
                               ***Turning on DIIS***
  2    -96.0766579501  -0.007971643572 0.08699724  0.00281024  0.0193783 0.0000
  3    -96.0887759890  -0.012118038992 0.02667801  0.00090968  0.0335721 0.0000
  4    -96.0918175541  -0.003041565084 0.00748730  0.00032290  0.0065741 0.0000
                      *** Initiating the SOSCF procedure ***
                           *** Shutting down DIIS ***
                      *** Re-Reading the Fockian *** 
                      *** Removing any level shift *** 
ITER      Energy       Delta-E        Grad      Rot      Max-DP    RMS-DP
  5    -96.09197638  -0.0001588281  0.000661  0.000661  0.001832  0.000093
               *** Restarting incremental Fock matrix formation ***
  6    -96.09199088  -0.0000144985  0.000466  0.000822  0.001559  0.000068
  7    -96.09198975   0.0000011311  0.000648  0.000459  0.000962  0.000031
  8    -96.09199274  -0.0000029924  0.000052  0.000099  0.000193  0.000008
  9    -96.09199273   0.0000000089  0.000065  0.000047  0.000104  0.000004
 10    -96.09199278  -0.0000000480  0.000008  0.000016  0.000032  0.000002
 11    -96.09199278  -0.0000000006  0.000006  0.000008  0.000011  0.000001
                 **** Energy Check signals convergence ****
              ***Rediagonalizing the Fockian in SOSCF/NRSCF***

               *****************************************************
               *                     SUCCESS                       *
               *           SCF CONVERGED AFTER  12 CYCLES          *
               *****************************************************


----------------
TOTAL SCF ENERGY
----------------

Total Energy       :          -96.09199278 Eh           -2614.79606 eV

Components:
Nuclear Repulsion  :           48.26459826 Eh            1313.34649 eV
Electronic Energy  :         -144.35659104 Eh           -3928.14255 eV
One Electron Energy:         -218.68669854 Eh           -5950.76760 eV
Two Electron Energy:           74.33010750 Eh            2022.62505 eV

Virial components:
Potential Energy   :         -191.22922948 Eh           -5203.61188 eV
Kinetic Energy     :           95.13723670 Eh            2588.81582 eV
Virial Ratio       :            2.01003557


DFT components:
N(Alpha)           :        8.999996952670 electrons
N(Beta)            :        8.999996952670 electrons
N(Total)           :       17.999993905341 electrons
E(X)               :      -13.680442885541 Eh       
E(C)               :       -0.575437073695 Eh       
E(XC)              :      -14.255879959236 Eh       
DFET-embed. en.    :        0.000000000000 Eh       

---------------
SCF CONVERGENCE
---------------

  Last Energy change         ...   -8.4852e-10  Tolerance :   1.0000e-08
  Last MAX-Density change    ...    1.1943e-05  Tolerance :   1.0000e-07
  Last RMS-Density change    ...    2.0384e-07  Tolerance :   5.0000e-09
  Last Orbital Gradient      ...    2.2138e-07  Tolerance :   1.0000e-05
  Last Orbital Rotation      ...    2.5084e-07  Tolerance :   1.0000e-05

             **** THE GBW FILE WAS UPDATED (18Feb_SVPD_BLYP_A_wt_wb97_typm1_pos.gbw) ****
             **** DENSITY 18Feb_SVPD_BLYP_A_wt_wb97_typm1_pos.scfp WAS UPDATED ****
             **** ENERGY FILE WAS UPDATED (18Feb_SVPD_BLYP_A_wt_wb97_typm1_pos.en.tmp) ****
             **** THE GBW FILE WAS UPDATED (18Feb_SVPD_BLYP_A_wt_wb97_typm1_pos.gbw) ****
             **** DENSITY 18Feb_SVPD_BLYP_A_wt_wb97_typm1_pos.scfp WAS UPDATED ****
----------------
ORBITAL ENERGIES
----------------

  NO   OCC          E(Eh)            E(eV) 
   0   2.0000     -14.372920      -391.1070 
   1   2.0000     -10.182098      -277.0690 
   2   2.0000      -1.133584       -30.8464 
   3   2.0000      -0.864029       -23.5114 
   4   2.0000      -0.761401       -20.7188 
   5   2.0000      -0.751448       -20.4479 
   6   2.0000      -0.665609       -18.1121 
   7   2.0000      -0.580462       -15.7952 
   8   2.0000      -0.578919       -15.7532 
   9   0.0000      -0.232102        -6.3158 
  10   0.0000      -0.166933        -4.5425 
  11   0.0000      -0.164847        -4.4857 
  12   0.0000      -0.154702        -4.2096 
  13   0.0000      -0.111258        -3.0275 
  14   0.0000      -0.110576        -3.0089 
  15   0.0000      -0.098512        -2.6807 
  16   0.0000      -0.071645        -1.9496 
  17   0.0000      -0.047609        -1.2955 
  18   0.0000      -0.046295        -1.2597 
  19   0.0000      -0.040815        -1.1106 
  20   0.0000      -0.038891        -1.0583 
  21   0.0000       0.036270         0.9870 
  22   0.0000       0.038639         1.0514 
  23   0.0000       0.054147         1.4734 
  24   0.0000       0.085955         2.3390 
  25   0.0000       0.111822         3.0428 
  26   0.0000       0.117946         3.2095 
  27   0.0000       0.121995         3.3197 
  28   0.0000       0.151112         4.1120 
  29   0.0000       0.159997         4.3538 
  30   0.0000       0.161124         4.3844 
  31   0.0000       0.184520         5.0211 
  32   0.0000       0.195476         5.3192 
  33   0.0000       0.199197         5.4204 
  34   0.0000       0.201544         5.4843 
  35   0.0000       0.221525         6.0280 
  36   0.0000       0.265043         7.2122 
  37   0.0000       0.267223         7.2715 
  38   0.0000       0.270981         7.3738 
  39   0.0000       0.272883         7.4255 
  40   0.0000       0.285766         7.7761 
  41   0.0000       0.336624         9.1600 
  42   0.0000       0.340470         9.2647 
  43   0.0000       0.360968         9.8224 
  44   0.0000       0.385968        10.5027 
  45   0.0000       0.390920        10.6375 
  46   0.0000       0.554343        15.0844 
  47   0.0000       0.628298        17.0968 
  48   0.0000       0.635427        17.2908 
  49   0.0000       0.652738        17.7619 
  50   0.0000       0.701122        19.0785 
  51   0.0000       0.746092        20.3022 
  52   0.0000       0.751274        20.4432 
  53   0.0000       0.822968        22.3941 
  54   0.0000       0.925353        25.1801 
  55   0.0000       0.934157        25.4197 
  56   0.0000       1.036548        28.2059 
  57   0.0000       1.148172        31.2433 
  58   0.0000       1.171264        31.8717 
  59   0.0000       1.243877        33.8476 
  60   0.0000       1.281315        34.8663 
  61   0.0000       1.290139        35.1065 
  62   0.0000       1.363823        37.1115 
  63   0.0000       1.403293        38.1855 
  64   0.0000       1.563274        42.5389 
  65   0.0000       1.567801        42.6620 
  66   0.0000       1.574199        42.8361 
  67   0.0000       1.583879        43.0995 
  68   0.0000       1.616822        43.9960 
  69   0.0000       1.745099        47.4865 
  70   0.0000       1.758177        47.8424 
  71   0.0000       1.777205        48.3602 
  72   0.0000       1.799619        48.9701 
  73   0.0000       1.877747        51.0961 
  74   0.0000       1.969101        53.5820 
  75   0.0000       1.978925        53.8493 
  76   0.0000       2.066744        56.2390 
  77   0.0000       2.244431        61.0741 
  78   0.0000       2.289158        62.2912 
  79   0.0000       2.309411        62.8423 
  80   0.0000       2.513694        68.4011 
  81   0.0000       2.538519        69.0766 
  82   0.0000       2.549521        69.3760 
  83   0.0000       2.801186        76.2241 
  84   0.0000       2.812108        76.5214 
  85   0.0000       2.873998        78.2055 
  86   0.0000       3.110157        84.6317 
  87   0.0000       3.144354        85.5622 

                    ********************************
                    * MULLIKEN POPULATION ANALYSIS *
                    ********************************

-----------------------
MULLIKEN ATOMIC CHARGES
-----------------------
   0 C :    1.331688
   1 N :   -0.669396
   2 H :    0.310743
   3 H :    0.309113
   4 H :    0.327993
   5 H :   -0.213857
   6 H :   -0.199742
   7 H :   -0.196542
Sum of atomic charges:    1.0000000

--------------------------------
MULLIKEN REDUCED ORBITAL CHARGES
--------------------------------
  0 C s       :     2.339091  s :     2.339091
      pz      :     0.819783  p :     2.303289
      px      :     0.688914
      py      :     0.794591
      dz2     :    -0.018208  d :     0.025933
      dxz     :     0.040061
      dyz     :    -0.024463
      dx2y2   :     0.020611
      dxy     :     0.007932
  1 N s       :     3.981090  s :     3.981090
      pz      :     1.138713  p :     3.516837
      px      :     1.228140
      py      :     1.149984
      dz2     :    -0.005262  d :     0.171468
      dxz     :     0.080943
      dyz     :    -0.003806
      dx2y2   :     0.049392
      dxy     :     0.050201
  2 H s       :     0.685717  s :     0.685717
      pz      :    -0.001308  p :     0.003540
      px      :    -0.011123
      py      :     0.015971
  3 H s       :     0.680541  s :     0.680541
      pz      :     0.005504  p :     0.010346
      px      :     0.018868
      py      :    -0.014025
  4 H s       :     0.665430  s :     0.665430
      pz      :     0.002072  p :     0.006577
      px      :     0.009685
      py      :    -0.005180
  5 H s       :     1.204523  s :     1.204523
      pz      :     0.052397  p :     0.009334
      px      :    -0.002793
      py      :    -0.040270
  6 H s       :     1.191739  s :     1.191739
      pz      :    -0.002695  p :     0.008003
      px      :     0.000292
      py      :     0.010406
  7 H s       :     1.188209  s :     1.188209
      pz      :    -0.044066  p :     0.008333
      px      :     0.015540
      py      :     0.036859


                     *******************************
                     * LOEWDIN POPULATION ANALYSIS *
                     *******************************

----------------------
LOEWDIN ATOMIC CHARGES
----------------------
   0 C :    0.289230
   1 N :    0.327581
   2 H :    0.108463
   3 H :    0.104089
   4 H :    0.105486
   5 H :    0.020908
   6 H :    0.021962
   7 H :    0.022281

-------------------------------
LOEWDIN REDUCED ORBITAL CHARGES
-------------------------------
  0 C s       :     2.691557  s :     2.691557
      pz      :     0.969366  p :     2.656051
      px      :     0.752041
      py      :     0.934643
      dz2     :     0.049620  d :     0.363162
      dxz     :     0.101050
      dyz     :     0.027080
      dx2y2   :     0.102771
      dxy     :     0.082642
  1 N s       :     2.902607  s :     2.902607
      pz      :     1.121356  p :     3.382050
      px      :     1.136441
      py      :     1.124253
      dz2     :     0.039302  d :     0.387762
      dxz     :     0.123447
      dyz     :     0.026327
      dx2y2   :     0.106270
      dxy     :     0.092416
  2 H s       :     0.614255  s :     0.614255
      pz      :     0.072881  p :     0.277283
      px      :     0.064126
      py      :     0.140276
  3 H s       :     0.614992  s :     0.614992
      pz      :     0.096414  p :     0.280919
      px      :     0.094515
      py      :     0.089990
  4 H s       :     0.612957  s :     0.612957
      pz      :     0.135387  p :     0.281557
      px      :     0.081016
      py      :     0.065153
  5 H s       :     0.732243  s :     0.732243
      pz      :     0.124033  p :     0.246849
      px      :     0.054902
      py      :     0.067914
  6 H s       :     0.731207  s :     0.731207
      pz      :     0.098637  p :     0.246832
      px      :     0.062097
      py      :     0.086097
  7 H s       :     0.730676  s :     0.730676
      pz      :     0.076420  p :     0.247043
      px      :     0.046552
      py      :     0.124071


                      *****************************
                      * MAYER POPULATION ANALYSIS *
                      *****************************

  NA   - Mulliken gross atomic population
  ZA   - Total nuclear charge
  QA   - Mulliken gross atomic charge
  VA   - Mayer's total valence
  BVA  - Mayer's bonded valence
  FA   - Mayer's free valence

  ATOM       NA         ZA         QA         VA         BVA        FA
  0 C      4.6683     6.0000     1.3317     3.3600     3.3600    -0.0000
  1 N      7.6694     7.0000    -0.6694     3.6114     3.6114    -0.0000
  2 H      0.6893     1.0000     0.3107     0.7680     0.7680    -0.0000
  3 H      0.6909     1.0000     0.3091     0.7843     0.7843     0.0000
  4 H      0.6720     1.0000     0.3280     0.7664     0.7664     0.0000
  5 H      1.2139     1.0000    -0.2139     0.9272     0.9272     0.0000
  6 H      1.1997     1.0000    -0.1997     0.9304     0.9304    -0.0000
  7 H      1.1965     1.0000    -0.1965     0.9296     0.9296    -0.0000

  Mayer bond orders larger than 0.100000
B(  0-C ,  1-N ) :   0.8544 B(  0-C ,  5-H ) :   0.8192 B(  0-C ,  6-H ) :   0.8098 
B(  0-C ,  7-H ) :   0.8075 B(  1-N ,  2-H ) :   0.8060 B(  1-N ,  3-H ) :   0.8153 
B(  1-N ,  4-H ) :   0.7885 B(  1-N ,  5-H ) :   0.1109 B(  1-N ,  6-H ) :   0.1180 
B(  1-N ,  7-H ) :   0.1183 

-------
TIMINGS
-------

Total SCF time: 0 days 0 hours 0 min 1 sec 

Total time                  ....       1.054 sec
Sum of individual times     ....       0.934 sec  ( 88.6%)

Fock matrix formation       ....       0.688 sec  ( 65.2%)
  Split-RI-J                ....       0.113 sec  ( 16.4% of F)
  XC integration            ....       0.557 sec  ( 81.0% of F)
    Basis function eval.    ....       0.178 sec  ( 31.9% of XC)
    Density eval.           ....       0.094 sec  ( 16.8% of XC)
    XC-Functional eval.     ....       0.041 sec  (  7.3% of XC)
    XC-Potential eval.      ....       0.131 sec  ( 23.5% of XC)
Diagonalization             ....       0.018 sec  (  1.7%)
Density matrix formation    ....       0.002 sec  (  0.2%)
Population analysis         ....       0.003 sec  (  0.3%)
Initial guess               ....       0.021 sec  (  2.0%)
Orbital Transformation      ....       0.000 sec  (  0.0%)
Orbital Orthonormalization  ....       0.000 sec  (  0.0%)
DIIS solution               ....       0.016 sec  (  1.5%)
SOSCF solution              ....       0.014 sec  (  1.3%)
Grid generation             ....       0.173 sec  ( 16.5%)

Maximum memory used throughout the entire SCF-calculation: 10.1 MB


-------------------------------------------------------------------------------
                          DFT DISPERSION CORRECTION                            
                                                                               
                              DFTD3 V3.1  Rev 1                                
                          USING Becke-Johnson damping                          
-------------------------------------------------------------------------------
The BLYP functional is recognized
Active option DFTDOPT                   ...         4   

molecular C6(AA) [au] = 350.572626 


            DFT-D V3
 parameters
 s6 scaling factor         :     1.0000 
 a1 scaling factor         :     0.4298 
 s8 scaling factor         :     2.6996 
 a2 scaling factor         :     4.2359 
 ad hoc parameters k1-k3   :    16.0000     1.3333    -4.0000 

 Edisp/kcal,au: -4.272446078753  -0.006808575487 
 E6   /kcal   :  -1.897152363 
 E8   /kcal   :  -2.375293716 
 % E8         :  55.595639408 

-------------------------   ----------------
Dispersion correction           -0.006808575
-------------------------   ----------------


-------------------------   --------------------
FINAL SINGLE POINT ENERGY       -96.098801357930
-------------------------   --------------------


                            ***************************************
                            *     ORCA property calculations      *
                            ***************************************

                                    ---------------------
                                    Active property flags
                                    ---------------------
   (+) Dipole Moment


------------------------------------------------------------------------------
                       ORCA ELECTRIC PROPERTIES CALCULATION
------------------------------------------------------------------------------

Dipole Moment Calculation                       ... on
Quadrupole Moment Calculation                   ... off
Polarizability Calculation                      ... off
GBWName                                         ... 18Feb_SVPD_BLYP_A_wt_wb97_typm1_pos.gbw
Electron density file                           ... 18Feb_SVPD_BLYP_A_wt_wb97_typm1_pos.scfp
The origin for moment calculation is the CENTER OF MASS  = ( 0.062874,  8.236622 -7.609799)

-------------
DIPOLE MOMENT
-------------
                                X             Y             Z
Electronic contribution:      1.01018       0.42298      -0.03835
Nuclear contribution   :     -0.21844      -0.13976       0.01729
                        -----------------------------------------
Total Dipole Moment    :      0.79174       0.28321      -0.02106
                        -----------------------------------------
Magnitude (a.u.)       :      0.84113
Magnitude (Debye)      :      2.13800



--------------------
Rotational spectrum 
--------------------
 
Rotational constants in cm-1:     2.865765     0.688517     0.685249 
Rotational constants in MHz : 85913.460223 20641.211162 20543.252263 

 Dipole components along the rotational axes: 
x,y,z [a.u.] :    -0.840792    -0.021164    -0.011340 
x,y,z [Debye]:    -2.137124    -0.053796    -0.028824 

 

Timings for individual modules:

Sum of individual times         ...        2.454 sec (=   0.041 min)
GTO integral calculation        ...        0.778 sec (=   0.013 min)  31.7 %
SCF iterations                  ...        1.676 sec (=   0.028 min)  68.3 %
                             ****ORCA TERMINATED NORMALLY****
TOTAL RUN TIME: 0 days 0 hours 0 minutes 2 seconds 967 msec
