
                                        *****************
                                        * O   R   C   A *
                                        *****************

                                            #,                                       
                                            ###                                      
                                            ####                                     
                                            #####                                    
                                            ######                                   
                                           ########,                                 
                                     ,,################,,,,,                         
                               ,,#################################,,                 
                          ,,##########################################,,             
                       ,#########################################, ''#####,          
                    ,#############################################,,   '####,        
                  ,##################################################,,,,####,       
                ,###########''''           ''''###############################       
              ,#####''   ,,,,##########,,,,          '''####'''          '####       
            ,##' ,,,,###########################,,,                        '##       
           ' ,,###''''                  '''############,,,                           
         ,,##''                                '''############,,,,        ,,,,,,###''
      ,#''                                            '''#######################'''  
     '                                                          ''''####''''         
             ,#######,   #######,   ,#######,      ##                                
            ,#'     '#,  ##    ##  ,#'     '#,    #''#        ######   ,####,        
            ##       ##  ##   ,#'  ##            #'  '#       #        #'  '#        
            ##       ##  #######   ##           ,######,      #####,   #    #        
            '#,     ,#'  ##    ##  '#,     ,#' ,#      #,         ##   #,  ,#        
             '#######'   ##     ##  '#######'  #'      '#     #####' # '####'        



                  #######################################################
                  #                        -***-                        #
                  #          Department of theory and spectroscopy      #
                  #    Directorship and core code : Frank Neese         #
                  #        Max Planck Institute fuer Kohlenforschung    #
                  #                Kaiser Wilhelm Platz 1               #
                  #                 D-45470 Muelheim/Ruhr               #
                  #                      Germany                        #
                  #                                                     #
                  #                  All rights reserved                #
                  #                        -***-                        #
                  #######################################################


                         Program Version 5.0.0 -  RELEASE  -
                                (SVN: $Rev: 19529$)
                ($Date: 2021-06-28 11:36:33 +0200 (Mo, 28 Jun 2021) $)


 With contributions from (in alphabetic order):
   Daniel Aravena         : Magnetic Suceptibility
   Michael Atanasov       : Ab Initio Ligand Field Theory (pilot matlab implementation)
   Alexander A. Auer      : GIAO ZORA, VPT2 properties, NMR spectrum
   Ute Becker             : Parallelization
   Giovanni Bistoni       : ED, misc. LED, open-shell LED, HFLD
   Martin Brehm           : Molecular dynamics
   Dmytro Bykov           : SCF Hessian
   Vijay G. Chilkuri      : MRCI spin determinant printing, contributions to CSF-ICE
   Dipayan Datta          : RHF DLPNO-CCSD density
   Achintya Kumar Dutta   : EOM-CC, STEOM-CC
   Dmitry Ganyushin       : Spin-Orbit,Spin-Spin,Magnetic field MRCI
   Miquel Garcia          : C-PCM Hessian, Gaussian charge scheme
   Yang Guo               : DLPNO-NEVPT2, F12-NEVPT2, CIM, IAO-localization
   Andreas Hansen         : Spin unrestricted coupled pair/coupled cluster methods
   Benjamin Helmich-Paris : MC-RPA, TRAH-SCF, COSX integrals
   Lee Huntington         : MR-EOM, pCC
   Robert Izsak           : Overlap fitted RIJCOSX, COSX-SCS-MP3, EOM
   Marcus Kettner         : VPT2
   Christian Kollmar      : KDIIS, OOCD, Brueckner-CCSD(T), CCSD density, CASPT2, CASPT2-K
   Simone Kossmann        : Meta GGA functionals, TD-DFT gradient, OOMP2, MP2 Hessian
   Martin Krupicka        : Initial AUTO-CI
   Lucas Lang             : DCDCAS
   Marvin Lechner         : AUTO-CI (C++ implementation), FIC-MRCC
   Dagmar Lenk            : GEPOL surface, SMD
   Dimitrios Liakos       : Extrapolation schemes; Compound Job, initial MDCI parallelization
   Dimitrios Manganas     : Further ROCIS development; embedding schemes
   Dimitrios Pantazis     : SARC Basis sets
   Anastasios Papadopoulos: AUTO-CI, single reference methods and gradients
   Taras Petrenko         : DFT Hessian,TD-DFT gradient, ASA, ECA, R-Raman, ABS, FL, XAS/XES, NRVS
   Peter Pinski           : DLPNO-MP2, DLPNO-MP2 Gradient
   Christoph Reimann      : Effective Core Potentials
   Marius Retegan         : Local ZFS, SOC
   Christoph Riplinger    : Optimizer, TS searches, QM/MM, DLPNO-CCSD(T), (RO)-DLPNO pert. Triples
   Tobias Risthaus        : Range-separated hybrids, TD-DFT gradient, RPA, STAB
   Michael Roemelt        : Original ROCIS implementation
   Masaaki Saitow         : Open-shell DLPNO-CCSD energy and density
   Barbara Sandhoefer     : DKH picture change effects
   Avijit Sen             : IP-ROCIS
   Kantharuban Sivalingam : CASSCF convergence, NEVPT2, FIC-MRCI
   Bernardo de Souza      : ESD, SOC TD-DFT
   Georgi Stoychev        : AutoAux, RI-MP2 NMR
   Willem Van den Heuvel  : Paramagnetic NMR
   Boris Wezisla          : Elementary symmetry handling
   Frank Wennmohs         : Technical directorship


 We gratefully acknowledge several colleagues who have allowed us to
 interface, adapt or use parts of their codes:
   Stefan Grimme, W. Hujo, H. Kruse, P. Pracht,  : VdW corrections, initial TS optimization,
                  C. Bannwarth, S. Ehlert          DFT functionals, gCP, sTDA/sTD-DF
   Ed Valeev, F. Pavosevic, A. Kumar             : LibInt (2-el integral package), F12 methods
   Garnet Chan, S. Sharma, J. Yang, R. Olivares  : DMRG
   Ulf Ekstrom                                   : XCFun DFT Library
   Mihaly Kallay                                 : mrcc  (arbitrary order and MRCC methods)
   Jiri Pittner, Ondrej Demel                    : Mk-CCSD
   Frank Weinhold                                : gennbo (NPA and NBO analysis)
   Christopher J. Cramer and Donald G. Truhlar   : smd solvation model
   Lars Goerigk                                  : TD-DFT with DH, B97 family of functionals
   V. Asgeirsson, H. Jonsson                     : NEB implementation
   FAccTs GmbH                                   : IRC, NEB, NEB-TS, DLPNO-Multilevel, CI-OPT
                                                   MM, QMMM, 2- and 3-layer-ONIOM, Crystal-QMMM,
                                                   LR-CPCM, SF, NACMEs, symmetry and pop. for TD-DFT,
                                                   nearIR, NL-DFT gradient (VV10), updates on ESD,
                                                   ML-optimized integration grids
   S Lehtola, MJT Oliveira, MAL Marques          : LibXC Library
   Liviu Ungur et al                             : ANISO software


 Your calculation uses the libint2 library for the computation of 2-el integrals
 For citations please refer to: http://libint.valeyev.net

 Your ORCA version has been built with support for libXC version: 5.1.0
 For citations please refer to: https://tddft.org/programs/libxc/

 This ORCA versions uses:
   CBLAS   interface :  Fast vector & matrix operations
   LAPACKE interface :  Fast linear algebra routines
   SCALAPACK package :  Parallel linear algebra routines
   Shared memory     :  Shared parallel matrices
   BLAS/LAPACK       :  OpenBLAS 0.3.15  USE64BITINT DYNAMIC_ARCH NO_AFFINITY Haswell SINGLE_THREADED
        Core in use  :  Haswell
   Copyright (c) 2011-2014, The OpenBLAS Project


XCFun DFT library Copyright 2009-2010 Ulf Ekstrom and contributors.
See http://admol.org/xcfun for more information.
This is free software; see the source code for copying conditions.
There is ABSOLUTELY NO WARRANTY; not even for MERCHANTABILITY or FITNESS FOR A PARTICULAR PURPOSE.
For details see the documentation.
Scientific users of this library should cite U. Ekstrom, L. Visscher, R. Bast, A. J. Thorvaldsen and K. Ruud;
J.Chem.Theor.Comp. 2010, DOI: 10.1021/ct100117s
XCFun Version 0.99 

================================================================================

----- Orbital basis set information -----
Your calculation utilizes the basis: def2-TZVPD
   F. Weigend and R. Ahlrichs, Phys. Chem. Chem. Phys. 7, 3297 (2005).
   D. Rappoport and F. Furche, J. Chem. Phys. 133 134105 (2010).

----- AuxJ basis set information -----
Your calculation utilizes the auxiliary basis: def2/J
   F. Weigend, Phys. Chem. Chem. Phys. 8, 1057 (2006).

================================================================================
                                        WARNINGS
                       Please study these warnings very carefully!
================================================================================


INFO   : the flag for use of the SHARK integral package has been found!

================================================================================
                                       INPUT FILE
================================================================================
NAME = TZVPD_CAMB3LYP_C2_wt_dlpno_pos.com
|  1> !CAM-B3LYP RIJCOSX def2-TZVPD def2/J TightSCF
|  2> *xyz 0 1
|  3> C          1.64703       -2.34528       -5.02041
|  4> C          2.20996       -2.81239       -3.66571
|  5> C          2.48901       -1.66851       -2.73754
|  6> N          3.59631       -0.94761       -2.95225
|  7> C          1.66394       -1.41369       -1.77781
|  8> H          0.81164       -1.96318       -1.70275
|  9> H          1.84550       -0.63508       -1.15875
| 10> H          4.20535       -1.17600       -3.73383
| 11> H          3.81723       -0.12585       -2.40604
| 12> H          3.14311       -3.36280       -3.81152
| 13> H          1.48768       -3.45893       -3.16521
| 14> H          1.46566       -3.19589       -5.64368
| 15> H          2.35406       -1.69850       -5.49654
| 16> H          0.73014       -1.81680       -4.86253
| 17> *
| 18> 
| 19> %MaxCore 64000
| 20> %pal nprocs 4
| 21> end  
| 22> 
| 23> %scf
| 24>   MaxIter 150
| 25> end
| 26> 
| 27> 
| 28>                          ****END OF INPUT****
================================================================================

                       ****************************
                       * Single Point Calculation *
                       ****************************

---------------------------------
CARTESIAN COORDINATES (ANGSTROEM)
---------------------------------
  C      1.647030   -2.345280   -5.020410
  C      2.209960   -2.812390   -3.665710
  C      2.489010   -1.668510   -2.737540
  N      3.596310   -0.947610   -2.952250
  C      1.663940   -1.413690   -1.777810
  H      0.811640   -1.963180   -1.702750
  H      1.845500   -0.635080   -1.158750
  H      4.205350   -1.176000   -3.733830
  H      3.817230   -0.125850   -2.406040
  H      3.143110   -3.362800   -3.811520
  H      1.487680   -3.458930   -3.165210
  H      1.465660   -3.195890   -5.643680
  H      2.354060   -1.698500   -5.496540
  H      0.730140   -1.816800   -4.862530

----------------------------
CARTESIAN COORDINATES (A.U.)
----------------------------
  NO LB      ZA    FRAG     MASS         X           Y           Z
   0 C     6.0000    0    12.011    3.112436   -4.431937   -9.487200
   1 C     6.0000    0    12.011    4.176219   -5.314647   -6.927188
   2 C     6.0000    0    12.011    4.703547   -3.153027   -5.173201
   3 N     7.0000    0    14.007    6.796041   -1.790723   -5.578944
   4 C     6.0000    0    12.011    3.144391   -2.671487   -3.359574
   5 H     1.0000    0     1.008    1.533777   -3.709873   -3.217731
   6 H     1.0000    0     1.008    3.487490   -1.200127   -2.189720
   7 H     1.0000    0     1.008    7.946960   -2.222318   -7.055916
   8 H     1.0000    0     1.008    7.213519   -0.237822   -4.546757
   9 H     1.0000    0     1.008    5.939617   -6.354771   -7.202729
  10 H     1.0000    0     1.008    2.811308   -6.536430   -5.981380
  11 H     1.0000    0     1.008    2.769696   -6.039357  -10.665010
  12 H     1.0000    0     1.008    4.448529   -3.209700  -10.386955
  13 H     1.0000    0     1.008    1.379765   -3.433254   -9.188850

--------------------------------
INTERNAL COORDINATES (ANGSTROEM)
--------------------------------
 C      0   0   0     0.000000000000     0.00000000     0.00000000
 C      1   0   0     1.539575924403     0.00000000     0.00000000
 C      2   1   0     1.499276460764   112.41487602     0.00000000
 N      3   2   1     1.338622607048   117.74534069   282.67999189
 C      3   2   1     1.291028818501   119.46262227   102.41240062
 H      5   3   2     1.016852277226   118.93875800   356.56161909
 H      5   3   2     1.011154216378   119.49556415   180.77765573
 H      4   3   2     1.016837750135   119.85311119     0.99564669
 H      4   3   2     1.011158003529   122.12376033   175.86157171
 H      2   1   3     1.093151703425   110.33565258   239.46838079
 H      2   1   3     1.090964078235   109.96279536   119.02208714
 H      1   2   3     1.069999038271   109.47118841   179.99977864
 H      1   2   3     1.070007273901   109.47133769    59.99982829
 H      1   2   3     1.070002092007   109.47146625   300.00005003

---------------------------
INTERNAL COORDINATES (A.U.)
---------------------------
 C      0   0   0     0.000000000000     0.00000000     0.00000000
 C      1   0   0     2.909376859499     0.00000000     0.00000000
 C      2   1   0     2.833221909878   112.41487602     0.00000000
 N      3   2   1     2.529630123996   117.74534069   282.67999189
 C      3   2   1     2.439690897967   119.46262227   102.41240062
 H      5   3   2     1.921572322612   118.93875800   356.56161909
 H      5   3   2     1.910804548115   119.49556415   180.77765573
 H      4   3   2     1.921544870388   119.85311119     0.99564669
 H      4   3   2     1.910811704792   122.12376033   175.86157171
 H      2   1   3     2.065757342302   110.33565258   239.46838079
 H      2   1   3     2.061623329811   109.96279536   119.02208714
 H      1   2   3     2.022005145891   109.47118841   179.99977864
 H      1   2   3     2.022020708976   109.47133769    59.99982829
 H      1   2   3     2.022010916617   109.47146625   300.00005003

---------------------
BASIS SET INFORMATION
---------------------
There are 3 groups of distinct atoms

 Group   1 Type C   : 12s6p3d1f contracted to 6s3p3d1f pattern {621111/411/111/1}
 Group   2 Type N   : 12s6p3d1f contracted to 6s3p3d1f pattern {621111/411/111/1}
 Group   3 Type H   : 5s2p contracted to 3s2p pattern {311/11}

Atom   0C    basis set group =>   1
Atom   1C    basis set group =>   1
Atom   2C    basis set group =>   1
Atom   3N    basis set group =>   2
Atom   4C    basis set group =>   1
Atom   5H    basis set group =>   3
Atom   6H    basis set group =>   3
Atom   7H    basis set group =>   3
Atom   8H    basis set group =>   3
Atom   9H    basis set group =>   3
Atom  10H    basis set group =>   3
Atom  11H    basis set group =>   3
Atom  12H    basis set group =>   3
Atom  13H    basis set group =>   3
---------------------------------
AUXILIARY/J BASIS SET INFORMATION
---------------------------------
There are 3 groups of distinct atoms

 Group   1 Type C   : 12s5p4d2f1g contracted to 6s4p3d1f1g pattern {711111/2111/211/2/1}
 Group   2 Type N   : 12s5p4d2f1g contracted to 6s4p3d1f1g pattern {711111/2111/211/2/1}
 Group   3 Type H   : 5s2p1d contracted to 3s1p1d pattern {311/2/1}

Atom   0C    basis set group =>   1
Atom   1C    basis set group =>   1
Atom   2C    basis set group =>   1
Atom   3N    basis set group =>   2
Atom   4C    basis set group =>   1
Atom   5H    basis set group =>   3
Atom   6H    basis set group =>   3
Atom   7H    basis set group =>   3
Atom   8H    basis set group =>   3
Atom   9H    basis set group =>   3
Atom  10H    basis set group =>   3
Atom  11H    basis set group =>   3
Atom  12H    basis set group =>   3
Atom  13H    basis set group =>   3


           ************************************************************
           *        Program running with 4 parallel MPI-processes     *
           *              working on a common directory               *
           ************************************************************
------------------------------------------------------------------------------
                           ORCA GTO INTEGRAL CALCULATION
                           -- RI-GTO INTEGRALS CHOSEN --
------------------------------------------------------------------------------
------------------------------------------------------------------------------
                   ___                                                        
                  /   \      - P O W E R E D   B Y -                         
                 /     \                                                     
                 |  |  |   _    _      __       _____    __    __             
                 |  |  |  | |  | |    /  \     |  _  \  |  |  /  |          
                  \  \/   | |  | |   /    \    | | | |  |  | /  /          
                 / \  \   | |__| |  /  /\  \   | |_| |  |  |/  /          
                |  |  |   |  __  | /  /__\  \  |    /   |      \           
                |  |  |   | |  | | |   __   |  |    \   |  |\   \          
                \     /   | |  | | |  |  |  |  | |\  \  |  | \   \       
                 \___/    |_|  |_| |__|  |__|  |_| \__\ |__|  \__/        
                                                                              
                      - O R C A' S   B I G   F R I E N D -                    
                                      &                                       
                       - I N T E G R A L  F E E D E R -                       
                                                                              
 v1 FN, 2020, v2 2021                                                         
------------------------------------------------------------------------------


Reading SHARK input file TZVPD_CAMB3LYP_C2_wt_dlpno_pos.SHARKINP.tmp ... ok
----------------------
SHARK INTEGRAL PACKAGE
----------------------

Number of atoms                             ...     14
Number of basis functions                   ...    266
Number of shells                            ...    110
Maximum angular momentum                    ...      3
Integral batch strategy                     ... SHARK/LIBINT Hybrid
RI-J (if used) integral strategy            ... SPLIT-RIJ (Revised 2003 algorithm where possible)
Printlevel                                  ...      1
Contraction scheme used                     ... SEGMENTED contraction
Coulomb Range Separation                    ... NOT USED
Exchange Range Separation                   ... Long Range
   Mu parameter                             ...  0.330000
   Scaling (regular/separated)              ...  0.190000  0.460000
Finite Nucleus Model                        ... NOT USED
Auxiliary Coulomb fitting basis             ... AVAILABLE
   # of basis functions in Aux-J            ...    344
   # of shells in Aux-J                     ...    120
   Maximum angular momentum in Aux-J        ...      4
Auxiliary J/K fitting basis                 ... NOT available
Auxiliary Correlation fitting basis         ... NOT available
Auxiliary 'external' fitting basis          ... NOT available
Integral threshold                          ...     2.500000e-11
Primitive cut-off                           ...     2.500000e-12
Primitive pair pre-selection threshold      ...     2.500000e-12

Calculating pre-screening integrals         ... done (  0.1 sec) Dimension = 110
Organizing shell pair data                  ... done (  0.1 sec)
Shell pair information
Total number of shell pairs                 ...      6105
Shell pairs after pre-screening             ...      5961
Total number of primitive shell pairs       ...     15188
Primitive shell pairs kept                  ...     12430
          la=0 lb=0:   1569 shell pairs
          la=1 lb=0:   1840 shell pairs
          la=1 lb=1:    559 shell pairs
          la=2 lb=0:    841 shell pairs
          la=2 lb=1:    494 shell pairs
          la=2 lb=2:    120 shell pairs
          la=3 lb=0:    283 shell pairs
          la=3 lb=1:    165 shell pairs
          la=3 lb=2:     75 shell pairs
          la=3 lb=3:     15 shell pairs

Calculating one electron integrals          ... done (  0.0 sec)
Calculating RI/J V-Matrix + Cholesky decomp.... done (  0.0 sec)
Calculating Nuclear repulsion               ... done (  0.0 sec) ENN=    181.353421613082 Eh

SHARK setup successfully completed in   0.2 seconds

Maximum memory used throughout the entire GTOINT-calculation: 13.9 MB


           ************************************************************
           *        Program running with 4 parallel MPI-processes     *
           *              working on a common directory               *
           ************************************************************
-------------------------------------------------------------------------------
                                 ORCA SCF
-------------------------------------------------------------------------------

------------
SCF SETTINGS
------------
Hamiltonian:
 Density Functional     Method          .... DFT(GTOs)
 Exchange Functional    Exchange        .... WB88
 Correlation Functional Correlation     .... LYP
 LDA part of GGA corr.  LDAOpt          .... VWN-5
 Gradients option       PostSCFGGA      .... off
 Hybrid DFT is turned on
   Fraction HF Exchange ScalHFX         ....  0.190000
   Scaling of DF-GGA-X  ScalDFX         ....  0.350000
   Scaling of DF-GGA-C  ScalDFC         ....  0.810000
   Scaling of DF-LDA-C  ScalLDAC        ....  1.000000
   Perturbative correction              ....  0.000000
   Density functional embedding theory  .... OFF
 Long-range corrected/Screened/Range-Separated Hybrid DFT is turned on
   Amount of maximum screened exact exchange              ....  0.460000
   Range separation parameter mu (erf(mu*r12)/r12)        ....  0.330000
 RI-approximation to the Coulomb term is turned on
   Number of AuxJ basis functions       .... 344
   RIJ-COSX (HFX calculated with COS-X)).... on


General Settings:
 Integral files         IntName         .... TZVPD_CAMB3LYP_C2_wt_dlpno_pos
 Hartree-Fock type      HFTyp           .... RHF
 Total Charge           Charge          ....    0
 Multiplicity           Mult            ....    1
 Number of Electrons    NEL             ....   40
 Basis Dimension        Dim             ....  266
 Nuclear Repulsion      ENuc            ....    181.3534216131 Eh

Convergence Acceleration:
 DIIS                   CNVDIIS         .... on
   Start iteration      DIISMaxIt       ....    12
   Startup error        DIISStart       ....  0.200000
   # of expansion vecs  DIISMaxEq       ....     5
   Bias factor          DIISBfac        ....   1.050
   Max. coefficient     DIISMaxC        ....  10.000
 Trust-Rad. Augm. Hess. CNVTRAH         .... auto
   Auto Start mean grad. ratio tolernc. ....  1.125000
   Auto Start start iteration           ....    20
   Auto Start num. interpolation iter.  ....    10
   Max. Number of Micro iterations      ....    16
   Max. Number of Macro iterations      .... Maxiter - #DIIS iter
   Number of Davidson start vectors     ....     2
   Converg. threshold I  (grad. norm)   ....   1.000e-05
   Converg. threshold II (energy diff.) ....   1.000e-08
   Grad. Scal. Fac. for Micro threshold ....   0.100
   Minimum threshold for Micro iter.    ....   0.010
   NR start threshold (gradient norm)   ....   0.001
   Initial trust radius                 ....   0.400
   Minimum AH scaling param. (alpha)    ....   1.000
   Maximum AH scaling param. (alpha)    .... 1000.000
   Orbital update algorithm             .... Taylor
   White noise on init. David. guess    .... on
   Maximum white noise                  ....   0.010
   Quad. conv. algorithm                .... NR
 SOSCF                  CNVSOSCF        .... on
   Start iteration      SOSCFMaxIt      ....   150
   Startup grad/error   SOSCFStart      ....  0.003300
 Level Shifting         CNVShift        .... on
   Level shift para.    LevelShift      ....    0.2500
   Turn off err/grad.   ShiftErr        ....    0.0010
 Zerner damping         CNVZerner       .... off
 Static damping         CNVDamp         .... on
   Fraction old density DampFac         ....    0.7000
   Max. Damping (<1)    DampMax         ....    0.9800
   Min. Damping (>=0)   DampMin         ....    0.0000
   Turn off err/grad.   DampErr         ....    0.1000
 Fernandez-Rico         CNVRico         .... off

SCF Procedure:
 Maximum # iterations   MaxIter         ....   150
 SCF integral mode      SCFMode         .... Direct
   Integral package                     .... SHARK and LIBINT hybrid scheme
 Reset frequency        DirectResetFreq ....    20
 Integral Threshold     Thresh          ....  2.500e-11 Eh
 Primitive CutOff       TCut            ....  2.500e-12 Eh

Convergence Tolerance:
 Convergence Check Mode ConvCheckMode   .... Total+1el-Energy
 Convergence forced     ConvForced      .... 0
 Energy Change          TolE            ....  1.000e-08 Eh
 1-El. energy change                    ....  1.000e-05 Eh
 Orbital Gradient       TolG            ....  1.000e-05
 Orbital Rotation angle TolX            ....  1.000e-05
 DIIS Error             TolErr          ....  5.000e-07


Diagonalization of the overlap matrix:
Smallest eigenvalue                        ... 4.035e-06
Time for diagonalization                   ...    0.015 sec
Threshold for overlap eigenvalues          ... 1.000e-08
Number of eigenvalues below threshold      ... 0
Time for construction of square roots      ...    0.012 sec
Total time needed                          ...    0.028 sec

Time for model grid setup =    0.148 sec

------------------------------
INITIAL GUESS: MODEL POTENTIAL
------------------------------
Loading Hartree-Fock densities                     ... done
Calculating cut-offs                               ... done
Initializing the effective Hamiltonian             ... done
Setting up the integral package (SHARK)            ... done
Starting the Coulomb interaction                   ... done (   0.1 sec)
Reading the grid                                   ... done
Mapping shells                                     ... done
Starting the XC term evaluation                    ... done (   0.2 sec)
  promolecular density results
     # of electrons  =     39.999288326
     EX              =    -29.709264963
     EC              =     -1.298199275
     EX+EC           =    -31.007464238
Transforming the Hamiltonian                       ... done (   0.0 sec)
Diagonalizing the Hamiltonian                      ... done (   0.0 sec)
Back transforming the eigenvectors                 ... done (   0.0 sec)
Now organizing SCF variables                       ... done
                      ------------------
                      INITIAL GUESS DONE (   0.6 sec)
                      ------------------
-------------------
DFT GRID GENERATION
-------------------

General Integration Accuracy     IntAcc      ... 4.388
Radial Grid Type                 RadialGrid  ... OptM3 with GC (2021)
Angular Grid (max. ang.)         AngularGrid ... 4 (Lebedev-302)
Angular grid pruning method      GridPruning ... 4 (adaptive)
Weight generation scheme         WeightScheme... Becke
Basis function cutoff            BFCut       ... 1.0000e-11
Integration weight cutoff        WCut        ... 1.0000e-14
Angular grids for H and He will be reduced by one unit
Partially contracted basis set               ... off
Rotationally invariant grid construction     ... off

Total number of grid points                  ...    62347
Total number of batches                      ...      981
Average number of points per batch           ...       63
Average number of grid points per atom       ...     4453
Time for grid setup =    0.583 sec

--------------------
COSX GRID GENERATION
--------------------

GRIDX 1
-------
General Integration Accuracy     IntAcc      ... 3.816
Radial Grid Type                 RadialGrid  ... OptM3 with GC (2021)
Angular Grid (max. ang.)         AngularGrid ... 1 (Lebedev-50)
Angular grid pruning method      GridPruning ... 4 (adaptive)
Weight generation scheme         WeightScheme... Becke
Basis function cutoff            BFCut       ... 1.0000e-11
Integration weight cutoff        WCut        ... 1.0000e-14
Angular grids for H and He will be reduced by one unit
Partially contracted basis set               ... on
Rotationally invariant grid construction     ... off

Total number of grid points                  ...     7824
Total number of batches                      ...      129
Average number of points per batch           ...       60
Average number of grid points per atom       ...      559
UseSFitting                                  ... on

GRIDX 2
-------
General Integration Accuracy     IntAcc      ... 4.020
Radial Grid Type                 RadialGrid  ... OptM3 with GC (2021)
Angular Grid (max. ang.)         AngularGrid ... 2 (Lebedev-110)
Angular grid pruning method      GridPruning ... 4 (adaptive)
Weight generation scheme         WeightScheme... Becke
Basis function cutoff            BFCut       ... 1.0000e-11
Integration weight cutoff        WCut        ... 1.0000e-14
Angular grids for H and He will be reduced by one unit
Partially contracted basis set               ... on
Rotationally invariant grid construction     ... off

Total number of grid points                  ...    18370
Total number of batches                      ...      296
Average number of points per batch           ...       62
Average number of grid points per atom       ...     1312
UseSFitting                                  ... on

GRIDX 3
-------
General Integration Accuracy     IntAcc      ... 4.338
Radial Grid Type                 RadialGrid  ... OptM3 with GC (2021)
Angular Grid (max. ang.)         AngularGrid ... 3 (Lebedev-194)
Angular grid pruning method      GridPruning ... 4 (adaptive)
Weight generation scheme         WeightScheme... Becke
Basis function cutoff            BFCut       ... 1.0000e-11
Integration weight cutoff        WCut        ... 1.0000e-14
Angular grids for H and He will be reduced by one unit
Partially contracted basis set               ... on
Rotationally invariant grid construction     ... off

Total number of grid points                  ...    41360
Total number of batches                      ...      653
Average number of points per batch           ...       63
Average number of grid points per atom       ...     2954
UseSFitting                                  ... on

Time for X-Grid setup             =    0.628 sec

--------------
SCF ITERATIONS
--------------
ITER       Energy         Delta-E        Max-DP      RMS-DP      [F,P]     Damp
               ***  Starting incremental Fock matrix formation  ***
  0   -212.2803680803   0.000000000000 0.14248363  0.00248378  0.2277019 0.7000
  1   -212.3863319499  -0.105963869595 0.10655546  0.00186595  0.1273808 0.7000
                               ***Turning on DIIS***
  2   -212.4369546413  -0.050622691409 0.17859837  0.00396378  0.0588912 0.0000
  3   -212.5111286267  -0.074173985387 0.07247091  0.00092776  0.0617463 0.0000
  4   -212.5273498616  -0.016221234883 0.01475732  0.00024158  0.0118067 0.0000
  5   -212.5278686256  -0.000518764035 0.00696392  0.00009510  0.0043218 0.0000
                      *** Initiating the SOSCF procedure ***
                           *** Shutting down DIIS ***
                      *** Re-Reading the Fockian *** 
                      *** Removing any level shift *** 
ITER      Energy       Delta-E        Grad      Rot      Max-DP    RMS-DP
  6   -212.52791161  -0.0000429824  0.000211  0.000211  0.003362  0.000080
               *** Restarting incremental Fock matrix formation ***
  7   -212.52790495   0.0000066604  0.000082  0.000237  0.001814  0.000060
  8   -212.52790536  -0.0000004114  0.000021  0.000120  0.000756  0.000020
  9   -212.52790541  -0.0000000515  0.000014  0.000020  0.000375  0.000011
 10   -212.52790542  -0.0000000133  0.000004  0.000012  0.000411  0.000006
 11   -212.52790542   0.0000000025  0.000003  0.000006  0.000285  0.000003
                  ***Gradient check signals convergence***
              ***Rediagonalizing the Fockian in SOSCF/NRSCF***

               *****************************************************
               *                     SUCCESS                       *
               *           SCF CONVERGED AFTER  12 CYCLES          *
               *****************************************************

Old exchange energy                            =     -8.941617554 Eh
New exchange energy                            =     -8.941626379 Eh
Exchange energy change after final integration =     -0.000008824 Eh
Total energy after final integration           =   -212.527914248 Eh
Final COS-X integration done in                =     8.415 sec

----------------
TOTAL SCF ENERGY
----------------

Total Energy       :         -212.52791425 Eh           -5783.17856 eV

Components:
Nuclear Repulsion  :          181.35342161 Eh            4934.87749 eV
Electronic Energy  :         -393.88133586 Eh          -10718.05604 eV
One Electron Energy:         -644.37208983 Eh          -17534.25599 eV
Two Electron Energy:          250.49075397 Eh            6816.19994 eV
Max COSX asymmetry :            0.00000108 Eh               0.00003 eV

Virial components:
Potential Energy   :         -424.54911560 Eh          -11552.56876 eV
Kinetic Energy     :          212.02120136 Eh            5769.39020 eV
Virial Ratio       :            2.00238992


DFT components:
N(Alpha)           :       19.999987286709 electrons
N(Beta)            :       19.999987286709 electrons
N(Total)           :       39.999974573418 electrons
E(XC)              :      -23.093861018688 Eh       
DFET-embed. en.    :        0.000000000000 Eh       

---------------
SCF CONVERGENCE
---------------

  Last Energy change         ...   -2.0985e-09  Tolerance :   1.0000e-08
  Last MAX-Density change    ...    9.9920e-16  Tolerance :   1.0000e-07
  Last RMS-Density change    ...    1.6833e-17  Tolerance :   5.0000e-09
  Last Orbital Gradient      ...    7.0686e-07  Tolerance :   1.0000e-05
  Last Orbital Rotation      ...    1.0651e-06  Tolerance :   1.0000e-05

             **** THE GBW FILE WAS UPDATED (TZVPD_CAMB3LYP_C2_wt_dlpno_pos.gbw) ****
             **** DENSITY TZVPD_CAMB3LYP_C2_wt_dlpno_pos.scfp WAS UPDATED ****
             **** ENERGY FILE WAS UPDATED (TZVPD_CAMB3LYP_C2_wt_dlpno_pos.en.tmp) ****
             **** THE GBW FILE WAS UPDATED (TZVPD_CAMB3LYP_C2_wt_dlpno_pos.gbw) ****
             **** DENSITY TZVPD_CAMB3LYP_C2_wt_dlpno_pos.scfp WAS UPDATED ****
----------------
ORBITAL ENERGIES
----------------

  NO   OCC          E(Eh)            E(eV) 
   0   2.0000     -14.387575      -391.5058 
   1   2.0000     -10.261595      -279.2322 
   2   2.0000     -10.241576      -278.6875 
   3   2.0000     -10.227347      -278.3003 
   4   2.0000     -10.174487      -276.8619 
   5   2.0000      -1.004728       -27.3400 
   6   2.0000      -0.862107       -23.4591 
   7   2.0000      -0.803858       -21.8741 
   8   2.0000      -0.713023       -19.4023 
   9   2.0000      -0.638749       -17.3813 
  10   2.0000      -0.592062       -16.1108 
  11   2.0000      -0.552275       -15.0282 
  12   2.0000      -0.504192       -13.7198 
  13   2.0000      -0.492811       -13.4101 
  14   2.0000      -0.466036       -12.6815 
  15   2.0000      -0.451356       -12.2820 
  16   2.0000      -0.417357       -11.3569 
  17   2.0000      -0.398765       -10.8509 
  18   2.0000      -0.392921       -10.6919 
  19   2.0000      -0.254858        -6.9351 
  20   0.0000       0.030433         0.8281 
  21   0.0000       0.056239         1.5303 
  22   0.0000       0.062374         1.6973 
  23   0.0000       0.064320         1.7502 
  24   0.0000       0.090431         2.4607 
  25   0.0000       0.096478         2.6253 
  26   0.0000       0.101322         2.7571 
  27   0.0000       0.108446         2.9510 
  28   0.0000       0.128063         3.4848 
  29   0.0000       0.136447         3.7129 
  30   0.0000       0.150738         4.1018 
  31   0.0000       0.152883         4.1602 
  32   0.0000       0.160099         4.3565 
  33   0.0000       0.172715         4.6998 
  34   0.0000       0.178645         4.8612 
  35   0.0000       0.197091         5.3631 
  36   0.0000       0.204598         5.5674 
  37   0.0000       0.211010         5.7419 
  38   0.0000       0.226579         6.1655 
  39   0.0000       0.230934         6.2840 
  40   0.0000       0.243631         6.6295 
  41   0.0000       0.249417         6.7870 
  42   0.0000       0.253536         6.8991 
  43   0.0000       0.263384         7.1670 
  44   0.0000       0.272083         7.4038 
  45   0.0000       0.277118         7.5408 
  46   0.0000       0.282221         7.6796 
  47   0.0000       0.294179         8.0050 
  48   0.0000       0.298236         8.1154 
  49   0.0000       0.301994         8.2177 
  50   0.0000       0.306016         8.3271 
  51   0.0000       0.314760         8.5650 
  52   0.0000       0.317124         8.6294 
  53   0.0000       0.326829         8.8935 
  54   0.0000       0.334975         9.1151 
  55   0.0000       0.336392         9.1537 
  56   0.0000       0.342143         9.3102 
  57   0.0000       0.352439         9.5903 
  58   0.0000       0.358578         9.7574 
  59   0.0000       0.372541        10.1374 
  60   0.0000       0.374776        10.1982 
  61   0.0000       0.390626        10.6295 
  62   0.0000       0.394222        10.7273 
  63   0.0000       0.400680        10.9031 
  64   0.0000       0.404538        11.0080 
  65   0.0000       0.408513        11.1162 
  66   0.0000       0.418506        11.3881 
  67   0.0000       0.434635        11.8270 
  68   0.0000       0.436181        11.8691 
  69   0.0000       0.445681        12.1276 
  70   0.0000       0.457673        12.4539 
  71   0.0000       0.459558        12.5052 
  72   0.0000       0.468554        12.7500 
  73   0.0000       0.474807        12.9202 
  74   0.0000       0.484224        13.1764 
  75   0.0000       0.492117        13.3912 
  76   0.0000       0.493342        13.4245 
  77   0.0000       0.503339        13.6966 
  78   0.0000       0.508571        13.8389 
  79   0.0000       0.519045        14.1239 
  80   0.0000       0.525031        14.2868 
  81   0.0000       0.534230        14.5371 
  82   0.0000       0.538620        14.6566 
  83   0.0000       0.559166        15.2157 
  84   0.0000       0.563922        15.3451 
  85   0.0000       0.579583        15.7713 
  86   0.0000       0.581846        15.8328 
  87   0.0000       0.595361        16.2006 
  88   0.0000       0.603005        16.4086 
  89   0.0000       0.613584        16.6965 
  90   0.0000       0.627056        17.0630 
  91   0.0000       0.643065        17.4987 
  92   0.0000       0.656033        17.8516 
  93   0.0000       0.671458        18.2713 
  94   0.0000       0.683239        18.5919 
  95   0.0000       0.706168        19.2158 
  96   0.0000       0.711135        19.3510 
  97   0.0000       0.720617        19.6090 
  98   0.0000       0.726519        19.7696 
  99   0.0000       0.746922        20.3248 
 100   0.0000       0.749666        20.3994 
 101   0.0000       0.755768        20.5655 
 102   0.0000       0.764324        20.7983 
 103   0.0000       0.768882        20.9224 
 104   0.0000       0.777505        21.1570 
 105   0.0000       0.787888        21.4395 
 106   0.0000       0.810658        22.0591 
 107   0.0000       0.829324        22.5671 
 108   0.0000       0.835616        22.7383 
 109   0.0000       0.843541        22.9539 
 110   0.0000       0.852144        23.1880 
 111   0.0000       0.859664        23.3926 
 112   0.0000       0.868560        23.6347 
 113   0.0000       0.906297        24.6616 
 114   0.0000       0.908146        24.7119 
 115   0.0000       0.935322        25.4514 
 116   0.0000       0.958245        26.0752 
 117   0.0000       0.976924        26.5835 
 118   0.0000       0.998451        27.1692 
 119   0.0000       1.012887        27.5621 
 120   0.0000       1.023974        27.8637 
 121   0.0000       1.062253        28.9054 
 122   0.0000       1.095838        29.8193 
 123   0.0000       1.103453        30.0265 
 124   0.0000       1.124504        30.5993 
 125   0.0000       1.152994        31.3746 
 126   0.0000       1.226163        33.3656 
 127   0.0000       1.235453        33.6184 
 128   0.0000       1.255323        34.1591 
 129   0.0000       1.293602        35.2007 
 130   0.0000       1.306459        35.5505 
 131   0.0000       1.335551        36.3422 
 132   0.0000       1.369343        37.2617 
 133   0.0000       1.384351        37.6701 
 134   0.0000       1.396574        38.0027 
 135   0.0000       1.424772        38.7700 
 136   0.0000       1.453906        39.5628 
 137   0.0000       1.471135        40.0316 
 138   0.0000       1.534855        41.7655 
 139   0.0000       1.543850        42.0103 
 140   0.0000       1.623499        44.1776 
 141   0.0000       1.677802        45.6553 
 142   0.0000       1.712085        46.5882 
 143   0.0000       1.734942        47.2102 
 144   0.0000       1.750959        47.6460 
 145   0.0000       1.807081        49.1732 
 146   0.0000       1.826403        49.6990 
 147   0.0000       1.846811        50.2543 
 148   0.0000       1.874733        51.0141 
 149   0.0000       1.883699        51.2581 
 150   0.0000       1.898072        51.6492 
 151   0.0000       1.913019        52.0559 
 152   0.0000       1.924432        52.3665 
 153   0.0000       1.935626        52.6711 
 154   0.0000       1.956474        53.2384 
 155   0.0000       1.969367        53.5892 
 156   0.0000       1.982477        53.9459 
 157   0.0000       1.989552        54.1385 
 158   0.0000       2.014378        54.8140 
 159   0.0000       2.053894        55.8893 
 160   0.0000       2.098750        57.1099 
 161   0.0000       2.118585        57.6496 
 162   0.0000       2.143374        58.3242 
 163   0.0000       2.174159        59.1619 
 164   0.0000       2.202430        59.9312 
 165   0.0000       2.234526        60.8045 
 166   0.0000       2.244008        61.0626 
 167   0.0000       2.277289        61.9682 
 168   0.0000       2.330276        63.4100 
 169   0.0000       2.343716        63.7757 
 170   0.0000       2.365530        64.3693 
 171   0.0000       2.439850        66.3917 
 172   0.0000       2.454562        66.7920 
 173   0.0000       2.489508        67.7430 
 174   0.0000       2.520375        68.5829 
 175   0.0000       2.563459        69.7553 
 176   0.0000       2.573106        70.0178 
 177   0.0000       2.582030        70.2606 
 178   0.0000       2.600857        70.7729 
 179   0.0000       2.631236        71.5996 
 180   0.0000       2.651226        72.1435 
 181   0.0000       2.660640        72.3997 
 182   0.0000       2.698145        73.4203 
 183   0.0000       2.713151        73.8286 
 184   0.0000       2.724523        74.1380 
 185   0.0000       2.765092        75.2420 
 186   0.0000       2.781715        75.6943 
 187   0.0000       2.814718        76.5924 
 188   0.0000       2.840145        77.2843 
 189   0.0000       2.871920        78.1489 
 190   0.0000       2.883610        78.4670 
 191   0.0000       2.899010        78.8861 
 192   0.0000       2.936542        79.9074 
 193   0.0000       2.953237        80.3617 
 194   0.0000       3.003933        81.7412 
 195   0.0000       3.021991        82.2325 
 196   0.0000       3.073332        83.6296 
 197   0.0000       3.110449        84.6396 
 198   0.0000       3.116882        84.8147 
 199   0.0000       3.143986        85.5522 
 200   0.0000       3.176807        86.4453 
 201   0.0000       3.203349        87.1676 
 202   0.0000       3.226838        87.8067 
 203   0.0000       3.255214        88.5789 
 204   0.0000       3.271424        89.0200 
 205   0.0000       3.310017        90.0701 
 206   0.0000       3.346602        91.0657 
 207   0.0000       3.354975        91.2935 
 208   0.0000       3.391286        92.2816 
 209   0.0000       3.407158        92.7135 
 210   0.0000       3.429736        93.3279 
 211   0.0000       3.450711        93.8986 
 212   0.0000       3.479123        94.6718 
 213   0.0000       3.499863        95.2361 
 214   0.0000       3.506313        95.4116 
 215   0.0000       3.545229        96.4706 
 216   0.0000       3.555060        96.7381 
 217   0.0000       3.572803        97.2209 
 218   0.0000       3.595190        97.8301 
 219   0.0000       3.629366        98.7601 
 220   0.0000       3.654480        99.4434 
 221   0.0000       3.671137        99.8967 
 222   0.0000       3.706965       100.8716 
 223   0.0000       3.741372       101.8079 
 224   0.0000       3.821918       103.9997 
 225   0.0000       3.837343       104.4194 
 226   0.0000       3.873619       105.4065 
 227   0.0000       3.978829       108.2694 
 228   0.0000       4.012210       109.1778 
 229   0.0000       4.026331       109.5620 
 230   0.0000       4.092952       111.3749 
 231   0.0000       4.109112       111.8146 
 232   0.0000       4.152099       112.9844 
 233   0.0000       4.195267       114.1590 
 234   0.0000       4.238596       115.3381 
 235   0.0000       4.267656       116.1288 
 236   0.0000       4.339776       118.0913 
 237   0.0000       4.441341       120.8550 
 238   0.0000       4.516745       122.9069 
 239   0.0000       4.538600       123.5016 
 240   0.0000       4.574820       124.4872 
 241   0.0000       4.634162       126.1020 
 242   0.0000       4.661597       126.8485 
 243   0.0000       4.689853       127.6174 
 244   0.0000       4.723217       128.5253 
 245   0.0000       4.799254       130.5943 
 246   0.0000       4.842611       131.7741 
 247   0.0000       4.913317       133.6982 
 248   0.0000       4.934165       134.2654 
 249   0.0000       5.004859       136.1891 
 250   0.0000       5.023073       136.6848 
 251   0.0000       5.073133       138.0470 
 252   0.0000       5.185545       141.1059 
 253   0.0000       5.233107       142.4001 
 254   0.0000       5.317877       144.7068 
 255   0.0000       5.392901       146.7483 
 256   0.0000       5.505904       149.8233 
 257   0.0000       5.600601       152.4001 
 258   0.0000       5.672451       154.3552 
 259   0.0000       5.863833       159.5630 
 260   0.0000       6.196270       168.6091 
 261   0.0000      22.652841       616.4152 
 262   0.0000      22.739388       618.7702 
 263   0.0000      22.821577       621.0067 
 264   0.0000      23.490158       639.1997 
 265   0.0000      32.481303       883.8612 

                    ********************************
                    * MULLIKEN POPULATION ANALYSIS *
                    ********************************

-----------------------
MULLIKEN ATOMIC CHARGES
-----------------------
   0 C :   -1.026084
   1 C :   -0.573462
   2 C :    0.741064
   3 N :   -0.387330
   4 C :   -1.098423
   5 H :    0.261055
   6 H :    0.288001
   7 H :    0.162859
   8 H :    0.148987
   9 H :    0.303272
  10 H :    0.255420
  11 H :    0.305547
  12 H :    0.304174
  13 H :    0.314919
Sum of atomic charges:   -0.0000000

--------------------------------
MULLIKEN REDUCED ORBITAL CHARGES
--------------------------------
  0 C s       :     3.435668  s :     3.435668
      pz      :     1.025083  p :     3.549083
      px      :     1.255092
      py      :     1.268908
      dz2     :    -0.008124  d :     0.037884
      dxz     :    -0.014948
      dyz     :     0.017845
      dx2y2   :     0.006202
      dxy     :     0.036910
      f0      :     0.000803  f :     0.003448
      f+1     :     0.000450
      f-1     :     0.000571
      f+2     :     0.000446
      f-2     :     0.000748
      f+3     :     0.000004
      f-3     :     0.000426
  1 C s       :     3.312312  s :     3.312312
      pz      :     0.978590  p :     3.210900
      px      :     1.233301
      py      :     0.999010
      dz2     :    -0.000381  d :     0.044632
      dxz     :    -0.019270
      dyz     :     0.002574
      dx2y2   :     0.022273
      dxy     :     0.039437
      f0      :     0.001146  f :     0.005617
      f+1     :     0.000546
      f-1     :     0.001148
      f+2     :     0.000681
      f-2     :     0.001253
      f+3     :     0.000208
      f-3     :     0.000636
  2 C s       :     3.365859  s :     3.365859
      pz      :     0.579978  p :     1.878019
      px      :     0.655794
      py      :     0.642246
      dz2     :     0.003318  d :     0.000630
      dxz     :     0.049219
      dyz     :    -0.068989
      dx2y2   :     0.025184
      dxy     :    -0.008103
      f0      :     0.002175  f :     0.014430
      f+1     :     0.001446
      f-1     :     0.001523
      f+2     :     0.001491
      f-2     :     0.002839
      f+3     :     0.003141
      f-3     :     0.001813
  3 N s       :     3.455048  s :     3.455048
      pz      :     1.350058  p :     3.880062
      px      :     1.244135
      py      :     1.285870
      dz2     :     0.007752  d :     0.048857
      dxz     :     0.014503
      dyz     :     0.008639
      dx2y2   :     0.011348
      dxy     :     0.006616
      f0      :     0.000281  f :     0.003363
      f+1     :     0.000521
      f-1     :     0.000314
      f+2     :     0.000562
      f-2     :     0.000635
      f+3     :     0.000615
      f-3     :     0.000435
  4 C s       :     3.539450  s :     3.539450
      pz      :     1.029309  p :     3.525411
      px      :     1.169121
      py      :     1.326982
      dz2     :     0.007939  d :     0.028456
      dxz     :    -0.001750
      dyz     :     0.009167
      dx2y2   :     0.008738
      dxy     :     0.004362
      f0      :     0.000924  f :     0.005106
      f+1     :     0.000684
      f-1     :     0.000523
      f+2     :     0.000842
      f-2     :     0.001143
      f+3     :     0.000365
      f-3     :     0.000625
  5 H s       :     0.659341  s :     0.659341
      pz      :     0.017926  p :     0.079604
      px      :     0.034666
      py      :     0.027012
  6 H s       :     0.646742  s :     0.646742
      pz      :     0.021597  p :     0.065257
      px      :     0.012930
      py      :     0.030729
  7 H s       :     0.784173  s :     0.784173
      pz      :     0.021488  p :     0.052967
      px      :     0.019666
      py      :     0.011813
  8 H s       :     0.793967  s :     0.793967
      pz      :     0.018190  p :     0.057046
      px      :     0.011171
      py      :     0.027685
  9 H s       :     0.634794  s :     0.634794
      pz      :     0.020799  p :     0.061934
      px      :     0.033908
      py      :     0.007227
 10 H s       :     0.686830  s :     0.686830
      pz      :     0.019881  p :     0.057750
      px      :     0.022375
      py      :     0.015494
 11 H s       :     0.626617  s :     0.626617
      pz      :     0.024960  p :     0.067836
      px      :     0.021255
      py      :     0.021620
 12 H s       :     0.629205  s :     0.629205
      pz      :     0.021095  p :     0.066621
      px      :     0.019372
      py      :     0.026153
 13 H s       :     0.610412  s :     0.610412
      pz      :     0.010868  p :     0.074669
      px      :     0.042115
      py      :     0.021687


                     *******************************
                     * LOEWDIN POPULATION ANALYSIS *
                     *******************************

----------------------
LOEWDIN ATOMIC CHARGES
----------------------
   0 C :   -0.092257
   1 C :   -0.202431
   2 C :   -0.500661
   3 N :    0.098791
   4 C :    0.016702
   5 H :    0.030558
   6 H :    0.026823
   7 H :    0.103411
   8 H :    0.105871
   9 H :    0.111135
  10 H :    0.108118
  11 H :    0.062049
  12 H :    0.060640
  13 H :    0.071251

-------------------------------
LOEWDIN REDUCED ORBITAL CHARGES
-------------------------------
  0 C s       :     2.728754  s :     2.728754
      pz      :     0.945463  p :     2.887889
      px      :     0.970603
      py      :     0.971823
      dz2     :     0.098068  d :     0.448802
      dxz     :     0.090261
      dyz     :     0.138476
      dx2y2   :     0.036397
      dxy     :     0.085600
      f0      :     0.006355  f :     0.026812
      f+1     :     0.004344
      f-1     :     0.003374
      f+2     :     0.004536
      f-2     :     0.003593
      f+3     :     0.001248
      f-3     :     0.003361
  1 C s       :     2.671018  s :     2.671018
      pz      :     0.918731  p :     2.754677
      px      :     0.923396
      py      :     0.912549
      dz2     :     0.189097  d :     0.736661
      dxz     :     0.140870
      dyz     :     0.184130
      dx2y2   :     0.066110
      dxy     :     0.156454
      f0      :     0.007790  f :     0.040075
      f+1     :     0.004756
      f-1     :     0.007468
      f+2     :     0.006255
      f-2     :     0.006511
      f+3     :     0.002415
      f-3     :     0.004879
  2 C s       :     2.614752  s :     2.614752
      pz      :     0.895413  p :     2.587795
      px      :     0.869769
      py      :     0.822613
      dz2     :     0.248285  d :     1.205281
      dxz     :     0.227061
      dyz     :     0.222579
      dx2y2   :     0.265361
      dxy     :     0.241995
      f0      :     0.013936  f :     0.092834
      f+1     :     0.010590
      f-1     :     0.010457
      f+2     :     0.011174
      f-2     :     0.014915
      f+3     :     0.019907
      f-3     :     0.011855
  3 N s       :     2.898273  s :     2.898273
      pz      :     1.194099  p :     3.596438
      px      :     1.201718
      py      :     1.200620
      dz2     :     0.042120  d :     0.394996
      dxz     :     0.106337
      dyz     :     0.053891
      dx2y2   :     0.108453
      dxy     :     0.084195
      f0      :     0.001048  f :     0.011502
      f+1     :     0.001623
      f-1     :     0.001140
      f+2     :     0.001612
      f-2     :     0.001736
      f+3     :     0.002631
      f-3     :     0.001713
  4 C s       :     2.713330  s :     2.713330
      pz      :     0.958574  p :     2.834037
      px      :     0.951182
      py      :     0.924282
      dz2     :     0.077062  d :     0.401681
      dxz     :     0.077337
      dyz     :     0.103492
      dx2y2   :     0.077317
      dxy     :     0.066474
      f0      :     0.004761  f :     0.034249
      f+1     :     0.007238
      f-1     :     0.003445
      f+2     :     0.006703
      f-2     :     0.005745
      f+3     :     0.002614
      f-3     :     0.003744
  5 H s       :     0.715154  s :     0.715154
      pz      :     0.070837  p :     0.254288
      px      :     0.093669
      py      :     0.089782
  6 H s       :     0.726623  s :     0.726623
      pz      :     0.079543  p :     0.246553
      px      :     0.068814
      py      :     0.098197
  7 H s       :     0.625775  s :     0.625775
      pz      :     0.108862  p :     0.270814
      px      :     0.086326
      py      :     0.075626
  8 H s       :     0.629874  s :     0.629874
      pz      :     0.089629  p :     0.264255
      px      :     0.068022
      py      :     0.106604
  9 H s       :     0.686385  s :     0.686385
      pz      :     0.050698  p :     0.202481
      px      :     0.088715
      py      :     0.063068
 10 H s       :     0.678006  s :     0.678006
      pz      :     0.068030  p :     0.213876
      px      :     0.076389
      py      :     0.069457
 11 H s       :     0.712425  s :     0.712425
      pz      :     0.072771  p :     0.225526
      px      :     0.061555
      py      :     0.091200
 12 H s       :     0.707791  s :     0.707791
      pz      :     0.066980  p :     0.231569
      px      :     0.085749
      py      :     0.078839
 13 H s       :     0.704730  s :     0.704730
      pz      :     0.058664  p :     0.224019
      px      :     0.093729
      py      :     0.071626


                      *****************************
                      * MAYER POPULATION ANALYSIS *
                      *****************************

  NA   - Mulliken gross atomic population
  ZA   - Total nuclear charge
  QA   - Mulliken gross atomic charge
  VA   - Mayer's total valence
  BVA  - Mayer's bonded valence
  FA   - Mayer's free valence

  ATOM       NA         ZA         QA         VA         BVA        FA
  0 C      7.0261     6.0000    -1.0261     3.4268     3.4268    -0.0000
  1 C      6.5735     6.0000    -0.5735     3.3423     3.3423     0.0000
  2 C      5.2589     6.0000     0.7411     2.4720     2.4720    -0.0000
  3 N      7.3873     7.0000    -0.3873     3.1529     3.1529    -0.0000
  4 C      7.0984     6.0000    -1.0984     3.5176     3.5176    -0.0000
  5 H      0.7389     1.0000     0.2611     1.0304     1.0304    -0.0000
  6 H      0.7120     1.0000     0.2880     0.9800     0.9800    -0.0000
  7 H      0.8371     1.0000     0.1629     1.0074     1.0074     0.0000
  8 H      0.8510     1.0000     0.1490     1.0243     1.0243    -0.0000
  9 H      0.6967     1.0000     0.3033     0.9740     0.9740     0.0000
 10 H      0.7446     1.0000     0.2554     1.0134     1.0134     0.0000
 11 H      0.6945     1.0000     0.3055     1.0276     1.0276    -0.0000
 12 H      0.6958     1.0000     0.3042     1.0329     1.0329     0.0000
 13 H      0.6851     1.0000     0.3149     1.0338     1.0338     0.0000

  Mayer bond orders larger than 0.100000
B(  0-C ,  1-C ) :   0.6066 B(  0-C , 11-H ) :   0.9709 B(  0-C , 12-H ) :   0.9482 
B(  0-C , 13-H ) :   0.9936 B(  1-C ,  2-C ) :   0.6573 B(  1-C ,  3-N ) :   0.1088 
B(  1-C ,  9-H ) :   0.9844 B(  1-C , 10-H ) :   0.9947 B(  2-C ,  3-N ) :   0.8654 
B(  2-C ,  4-C ) :   1.2675 B(  2-C ,  6-H ) :  -0.1260 B(  3-N ,  7-H ) :   1.0270 
B(  3-N ,  8-H ) :   1.0357 B(  4-C ,  5-H ) :   0.9906 B(  4-C ,  6-H ) :   1.0451 


-------
TIMINGS
-------

Total SCF time: 0 days 0 hours 0 min 55 sec 

Total time                  ....      55.502 sec
Sum of individual times     ....      55.231 sec  ( 99.5%)

Fock matrix formation       ....      53.165 sec  ( 95.8%)
  Split-RI-J                ....       2.009 sec  (  3.8% of F)
  Chain of spheres X        ....      45.089 sec  ( 84.8% of F)
  XC integration            ....       5.997 sec  ( 11.3% of F)
    Basis function eval.    ....       1.573 sec  ( 26.2% of XC)
    Density eval.           ....       1.537 sec  ( 25.6% of XC)
    XC-Functional eval.     ....       0.572 sec  (  9.5% of XC)
    XC-Potential eval.      ....       2.140 sec  ( 35.7% of XC)
Diagonalization             ....       0.124 sec  (  0.2%)
Density matrix formation    ....       0.008 sec  (  0.0%)
Population analysis         ....       0.014 sec  (  0.0%)
Initial guess               ....       0.418 sec  (  0.8%)
Orbital Transformation      ....       0.000 sec  (  0.0%)
Orbital Orthonormalization  ....       0.000 sec  (  0.0%)
DIIS solution               ....       0.068 sec  (  0.1%)
SOSCF solution              ....       0.075 sec  (  0.1%)
Grid generation             ....       1.359 sec  (  2.4%)

Maximum memory used throughout the entire SCF-calculation: 75.3 MB

-------------------------   --------------------
FINAL SINGLE POINT ENERGY      -212.527914247943
-------------------------   --------------------


                            ***************************************
                            *     ORCA property calculations      *
                            ***************************************

                                    ---------------------
                                    Active property flags
                                    ---------------------
   (+) Dipole Moment


------------------------------------------------------------------------------
                       ORCA ELECTRIC PROPERTIES CALCULATION
------------------------------------------------------------------------------

Dipole Moment Calculation                       ... on
Quadrupole Moment Calculation                   ... off
Polarizability Calculation                      ... off
GBWName                                         ... TZVPD_CAMB3LYP_C2_wt_dlpno_pos.gbw
Electron density file                           ... TZVPD_CAMB3LYP_C2_wt_dlpno_pos.scfp
The origin for moment calculation is the CENTER OF MASS  = ( 4.426538, -3.449156 -6.168232)

-------------
DIPOLE MOMENT
-------------
                                X             Y             Z
Electronic contribution:      1.62851       1.06047       1.99790
Nuclear contribution   :     -1.13902      -0.93906      -2.44135
                        -----------------------------------------
Total Dipole Moment    :      0.48949       0.12141      -0.44345
                        -----------------------------------------
Magnitude (a.u.)       :      0.67155
Magnitude (Debye)      :      1.70696



--------------------
Rotational spectrum 
--------------------
 
Rotational constants in cm-1:     0.267243     0.130607     0.102304 
Rotational constants in MHz :  8011.748167  3915.504600  3066.999841 

 Dipole components along the rotational axes: 
x,y,z [a.u.] :    -0.170097     0.649639     0.004654 
x,y,z [Debye]:    -0.432352     1.651251     0.011829 

 

Timings for individual modules:

Sum of individual times         ...       59.950 sec (=   0.999 min)
GTO integral calculation        ...        2.350 sec (=   0.039 min)   3.9 %
SCF iterations                  ...       57.599 sec (=   0.960 min)  96.1 %
                             ****ORCA TERMINATED NORMALLY****
TOTAL RUN TIME: 0 days 0 hours 1 minutes 0 seconds 460 msec
