
                                        *****************
                                        * O   R   C   A *
                                        *****************

                                            #,                                       
                                            ###                                      
                                            ####                                     
                                            #####                                    
                                            ######                                   
                                           ########,                                 
                                     ,,################,,,,,                         
                               ,,#################################,,                 
                          ,,##########################################,,             
                       ,#########################################, ''#####,          
                    ,#############################################,,   '####,        
                  ,##################################################,,,,####,       
                ,###########''''           ''''###############################       
              ,#####''   ,,,,##########,,,,          '''####'''          '####       
            ,##' ,,,,###########################,,,                        '##       
           ' ,,###''''                  '''############,,,                           
         ,,##''                                '''############,,,,        ,,,,,,###''
      ,#''                                            '''#######################'''  
     '                                                          ''''####''''         
             ,#######,   #######,   ,#######,      ##                                
            ,#'     '#,  ##    ##  ,#'     '#,    #''#        ######   ,####,        
            ##       ##  ##   ,#'  ##            #'  '#       #        #'  '#        
            ##       ##  #######   ##           ,######,      #####,   #    #        
            '#,     ,#'  ##    ##  '#,     ,#' ,#      #,         ##   #,  ,#        
             '#######'   ##     ##  '#######'  #'      '#     #####' # '####'        



                  #######################################################
                  #                        -***-                        #
                  #          Department of theory and spectroscopy      #
                  #    Directorship and core code : Frank Neese         #
                  #        Max Planck Institute fuer Kohlenforschung    #
                  #                Kaiser Wilhelm Platz 1               #
                  #                 D-45470 Muelheim/Ruhr               #
                  #                      Germany                        #
                  #                                                     #
                  #                  All rights reserved                #
                  #                        -***-                        #
                  #######################################################


                         Program Version 5.0.0 -  RELEASE  -
                                (SVN: $Rev: 19529$)
                ($Date: 2021-06-28 11:36:33 +0200 (Mo, 28 Jun 2021) $)


 With contributions from (in alphabetic order):
   Daniel Aravena         : Magnetic Suceptibility
   Michael Atanasov       : Ab Initio Ligand Field Theory (pilot matlab implementation)
   Alexander A. Auer      : GIAO ZORA, VPT2 properties, NMR spectrum
   Ute Becker             : Parallelization
   Giovanni Bistoni       : ED, misc. LED, open-shell LED, HFLD
   Martin Brehm           : Molecular dynamics
   Dmytro Bykov           : SCF Hessian
   Vijay G. Chilkuri      : MRCI spin determinant printing, contributions to CSF-ICE
   Dipayan Datta          : RHF DLPNO-CCSD density
   Achintya Kumar Dutta   : EOM-CC, STEOM-CC
   Dmitry Ganyushin       : Spin-Orbit,Spin-Spin,Magnetic field MRCI
   Miquel Garcia          : C-PCM Hessian, Gaussian charge scheme
   Yang Guo               : DLPNO-NEVPT2, F12-NEVPT2, CIM, IAO-localization
   Andreas Hansen         : Spin unrestricted coupled pair/coupled cluster methods
   Benjamin Helmich-Paris : MC-RPA, TRAH-SCF, COSX integrals
   Lee Huntington         : MR-EOM, pCC
   Robert Izsak           : Overlap fitted RIJCOSX, COSX-SCS-MP3, EOM
   Marcus Kettner         : VPT2
   Christian Kollmar      : KDIIS, OOCD, Brueckner-CCSD(T), CCSD density, CASPT2, CASPT2-K
   Simone Kossmann        : Meta GGA functionals, TD-DFT gradient, OOMP2, MP2 Hessian
   Martin Krupicka        : Initial AUTO-CI
   Lucas Lang             : DCDCAS
   Marvin Lechner         : AUTO-CI (C++ implementation), FIC-MRCC
   Dagmar Lenk            : GEPOL surface, SMD
   Dimitrios Liakos       : Extrapolation schemes; Compound Job, initial MDCI parallelization
   Dimitrios Manganas     : Further ROCIS development; embedding schemes
   Dimitrios Pantazis     : SARC Basis sets
   Anastasios Papadopoulos: AUTO-CI, single reference methods and gradients
   Taras Petrenko         : DFT Hessian,TD-DFT gradient, ASA, ECA, R-Raman, ABS, FL, XAS/XES, NRVS
   Peter Pinski           : DLPNO-MP2, DLPNO-MP2 Gradient
   Christoph Reimann      : Effective Core Potentials
   Marius Retegan         : Local ZFS, SOC
   Christoph Riplinger    : Optimizer, TS searches, QM/MM, DLPNO-CCSD(T), (RO)-DLPNO pert. Triples
   Tobias Risthaus        : Range-separated hybrids, TD-DFT gradient, RPA, STAB
   Michael Roemelt        : Original ROCIS implementation
   Masaaki Saitow         : Open-shell DLPNO-CCSD energy and density
   Barbara Sandhoefer     : DKH picture change effects
   Avijit Sen             : IP-ROCIS
   Kantharuban Sivalingam : CASSCF convergence, NEVPT2, FIC-MRCI
   Bernardo de Souza      : ESD, SOC TD-DFT
   Georgi Stoychev        : AutoAux, RI-MP2 NMR
   Willem Van den Heuvel  : Paramagnetic NMR
   Boris Wezisla          : Elementary symmetry handling
   Frank Wennmohs         : Technical directorship


 We gratefully acknowledge several colleagues who have allowed us to
 interface, adapt or use parts of their codes:
   Stefan Grimme, W. Hujo, H. Kruse, P. Pracht,  : VdW corrections, initial TS optimization,
                  C. Bannwarth, S. Ehlert          DFT functionals, gCP, sTDA/sTD-DF
   Ed Valeev, F. Pavosevic, A. Kumar             : LibInt (2-el integral package), F12 methods
   Garnet Chan, S. Sharma, J. Yang, R. Olivares  : DMRG
   Ulf Ekstrom                                   : XCFun DFT Library
   Mihaly Kallay                                 : mrcc  (arbitrary order and MRCC methods)
   Jiri Pittner, Ondrej Demel                    : Mk-CCSD
   Frank Weinhold                                : gennbo (NPA and NBO analysis)
   Christopher J. Cramer and Donald G. Truhlar   : smd solvation model
   Lars Goerigk                                  : TD-DFT with DH, B97 family of functionals
   V. Asgeirsson, H. Jonsson                     : NEB implementation
   FAccTs GmbH                                   : IRC, NEB, NEB-TS, DLPNO-Multilevel, CI-OPT
                                                   MM, QMMM, 2- and 3-layer-ONIOM, Crystal-QMMM,
                                                   LR-CPCM, SF, NACMEs, symmetry and pop. for TD-DFT,
                                                   nearIR, NL-DFT gradient (VV10), updates on ESD,
                                                   ML-optimized integration grids
   S Lehtola, MJT Oliveira, MAL Marques          : LibXC Library
   Liviu Ungur et al                             : ANISO software


 Your calculation uses the libint2 library for the computation of 2-el integrals
 For citations please refer to: http://libint.valeyev.net

 Your ORCA version has been built with support for libXC version: 5.1.0
 For citations please refer to: https://tddft.org/programs/libxc/

 This ORCA versions uses:
   CBLAS   interface :  Fast vector & matrix operations
   LAPACKE interface :  Fast linear algebra routines
   SCALAPACK package :  Parallel linear algebra routines
   Shared memory     :  Shared parallel matrices
   BLAS/LAPACK       :  OpenBLAS 0.3.15  USE64BITINT DYNAMIC_ARCH NO_AFFINITY Haswell SINGLE_THREADED
        Core in use  :  Haswell
   Copyright (c) 2011-2014, The OpenBLAS Project




***************************************
The coordinates will be read from file: B.xyz
***************************************


Your calculation utilizes the atom-pairwise dispersion correction
with the Becke-Johnson damping scheme (D3BJ)
Cite in your paper:
S.Grimme, S.Ehrlich, L.Goerigk, J Comput Chem, (2011), 32, 1456–1465 
S.Grimme, J.Antony, S.Ehrlich and H.Krieg, J.Chem.Phys., 132, (2010), 154104 
   

================================================================================

----- Orbital basis set information -----
Your calculation utilizes the basis: def2-TZVPD
   F. Weigend and R. Ahlrichs, Phys. Chem. Chem. Phys. 7, 3297 (2005).
   D. Rappoport and F. Furche, J. Chem. Phys. 133 134105 (2010).

----- AuxJ basis set information -----
Your calculation utilizes the auxiliary basis: def2/J
   F. Weigend, Phys. Chem. Chem. Phys. 8, 1057 (2006).

================================================================================
                                        WARNINGS
                       Please study these warnings very carefully!
================================================================================


INFO   : the flag for use of the SHARK integral package has been found!

================================================================================
                                       INPUT FILE
================================================================================
NAME = 28Oct_TZVPD_PBE0_B_wt_wb97.com
|  1> !PBE0 D3BJ RIJCOSX def2-TZVPD def2/J TightSCF xyzfile                                                                                         
|  2> 
|  3> *xyzfile 0 1 B.xyz
|  4> 
|  5> %MaxCore 64000
|  6> 
|  7> %pal nprocs 4                                                                                                                                                  
|  8> end  
|  9> 
| 10> %scf
| 11>   MaxIter 150
| 12> end
| 13> 
| 14> 
| 15>                          ****END OF INPUT****
================================================================================

                       ****************************
                       * Single Point Calculation *
                       ****************************

---------------------------------
CARTESIAN COORDINATES (ANGSTROEM)
---------------------------------
  C     -4.382623   -1.670889    1.216201
  N     -5.763539   -1.915170    0.705012
  C     -3.281728   -2.191272    0.294361
  C     -5.572364   -5.807798   -0.816445
  S     -6.903179   -4.619033   -0.528458
  H     -5.840812   -2.115205   -0.300646
  H     -6.408823   -1.148656    0.936124
  H     -6.174781   -2.790606    1.051433
  O     -8.114853   -5.250932   -0.957007
  O     -6.532715   -3.426838   -1.314848
  H     -4.328618   -2.139223    2.198103
  H     -4.261583   -0.597399    1.357248
  O     -6.865632   -4.294957    0.914118
  C     -3.474641   -3.605898   -0.259608
  H     -2.354548   -2.127602    0.871433
  H     -3.166611   -1.499693   -0.545037
  C     -3.827078   -4.661097    0.786174
  H     -2.560559   -3.889391   -0.788050
  H     -4.255932   -3.570040   -1.019300
  C     -4.457800   -5.941875    0.229195
  H     -5.177347   -5.542575   -1.797714
  H     -6.074202   -6.768894   -0.921272
  H     -4.530506   -4.253640    1.511979
  H     -2.933400   -4.932302    1.356825
  H     -3.681064   -6.562236   -0.229885
  H     -4.843942   -6.512728    1.075805

----------------------------
CARTESIAN COORDINATES (A.U.)
----------------------------
  NO LB      ZA    FRAG     MASS         X           Y           Z
   0 C     6.0000    0    12.011   -8.281957   -3.157523    2.298287
   1 N     7.0000    0    14.007  -10.891510   -3.619147    1.332280
   2 C     6.0000    0    12.011   -6.201567   -4.140905    0.556262
   3 C     6.0000    0    12.011  -10.530242  -10.975147   -1.542857
   4 S    16.0000    0    32.060  -13.045117   -8.728707   -0.998641
   5 H     1.0000    0     1.008  -11.037536   -3.997158   -0.568139
   6 H     1.0000    0     1.008  -12.110920   -2.170644    1.769018
   7 H     1.0000    0     1.008  -11.668644   -5.273482    1.986920
   8 O     8.0000    0    15.999  -15.334849   -9.922823   -1.808482
   9 O     8.0000    0    15.999  -12.345041   -6.475785   -2.484703
  10 H     1.0000    0     1.008   -8.179903   -4.042546    4.153812
  11 H     1.0000    0     1.008   -8.053225   -1.128920    2.564827
  12 O     8.0000    0    15.999  -12.974164   -8.116293    1.727433
  13 C     6.0000    0    12.011   -6.566120   -6.814159   -0.490588
  14 H     1.0000    0     1.008   -4.449451   -4.020585    1.646770
  15 H     1.0000    0     1.008   -5.984027   -2.834008   -1.029971
  16 C     6.0000    0    12.011   -7.232129   -8.808197    1.485654
  17 H     1.0000    0     1.008   -4.838755   -7.349884   -1.489199
  18 H     1.0000    0     1.008   -8.042547   -6.746398   -1.926198
  19 C     6.0000    0    12.011   -8.424022  -11.228516    0.433116
  20 H     1.0000    0     1.008   -9.783769  -10.473949   -3.397187
  21 H     1.0000    0     1.008  -11.478579  -12.791355   -1.740953
  22 H     1.0000    0     1.008   -8.561415   -8.038215    2.857225
  23 H     1.0000    0     1.008   -5.543323   -9.320699    2.564028
  24 H     1.0000    0     1.008   -6.956203  -12.400830   -0.434419
  25 H     1.0000    0     1.008   -9.153725  -12.307272    2.032977

--------------------------------
INTERNAL COORDINATES (ANGSTROEM)
--------------------------------
 C      0   0   0     0.000000000000     0.00000000     0.00000000
 N      1   0   0     1.492620404576     0.00000000     0.00000000
 C      1   2   0     1.527271165696   113.85364860     0.00000000
 C      2   1   3     4.183769830082   103.56450803    41.65278983
 S      4   2   1     1.807530340894    45.29229929   171.88188071
 H      2   1   3     1.028267675998   115.86869106   341.16570027
 H      2   1   3     1.028274655845   112.43314417   215.56454340
 H      2   1   3     1.027382923456   113.22232162    92.88232079
 O      5   4   2     1.432167869849   106.56210639   179.65209807
 O      5   4   2     1.475459680108   105.16679956    58.10432916
 H      1   2   3     1.089212531080   106.51329602   237.05832219
 H      1   2   3     1.089461707082   107.96192227   121.80372268
 O      5   4   2     1.479006672739   106.30903041   301.84106447
 C      3   1   2     1.531424886912   116.24922617   314.06375280
 H      3   1   2     1.093951362295   105.82537570   190.90535411
 H      3   1   2     1.093674824362   108.88497077    77.12130327
 C     14   3   1     1.526865075683   114.81550265   310.61575984
 H     14   3   1     1.093236557125   108.00289044   187.26461446
 H     14   3   1     1.090336855166   108.17526248    73.28183800
 C     17  14   3     1.532458496274   115.06540973   161.03160049
 H      4   2   1     1.090536698315    96.74735693   275.60637407
 H      4   2   1     1.089282104870   146.60189605   139.64586714
 H     17  14   3     1.089781485131   110.28956843    40.17259369
 H     17  14   3     1.094465523081   109.87001624   283.91065690
 H     20  17  14     1.094952852592   109.50797599    76.39555392
 H     20  17  14     1.091662821498   107.50289791   191.41833857

---------------------------
INTERNAL COORDINATES (A.U.)
---------------------------
 C      0   0   0     0.000000000000     0.00000000     0.00000000
 N      1   0   0     2.820643786551     0.00000000     0.00000000
 C      1   2   0     2.886124235400   113.85364860     0.00000000
 C      2   1   3     7.906179186217   103.56450803    41.65278983
 S      4   2   1     3.415737323043    45.29229929   171.88188071
 H      2   1   3     1.943144300000   115.86869106   341.16570027
 H      2   1   3     1.943157490000   112.43314417   215.56454340
 H      2   1   3     1.941472360000   113.22232162    92.88232079
 O      5   4   2     2.706405051817   106.56210639   179.65209807
 O      5   4   2     2.788214717047   105.16679956    58.10432916
 H      1   2   3     2.058313385376   106.51329602   237.05832219
 H      1   2   3     2.058784259779   107.96192227   121.80372268
 O      5   4   2     2.794917561719   106.30903041   301.84106447
 C      3   1   2     2.893973630936   116.24922617   314.06375280
 H      3   1   2     2.067268478568   105.82537570   190.90535411
 H      3   1   2     2.066745897609   108.88497077    77.12130327
 C     14   3   1     2.885356836490   114.81550265   310.61575984
 H     14   3   1     2.065917692557   108.00289044   187.26461446
 H     14   3   1     2.060438049985   108.17526248    73.28183800
 C     17  14   3     2.895926869558   115.06540973   161.03160049
 H      4   2   1     2.060815698807    96.74735693   275.60637407
 H      4   2   1     2.058444860785   146.60189605   139.64586714
 H     17  14   3     2.059388552715   110.28956843    40.17259369
 H     17  14   3     2.068240101641   109.87001624   283.91065690
 H     20  17  14     2.069161020955   109.50797599    76.39555392
 H     20  17  14     2.062943763215   107.50289791   191.41833857

---------------------
BASIS SET INFORMATION
---------------------
There are 5 groups of distinct atoms

 Group   1 Type C   : 12s6p3d1f contracted to 6s3p3d1f pattern {621111/411/111/1}
 Group   2 Type N   : 12s6p3d1f contracted to 6s3p3d1f pattern {621111/411/111/1}
 Group   3 Type S   : 15s10p4d1f contracted to 6s6p3d1f pattern {732111/511111/211/1}
 Group   4 Type H   : 5s2p contracted to 3s2p pattern {311/11}
 Group   5 Type O   : 12s7p3d1f contracted to 6s4p3d1f pattern {621111/4111/111/1}

Atom   0C    basis set group =>   1
Atom   1N    basis set group =>   2
Atom   2C    basis set group =>   1
Atom   3C    basis set group =>   1
Atom   4S    basis set group =>   3
Atom   5H    basis set group =>   4
Atom   6H    basis set group =>   4
Atom   7H    basis set group =>   4
Atom   8O    basis set group =>   5
Atom   9O    basis set group =>   5
Atom  10H    basis set group =>   4
Atom  11H    basis set group =>   4
Atom  12O    basis set group =>   5
Atom  13C    basis set group =>   1
Atom  14H    basis set group =>   4
Atom  15H    basis set group =>   4
Atom  16C    basis set group =>   1
Atom  17H    basis set group =>   4
Atom  18H    basis set group =>   4
Atom  19C    basis set group =>   1
Atom  20H    basis set group =>   4
Atom  21H    basis set group =>   4
Atom  22H    basis set group =>   4
Atom  23H    basis set group =>   4
Atom  24H    basis set group =>   4
Atom  25H    basis set group =>   4
---------------------------------
AUXILIARY/J BASIS SET INFORMATION
---------------------------------
There are 5 groups of distinct atoms

 Group   1 Type C   : 12s5p4d2f1g contracted to 6s4p3d1f1g pattern {711111/2111/211/2/1}
 Group   2 Type N   : 12s5p4d2f1g contracted to 6s4p3d1f1g pattern {711111/2111/211/2/1}
 Group   3 Type S   : 14s5p5d2f1g contracted to 8s4p3d1f1g pattern {71111111/2111/311/2/1}
 Group   4 Type H   : 5s2p1d contracted to 3s1p1d pattern {311/2/1}
 Group   5 Type O   : 12s5p4d2f1g contracted to 6s4p3d1f1g pattern {711111/2111/211/2/1}

Atom   0C    basis set group =>   1
Atom   1N    basis set group =>   2
Atom   2C    basis set group =>   1
Atom   3C    basis set group =>   1
Atom   4S    basis set group =>   3
Atom   5H    basis set group =>   4
Atom   6H    basis set group =>   4
Atom   7H    basis set group =>   4
Atom   8O    basis set group =>   5
Atom   9O    basis set group =>   5
Atom  10H    basis set group =>   4
Atom  11H    basis set group =>   4
Atom  12O    basis set group =>   5
Atom  13C    basis set group =>   1
Atom  14H    basis set group =>   4
Atom  15H    basis set group =>   4
Atom  16C    basis set group =>   1
Atom  17H    basis set group =>   4
Atom  18H    basis set group =>   4
Atom  19C    basis set group =>   1
Atom  20H    basis set group =>   4
Atom  21H    basis set group =>   4
Atom  22H    basis set group =>   4
Atom  23H    basis set group =>   4
Atom  24H    basis set group =>   4
Atom  25H    basis set group =>   4


           ************************************************************
           *        Program running with 4 parallel MPI-processes     *
           *              working on a common directory               *
           ************************************************************
------------------------------------------------------------------------------
                           ORCA GTO INTEGRAL CALCULATION
                           -- RI-GTO INTEGRALS CHOSEN --
------------------------------------------------------------------------------
------------------------------------------------------------------------------
                   ___                                                        
                  /   \      - P O W E R E D   B Y -                         
                 /     \                                                     
                 |  |  |   _    _      __       _____    __    __             
                 |  |  |  | |  | |    /  \     |  _  \  |  |  /  |          
                  \  \/   | |  | |   /    \    | | | |  |  | /  /          
                 / \  \   | |__| |  /  /\  \   | |_| |  |  |/  /          
                |  |  |   |  __  | /  /__\  \  |    /   |      \           
                |  |  |   | |  | | |   __   |  |    \   |  |\   \          
                \     /   | |  | | |  |  |  |  | |\  \  |  | \   \       
                 \___/    |_|  |_| |__|  |__|  |_| \__\ |__|  \__/        
                                                                              
                      - O R C A' S   B I G   F R I E N D -                    
                                      &                                       
                       - I N T E G R A L  F E E D E R -                       
                                                                              
 v1 FN, 2020, v2 2021                                                         
------------------------------------------------------------------------------


Reading SHARK input file 28Oct_TZVPD_PBE0_B_wt_wb97.SHARKINP.tmp ... ok
----------------------
SHARK INTEGRAL PACKAGE
----------------------

Number of atoms                             ...     26
Number of basis functions                   ...    560
Number of shells                            ...    224
Maximum angular momentum                    ...      3
Integral batch strategy                     ... SHARK/LIBINT Hybrid
RI-J (if used) integral strategy            ... SPLIT-RIJ (Revised 2003 algorithm where possible)
Printlevel                                  ...      1
Contraction scheme used                     ... SEGMENTED contraction
Coulomb Range Separation                    ... NOT USED
Exchange Range Separation                   ... NOT USED
Finite Nucleus Model                        ... NOT USED
Auxiliary Coulomb fitting basis             ... AVAILABLE
   # of basis functions in Aux-J            ...    706
   # of shells in Aux-J                     ...    242
   Maximum angular momentum in Aux-J        ...      4
Auxiliary J/K fitting basis                 ... NOT available
Auxiliary Correlation fitting basis         ... NOT available
Auxiliary 'external' fitting basis          ... NOT available
Integral threshold                          ...     2.500000e-11
Primitive cut-off                           ...     2.500000e-12
Primitive pair pre-selection threshold      ...     2.500000e-12

Calculating pre-screening integrals         ... done (  0.2 sec) Dimension = 224
Organizing shell pair data                  ... done (  0.2 sec)
Shell pair information
Total number of shell pairs                 ...     25200
Shell pairs after pre-screening             ...     23087
Total number of primitive shell pairs       ...     64562
Primitive shell pairs kept                  ...     45492
          la=0 lb=0:   5459 shell pairs
          la=1 lb=0:   7070 shell pairs
          la=1 lb=1:   2305 shell pairs
          la=2 lb=0:   3376 shell pairs
          la=2 lb=1:   2173 shell pairs
          la=2 lb=2:    539 shell pairs
          la=3 lb=0:   1051 shell pairs
          la=3 lb=1:    707 shell pairs
          la=3 lb=2:    346 shell pairs
          la=3 lb=3:     61 shell pairs

Calculating one electron integrals          ... done (  0.1 sec)
Calculating RI/J V-Matrix + Cholesky decomp.... done (  0.0 sec)
Calculating Nuclear repulsion               ... done (  0.0 sec) ENN=    871.992021747332 Eh

SHARK setup successfully completed in   0.6 seconds

Maximum memory used throughout the entire GTOINT-calculation: 34.4 MB


           ************************************************************
           *        Program running with 4 parallel MPI-processes     *
           *              working on a common directory               *
           ************************************************************
-------------------------------------------------------------------------------
                                 ORCA SCF
-------------------------------------------------------------------------------

------------
SCF SETTINGS
------------
Hamiltonian:
 Density Functional     Method          .... DFT(GTOs)
 Exchange Functional    Exchange        .... PBE
   PBE kappa parameter   XKappa         ....  0.804000
   PBE mue parameter    XMuePBE         ....  0.219520
 Correlation Functional Correlation     .... PBE
   PBE beta parameter  CBetaPBE         ....  0.066725
 LDA part of GGA corr.  LDAOpt          .... PW91-LDA
 Gradients option       PostSCFGGA      .... off
 Hybrid DFT is turned on
   Fraction HF Exchange ScalHFX         ....  0.250000
   Scaling of DF-GGA-X  ScalDFX         ....  0.750000
   Scaling of DF-GGA-C  ScalDFC         ....  1.000000
   Scaling of DF-LDA-C  ScalLDAC        ....  1.000000
   Perturbative correction              ....  0.000000
   Density functional embedding theory  .... OFF
   NL short-range parameter             ....  6.900000
 RI-approximation to the Coulomb term is turned on
   Number of AuxJ basis functions       .... 706
   RIJ-COSX (HFX calculated with COS-X)).... on


General Settings:
 Integral files         IntName         .... 28Oct_TZVPD_PBE0_B_wt_wb97
 Hartree-Fock type      HFTyp           .... RHF
 Total Charge           Charge          ....    0
 Multiplicity           Mult            ....    1
 Number of Electrons    NEL             ....   98
 Basis Dimension        Dim             ....  560
 Nuclear Repulsion      ENuc            ....    871.9920217473 Eh

Convergence Acceleration:
 DIIS                   CNVDIIS         .... on
   Start iteration      DIISMaxIt       ....    12
   Startup error        DIISStart       ....  0.200000
   # of expansion vecs  DIISMaxEq       ....     5
   Bias factor          DIISBfac        ....   1.050
   Max. coefficient     DIISMaxC        ....  10.000
 Trust-Rad. Augm. Hess. CNVTRAH         .... auto
   Auto Start mean grad. ratio tolernc. ....  1.125000
   Auto Start start iteration           ....    20
   Auto Start num. interpolation iter.  ....    10
   Max. Number of Micro iterations      ....    16
   Max. Number of Macro iterations      .... Maxiter - #DIIS iter
   Number of Davidson start vectors     ....     2
   Converg. threshold I  (grad. norm)   ....   1.000e-05
   Converg. threshold II (energy diff.) ....   1.000e-08
   Grad. Scal. Fac. for Micro threshold ....   0.100
   Minimum threshold for Micro iter.    ....   0.010
   NR start threshold (gradient norm)   ....   0.001
   Initial trust radius                 ....   0.400
   Minimum AH scaling param. (alpha)    ....   1.000
   Maximum AH scaling param. (alpha)    .... 1000.000
   Orbital update algorithm             .... Taylor
   White noise on init. David. guess    .... on
   Maximum white noise                  ....   0.010
   Quad. conv. algorithm                .... NR
 SOSCF                  CNVSOSCF        .... on
   Start iteration      SOSCFMaxIt      ....   150
   Startup grad/error   SOSCFStart      ....  0.003300
 Level Shifting         CNVShift        .... on
   Level shift para.    LevelShift      ....    0.2500
   Turn off err/grad.   ShiftErr        ....    0.0010
 Zerner damping         CNVZerner       .... off
 Static damping         CNVDamp         .... on
   Fraction old density DampFac         ....    0.7000
   Max. Damping (<1)    DampMax         ....    0.9800
   Min. Damping (>=0)   DampMin         ....    0.0000
   Turn off err/grad.   DampErr         ....    0.1000
 Fernandez-Rico         CNVRico         .... off

SCF Procedure:
 Maximum # iterations   MaxIter         ....   150
 SCF integral mode      SCFMode         .... Direct
   Integral package                     .... SHARK and LIBINT hybrid scheme
 Reset frequency        DirectResetFreq ....    20
 Integral Threshold     Thresh          ....  2.500e-11 Eh
 Primitive CutOff       TCut            ....  2.500e-12 Eh

Convergence Tolerance:
 Convergence Check Mode ConvCheckMode   .... Total+1el-Energy
 Convergence forced     ConvForced      .... 0
 Energy Change          TolE            ....  1.000e-08 Eh
 1-El. energy change                    ....  1.000e-05 Eh
 Orbital Gradient       TolG            ....  1.000e-05
 Orbital Rotation angle TolX            ....  1.000e-05
 DIIS Error             TolErr          ....  5.000e-07


Diagonalization of the overlap matrix:
Smallest eigenvalue                        ... 2.343e-06
Time for diagonalization                   ...    0.080 sec
Threshold for overlap eigenvalues          ... 1.000e-08
Number of eigenvalues below threshold      ... 0
Time for construction of square roots      ...    0.087 sec
Total time needed                          ...    0.171 sec

Time for model grid setup =    0.312 sec

------------------------------
INITIAL GUESS: MODEL POTENTIAL
------------------------------
Loading Hartree-Fock densities                     ... done
Calculating cut-offs                               ... done
Initializing the effective Hamiltonian             ... done
Setting up the integral package (SHARK)            ... done
Starting the Coulomb interaction                   ... done (   0.5 sec)
Reading the grid                                   ... done
Mapping shells                                     ... done
Starting the XC term evaluation                    ... done (   0.7 sec)
  promolecular density results
     # of electrons  =     97.991458138
     EX              =    -91.217107485
     EC              =     -3.404876086
     EX+EC           =    -94.621983572
Transforming the Hamiltonian                       ... done (   0.0 sec)
Diagonalizing the Hamiltonian                      ... done (   0.1 sec)
Back transforming the eigenvectors                 ... done (   0.0 sec)
Now organizing SCF variables                       ... done
                      ------------------
                      INITIAL GUESS DONE (   1.7 sec)
                      ------------------
-------------------
DFT GRID GENERATION
-------------------

General Integration Accuracy     IntAcc      ... 4.388
Radial Grid Type                 RadialGrid  ... OptM3 with GC (2021)
Angular Grid (max. ang.)         AngularGrid ... 4 (Lebedev-302)
Angular grid pruning method      GridPruning ... 4 (adaptive)
Weight generation scheme         WeightScheme... Becke
Basis function cutoff            BFCut       ... 1.0000e-11
Integration weight cutoff        WCut        ... 1.0000e-14
Angular grids for H and He will be reduced by one unit
Partially contracted basis set               ... off
Rotationally invariant grid construction     ... off

Total number of grid points                  ...   119660
Total number of batches                      ...     1884
Average number of points per batch           ...       63
Average number of grid points per atom       ...     4602
Time for grid setup =    1.143 sec

--------------------
COSX GRID GENERATION
--------------------

GRIDX 1
-------
General Integration Accuracy     IntAcc      ... 3.816
Radial Grid Type                 RadialGrid  ... OptM3 with GC (2021)
Angular Grid (max. ang.)         AngularGrid ... 1 (Lebedev-50)
Angular grid pruning method      GridPruning ... 4 (adaptive)
Weight generation scheme         WeightScheme... Becke
Basis function cutoff            BFCut       ... 1.0000e-11
Integration weight cutoff        WCut        ... 1.0000e-14
Angular grids for H and He will be reduced by one unit
Partially contracted basis set               ... on
Rotationally invariant grid construction     ... off

Total number of grid points                  ...    14892
Total number of batches                      ...      245
Average number of points per batch           ...       60
Average number of grid points per atom       ...      573
UseSFitting                                  ... on

GRIDX 2
-------
General Integration Accuracy     IntAcc      ... 4.020
Radial Grid Type                 RadialGrid  ... OptM3 with GC (2021)
Angular Grid (max. ang.)         AngularGrid ... 2 (Lebedev-110)
Angular grid pruning method      GridPruning ... 4 (adaptive)
Weight generation scheme         WeightScheme... Becke
Basis function cutoff            BFCut       ... 1.0000e-11
Integration weight cutoff        WCut        ... 1.0000e-14
Angular grids for H and He will be reduced by one unit
Partially contracted basis set               ... on
Rotationally invariant grid construction     ... off

Total number of grid points                  ...    34527
Total number of batches                      ...      554
Average number of points per batch           ...       62
Average number of grid points per atom       ...     1328
UseSFitting                                  ... on

GRIDX 3
-------
General Integration Accuracy     IntAcc      ... 4.338
Radial Grid Type                 RadialGrid  ... OptM3 with GC (2021)
Angular Grid (max. ang.)         AngularGrid ... 3 (Lebedev-194)
Angular grid pruning method      GridPruning ... 4 (adaptive)
Weight generation scheme         WeightScheme... Becke
Basis function cutoff            BFCut       ... 1.0000e-11
Integration weight cutoff        WCut        ... 1.0000e-14
Angular grids for H and He will be reduced by one unit
Partially contracted basis set               ... on
Rotationally invariant grid construction     ... off

Total number of grid points                  ...    77360
Total number of batches                      ...     1222
Average number of points per batch           ...       63
Average number of grid points per atom       ...     2975
UseSFitting                                  ... on

Time for X-Grid setup             =    1.842 sec

--------------
SCF ITERATIONS
--------------
ITER       Energy         Delta-E        Max-DP      RMS-DP      [F,P]     Damp
               ***  Starting incremental Fock matrix formation  ***
  0   -915.3340248318   0.000000000000 0.11183556  0.00134936  0.2921292 0.7000
  1   -915.5494556517  -0.215430819869 0.04246946  0.00091602  0.1208647 0.7000
                               ***Turning on DIIS***
  2   -915.6300539156  -0.080598263933 0.17249746  0.00179964  0.0342995 0.0000
  3   -915.7623925175  -0.132338601886 0.05458504  0.00060632  0.0662823 0.0000
  4   -915.7891444887  -0.026751971188 0.01897296  0.00022307  0.0119462 0.0000
  5   -915.7903206805  -0.001176191771 0.00538243  0.00007847  0.0058557 0.0000
                      *** Initiating the SOSCF procedure ***
                           *** Shutting down DIIS ***
                      *** Re-Reading the Fockian *** 
                      *** Removing any level shift *** 
ITER      Energy       Delta-E        Grad      Rot      Max-DP    RMS-DP
  6   -915.79046172  -0.0001410386  0.000187  0.000187  0.004206  0.000045
               *** Restarting incremental Fock matrix formation ***
  7   -915.79046385  -0.0000021340  0.000116  0.000293  0.002594  0.000039
  8   -915.79046105   0.0000028037  0.000213  0.000194  0.000455  0.000008
  9   -915.79046561  -0.0000045600  0.000017  0.000030  0.001246  0.000007
 10   -915.79046555   0.0000000595  0.000026  0.000020  0.000483  0.000003
                  ***Gradient check signals convergence***
              ***Rediagonalizing the Fockian in SOSCF/NRSCF***

               *****************************************************
               *                     SUCCESS                       *
               *           SCF CONVERGED AFTER  11 CYCLES          *
               *****************************************************

Old exchange energy                            =    -23.257123655 Eh
New exchange energy                            =    -23.257161031 Eh
Exchange energy change after final integration =     -0.000037376 Eh
Total energy after final integration           =   -915.790503051 Eh
Final COS-X integration done in                =    33.665 sec

----------------
TOTAL SCF ENERGY
----------------

Total Energy       :         -915.79050305 Eh          -24919.92649 eV

Components:
Nuclear Repulsion  :          871.99202175 Eh           23728.10923 eV
Electronic Energy  :        -1787.78252480 Eh          -48648.03572 eV
One Electron Energy:        -2988.74828505 Eh          -81327.97547 eV
Two Electron Energy:         1200.96576026 Eh           32679.93975 eV
Max COSX asymmetry :            0.00000282 Eh               0.00008 eV

Virial components:
Potential Energy   :        -1828.60084307 Eh          -49758.75863 eV
Kinetic Energy     :          912.81034002 Eh           24838.83213 eV
Virial Ratio       :            2.00326482


DFT components:
N(Alpha)           :       48.999945920875 electrons
N(Beta)            :       48.999945920875 electrons
N(Total)           :       97.999891841750 electrons
E(X)               :      -69.529085479434 Eh       
E(C)               :       -3.399142208631 Eh       
E(XC)              :      -72.928227688064 Eh       
DFET-embed. en.    :        0.000000000000 Eh       

---------------
SCF CONVERGENCE
---------------

  Last Energy change         ...   -1.2527e-07  Tolerance :   1.0000e-08
  Last MAX-Density change    ...    1.9984e-15  Tolerance :   1.0000e-07
  Last RMS-Density change    ...    1.7060e-17  Tolerance :   5.0000e-09
  Last Orbital Gradient      ...    2.2401e-06  Tolerance :   1.0000e-05
  Last Orbital Rotation      ...    2.5631e-06  Tolerance :   1.0000e-05

             **** THE GBW FILE WAS UPDATED (28Oct_TZVPD_PBE0_B_wt_wb97.gbw) ****
             **** DENSITY 28Oct_TZVPD_PBE0_B_wt_wb97.scfp WAS UPDATED ****
             **** ENERGY FILE WAS UPDATED (28Oct_TZVPD_PBE0_B_wt_wb97.en.tmp) ****
             **** THE GBW FILE WAS UPDATED (28Oct_TZVPD_PBE0_B_wt_wb97.gbw) ****
             **** DENSITY 28Oct_TZVPD_PBE0_B_wt_wb97.scfp WAS UPDATED ****
----------------
ORBITAL ENERGIES
----------------

  NO   OCC          E(Eh)            E(eV) 
   0   2.0000     -89.171235     -2426.4727 
   1   2.0000     -19.162326      -521.4334 
   2   2.0000     -19.158347      -521.3251 
   3   2.0000     -19.146333      -520.9982 
   4   2.0000     -14.489944      -394.2914 
   5   2.0000     -10.309247      -280.5289 
   6   2.0000     -10.256624      -279.0969 
   7   2.0000     -10.230893      -278.3967 
   8   2.0000     -10.227783      -278.3121 
   9   2.0000     -10.226286      -278.2714 
  10   2.0000     -10.224954      -278.2351 
  11   2.0000      -8.117596      -220.8910 
  12   2.0000      -6.054734      -164.7577 
  13   2.0000      -6.054228      -164.7439 
  14   2.0000      -6.052858      -164.7066 
  15   2.0000      -1.125075       -30.6148 
  16   2.0000      -1.033486       -28.1226 
  17   2.0000      -0.987519       -26.8717 
  18   2.0000      -0.984388       -26.7865 
  19   2.0000      -0.856077       -23.2950 
  20   2.0000      -0.815133       -22.1809 
  21   2.0000      -0.764057       -20.7910 
  22   2.0000      -0.711810       -19.3693 
  23   2.0000      -0.656999       -17.8778 
  24   2.0000      -0.616530       -16.7766 
  25   2.0000      -0.605418       -16.4743 
  26   2.0000      -0.590594       -16.0709 
  27   2.0000      -0.556534       -15.1441 
  28   2.0000      -0.527815       -14.3626 
  29   2.0000      -0.504217       -13.7204 
  30   2.0000      -0.498528       -13.5656 
  31   2.0000      -0.483658       -13.1610 
  32   2.0000      -0.463055       -12.6004 
  33   2.0000      -0.455923       -12.4063 
  34   2.0000      -0.446645       -12.1538 
  35   2.0000      -0.434270       -11.8171 
  36   2.0000      -0.432184       -11.7603 
  37   2.0000      -0.400838       -10.9074 
  38   2.0000      -0.389260       -10.5923 
  39   2.0000      -0.385148       -10.4804 
  40   2.0000      -0.358471        -9.7545 
  41   2.0000      -0.351100        -9.5539 
  42   2.0000      -0.345334        -9.3970 
  43   2.0000      -0.336033        -9.1439 
  44   2.0000      -0.331532        -9.0214 
  45   2.0000      -0.295295        -8.0354 
  46   2.0000      -0.289232        -7.8704 
  47   2.0000      -0.281086        -7.6488 
  48   2.0000      -0.258345        -7.0299 
  49   0.0000      -0.023391        -0.6365 
  50   0.0000       0.007678         0.2089 
  51   0.0000       0.012999         0.3537 
  52   0.0000       0.017666         0.4807 
  53   0.0000       0.035914         0.9773 
  54   0.0000       0.037222         1.0129 
  55   0.0000       0.044331         1.2063 
  56   0.0000       0.052838         1.4378 
  57   0.0000       0.057952         1.5769 
  58   0.0000       0.070803         1.9267 
  59   0.0000       0.074824         2.0361 
  60   0.0000       0.077270         2.1026 
  61   0.0000       0.087689         2.3861 
  62   0.0000       0.088943         2.4203 
  63   0.0000       0.094191         2.5631 
  64   0.0000       0.101473         2.7612 
  65   0.0000       0.107388         2.9222 
  66   0.0000       0.115085         3.1316 
  67   0.0000       0.116958         3.1826 
  68   0.0000       0.124622         3.3911 
  69   0.0000       0.132808         3.6139 
  70   0.0000       0.134761         3.6670 
  71   0.0000       0.138406         3.7662 
  72   0.0000       0.144613         3.9351 
  73   0.0000       0.146493         3.9863 
  74   0.0000       0.151354         4.1186 
  75   0.0000       0.152580         4.1519 
  76   0.0000       0.157095         4.2748 
  77   0.0000       0.163684         4.4541 
  78   0.0000       0.168282         4.5792 
  79   0.0000       0.174560         4.7500 
  80   0.0000       0.176070         4.7911 
  81   0.0000       0.182968         4.9788 
  82   0.0000       0.185160         5.0385 
  83   0.0000       0.189985         5.1697 
  84   0.0000       0.191429         5.2091 
  85   0.0000       0.193819         5.2741 
  86   0.0000       0.197801         5.3824 
  87   0.0000       0.202432         5.5085 
  88   0.0000       0.203888         5.5481 
  89   0.0000       0.208072         5.6619 
  90   0.0000       0.212600         5.7851 
  91   0.0000       0.214012         5.8236 
  92   0.0000       0.222358         6.0507 
  93   0.0000       0.225888         6.1467 
  94   0.0000       0.227547         6.1919 
  95   0.0000       0.233353         6.3499 
  96   0.0000       0.236931         6.4472 
  97   0.0000       0.238806         6.4982 
  98   0.0000       0.245925         6.6920 
  99   0.0000       0.251691         6.8489 
 100   0.0000       0.262033         7.1303 
 101   0.0000       0.263331         7.1656 
 102   0.0000       0.267382         7.2758 
 103   0.0000       0.272668         7.4197 
 104   0.0000       0.276856         7.5336 
 105   0.0000       0.283235         7.7072 
 106   0.0000       0.287897         7.8341 
 107   0.0000       0.290600         7.9076 
 108   0.0000       0.295479         8.0404 
 109   0.0000       0.297061         8.0834 
 110   0.0000       0.298612         8.1256 
 111   0.0000       0.301645         8.2082 
 112   0.0000       0.306311         8.3352 
 113   0.0000       0.310185         8.4406 
 114   0.0000       0.315032         8.5725 
 115   0.0000       0.322965         8.7883 
 116   0.0000       0.328101         8.9281 
 117   0.0000       0.330123         8.9831 
 118   0.0000       0.335829         9.1384 
 119   0.0000       0.338013         9.1978 
 120   0.0000       0.342040         9.3074 
 121   0.0000       0.345122         9.3913 
 122   0.0000       0.345819         9.4102 
 123   0.0000       0.354560         9.6481 
 124   0.0000       0.357792         9.7360 
 125   0.0000       0.360332         9.8051 
 126   0.0000       0.362641         9.8680 
 127   0.0000       0.370362        10.0781 
 128   0.0000       0.375712        10.2236 
 129   0.0000       0.377848        10.2818 
 130   0.0000       0.384135        10.4528 
 131   0.0000       0.386428        10.5152 
 132   0.0000       0.390981        10.6391 
 133   0.0000       0.397247        10.8096 
 134   0.0000       0.401227        10.9180 
 135   0.0000       0.403678        10.9846 
 136   0.0000       0.405295        11.0286 
 137   0.0000       0.414071        11.2674 
 138   0.0000       0.419802        11.4234 
 139   0.0000       0.424870        11.5613 
 140   0.0000       0.427782        11.6405 
 141   0.0000       0.428335        11.6556 
 142   0.0000       0.434028        11.8105 
 143   0.0000       0.439558        11.9610 
 144   0.0000       0.447233        12.1698 
 145   0.0000       0.452129        12.3031 
 146   0.0000       0.455816        12.4034 
 147   0.0000       0.457528        12.4500 
 148   0.0000       0.462385        12.5821 
 149   0.0000       0.466332        12.6895 
 150   0.0000       0.471331        12.8256 
 151   0.0000       0.472942        12.8694 
 152   0.0000       0.476323        12.9614 
 153   0.0000       0.482014        13.1163 
 154   0.0000       0.485050        13.1989 
 155   0.0000       0.485763        13.2183 
 156   0.0000       0.493622        13.4321 
 157   0.0000       0.499502        13.5921 
 158   0.0000       0.502578        13.6758 
 159   0.0000       0.509804        13.8725 
 160   0.0000       0.514504        14.0004 
 161   0.0000       0.518898        14.1199 
 162   0.0000       0.524161        14.2631 
 163   0.0000       0.530388        14.4326 
 164   0.0000       0.531098        14.4519 
 165   0.0000       0.538200        14.6452 
 166   0.0000       0.545558        14.8454 
 167   0.0000       0.553896        15.0723 
 168   0.0000       0.557834        15.1794 
 169   0.0000       0.561646        15.2832 
 170   0.0000       0.568488        15.4693 
 171   0.0000       0.574089        15.6218 
 172   0.0000       0.579753        15.7759 
 173   0.0000       0.588099        16.0030 
 174   0.0000       0.596036        16.2190 
 175   0.0000       0.599170        16.3043 
 176   0.0000       0.601659        16.3720 
 177   0.0000       0.605853        16.4861 
 178   0.0000       0.610953        16.6249 
 179   0.0000       0.615765        16.7558 
 180   0.0000       0.630844        17.1661 
 181   0.0000       0.631383        17.1808 
 182   0.0000       0.634350        17.2615 
 183   0.0000       0.643164        17.5014 
 184   0.0000       0.648931        17.6583 
 185   0.0000       0.654009        17.7965 
 186   0.0000       0.656370        17.8607 
 187   0.0000       0.661507        18.0005 
 188   0.0000       0.666505        18.1365 
 189   0.0000       0.677013        18.4225 
 190   0.0000       0.679883        18.5006 
 191   0.0000       0.683194        18.5907 
 192   0.0000       0.686819        18.6893 
 193   0.0000       0.691937        18.8286 
 194   0.0000       0.700587        19.0639 
 195   0.0000       0.702303        19.1106 
 196   0.0000       0.710456        19.3325 
 197   0.0000       0.712879        19.3984 
 198   0.0000       0.714784        19.4503 
 199   0.0000       0.719641        19.5824 
 200   0.0000       0.729410        19.8482 
 201   0.0000       0.736301        20.0358 
 202   0.0000       0.742605        20.2073 
 203   0.0000       0.745946        20.2982 
 204   0.0000       0.750922        20.4336 
 205   0.0000       0.755754        20.5651 
 206   0.0000       0.760742        20.7009 
 207   0.0000       0.765555        20.8318 
 208   0.0000       0.769380        20.9359 
 209   0.0000       0.779504        21.2114 
 210   0.0000       0.783264        21.3137 
 211   0.0000       0.785989        21.3878 
 212   0.0000       0.793897        21.6030 
 213   0.0000       0.794423        21.6173 
 214   0.0000       0.804605        21.8944 
 215   0.0000       0.807467        21.9723 
 216   0.0000       0.809423        22.0255 
 217   0.0000       0.822712        22.3871 
 218   0.0000       0.829801        22.5800 
 219   0.0000       0.836225        22.7548 
 220   0.0000       0.839981        22.8570 
 221   0.0000       0.849215        23.1083 
 222   0.0000       0.851010        23.1572 
 223   0.0000       0.864131        23.5142 
 224   0.0000       0.867155        23.5965 
 225   0.0000       0.870593        23.6900 
 226   0.0000       0.881965        23.9995 
 227   0.0000       0.886599        24.1256 
 228   0.0000       0.895057        24.3557 
 229   0.0000       0.899688        24.4817 
 230   0.0000       0.907772        24.7017 
 231   0.0000       0.919958        25.0333 
 232   0.0000       0.923630        25.1333 
 233   0.0000       0.926659        25.2157 
 234   0.0000       0.937306        25.5054 
 235   0.0000       0.941716        25.6254 
 236   0.0000       0.951134        25.8817 
 237   0.0000       0.955320        25.9956 
 238   0.0000       0.961723        26.1698 
 239   0.0000       0.973515        26.4907 
 240   0.0000       0.980068        26.6690 
 241   0.0000       0.985870        26.8269 
 242   0.0000       0.989880        26.9360 
 243   0.0000       0.999849        27.2073 
 244   0.0000       1.013514        27.5791 
 245   0.0000       1.017931        27.6993 
 246   0.0000       1.028606        27.9898 
 247   0.0000       1.033733        28.1293 
 248   0.0000       1.049960        28.5709 
 249   0.0000       1.062561        28.9138 
 250   0.0000       1.069402        29.0999 
 251   0.0000       1.074191        29.2302 
 252   0.0000       1.097217        29.8568 
 253   0.0000       1.102748        30.0073 
 254   0.0000       1.106190        30.1010 
 255   0.0000       1.118689        30.4411 
 256   0.0000       1.135120        30.8882 
 257   0.0000       1.139781        31.0150 
 258   0.0000       1.159048        31.5393 
 259   0.0000       1.171320        31.8732 
 260   0.0000       1.183001        32.1911 
 261   0.0000       1.193005        32.4633 
 262   0.0000       1.198036        32.6002 
 263   0.0000       1.215843        33.0848 
 264   0.0000       1.220779        33.2191 
 265   0.0000       1.243087        33.8261 
 266   0.0000       1.252650        34.0864 
 267   0.0000       1.264286        34.4030 
 268   0.0000       1.275226        34.7007 
 269   0.0000       1.295662        35.2568 
 270   0.0000       1.310845        35.6699 
 271   0.0000       1.317215        35.8432 
 272   0.0000       1.334787        36.3214 
 273   0.0000       1.341817        36.5127 
 274   0.0000       1.353540        36.8317 
 275   0.0000       1.357449        36.9381 
 276   0.0000       1.371971        37.3332 
 277   0.0000       1.383057        37.6349 
 278   0.0000       1.390921        37.8489 
 279   0.0000       1.411787        38.4167 
 280   0.0000       1.421246        38.6741 
 281   0.0000       1.437334        39.1119 
 282   0.0000       1.448701        39.4212 
 283   0.0000       1.467106        39.9220 
 284   0.0000       1.476755        40.1845 
 285   0.0000       1.482923        40.3524 
 286   0.0000       1.485468        40.4216 
 287   0.0000       1.507920        41.0326 
 288   0.0000       1.528445        41.5911 
 289   0.0000       1.550243        42.1842 
 290   0.0000       1.563470        42.5442 
 291   0.0000       1.604044        43.6483 
 292   0.0000       1.617683        44.0194 
 293   0.0000       1.633227        44.4424 
 294   0.0000       1.648667        44.8625 
 295   0.0000       1.658419        45.1279 
 296   0.0000       1.665691        45.3257 
 297   0.0000       1.685800        45.8729 
 298   0.0000       1.702150        46.3179 
 299   0.0000       1.727111        46.9971 
 300   0.0000       1.740177        47.3526 
 301   0.0000       1.767559        48.0977 
 302   0.0000       1.777061        48.3563 
 303   0.0000       1.788010        48.6542 
 304   0.0000       1.794317        48.8258 
 305   0.0000       1.821914        49.5768 
 306   0.0000       1.830841        49.8197 
 307   0.0000       1.835483        49.9460 
 308   0.0000       1.850257        50.3481 
 309   0.0000       1.853429        50.4344 
 310   0.0000       1.860878        50.6371 
 311   0.0000       1.865607        50.7657 
 312   0.0000       1.882925        51.2370 
 313   0.0000       1.886947        51.3464 
 314   0.0000       1.899523        51.6886 
 315   0.0000       1.911870        52.0246 
 316   0.0000       1.915418        52.1212 
 317   0.0000       1.930317        52.5266 
 318   0.0000       1.943281        52.8794 
 319   0.0000       1.948735        53.0278 
 320   0.0000       1.957978        53.2793 
 321   0.0000       1.964880        53.4671 
 322   0.0000       1.968054        53.5535 
 323   0.0000       1.980371        53.8886 
 324   0.0000       1.998148        54.3724 
 325   0.0000       2.003158        54.5087 
 326   0.0000       2.011249        54.7289 
 327   0.0000       2.018510        54.9265 
 328   0.0000       2.051838        55.8334 
 329   0.0000       2.056095        55.9492 
 330   0.0000       2.071643        56.3723 
 331   0.0000       2.079983        56.5992 
 332   0.0000       2.086203        56.7685 
 333   0.0000       2.094923        57.0057 
 334   0.0000       2.106397        57.3180 
 335   0.0000       2.128250        57.9126 
 336   0.0000       2.149868        58.5009 
 337   0.0000       2.163092        58.8607 
 338   0.0000       2.175903        59.2093 
 339   0.0000       2.183744        59.4227 
 340   0.0000       2.210877        60.1610 
 341   0.0000       2.232582        60.7517 
 342   0.0000       2.233737        60.7831 
 343   0.0000       2.245217        61.0955 
 344   0.0000       2.260556        61.5129 
 345   0.0000       2.265490        61.6471 
 346   0.0000       2.272245        61.8309 
 347   0.0000       2.292717        62.3880 
 348   0.0000       2.320091        63.1329 
 349   0.0000       2.334144        63.5153 
 350   0.0000       2.352901        64.0257 
 351   0.0000       2.357365        64.1472 
 352   0.0000       2.383118        64.8479 
 353   0.0000       2.410273        65.5869 
 354   0.0000       2.435395        66.2705 
 355   0.0000       2.453059        66.7511 
 356   0.0000       2.459250        66.9196 
 357   0.0000       2.479390        67.4676 
 358   0.0000       2.492399        67.8216 
 359   0.0000       2.510972        68.3270 
 360   0.0000       2.528148        68.7944 
 361   0.0000       2.538741        69.0827 
 362   0.0000       2.556054        69.5538 
 363   0.0000       2.564479        69.7830 
 364   0.0000       2.575751        70.0898 
 365   0.0000       2.587841        70.4187 
 366   0.0000       2.599357        70.7321 
 367   0.0000       2.613165        71.1078 
 368   0.0000       2.621420        71.3325 
 369   0.0000       2.629139        71.5425 
 370   0.0000       2.634517        71.6889 
 371   0.0000       2.657693        72.3195 
 372   0.0000       2.660496        72.3958 
 373   0.0000       2.678505        72.8858 
 374   0.0000       2.687730        73.1368 
 375   0.0000       2.700268        73.4780 
 376   0.0000       2.704010        73.5798 
 377   0.0000       2.708700        73.7075 
 378   0.0000       2.726532        74.1927 
 379   0.0000       2.732720        74.3611 
 380   0.0000       2.745574        74.7109 
 381   0.0000       2.760742        75.1236 
 382   0.0000       2.763315        75.1936 
 383   0.0000       2.780657        75.6655 
 384   0.0000       2.784676        75.7749 
 385   0.0000       2.795518        76.0699 
 386   0.0000       2.809650        76.4545 
 387   0.0000       2.811381        76.5016 
 388   0.0000       2.826281        76.9070 
 389   0.0000       2.831584        77.0513 
 390   0.0000       2.844490        77.4025 
 391   0.0000       2.859376        77.8076 
 392   0.0000       2.863275        77.9137 
 393   0.0000       2.885016        78.5053 
 394   0.0000       2.894777        78.7709 
 395   0.0000       2.906996        79.1034 
 396   0.0000       2.923410        79.5500 
 397   0.0000       2.946276        80.1723 
 398   0.0000       2.948270        80.2265 
 399   0.0000       2.956865        80.4604 
 400   0.0000       2.973960        80.9256 
 401   0.0000       2.988135        81.3113 
 402   0.0000       3.019322        82.1599 
 403   0.0000       3.025782        82.3357 
 404   0.0000       3.045572        82.8742 
 405   0.0000       3.061257        83.3010 
 406   0.0000       3.088318        84.0374 
 407   0.0000       3.106956        84.5446 
 408   0.0000       3.120553        84.9146 
 409   0.0000       3.128019        85.1177 
 410   0.0000       3.147508        85.6481 
 411   0.0000       3.158800        85.9553 
 412   0.0000       3.170313        86.2686 
 413   0.0000       3.198029        87.0228 
 414   0.0000       3.220255        87.6276 
 415   0.0000       3.234825        88.0241 
 416   0.0000       3.257948        88.6533 
 417   0.0000       3.272778        89.0568 
 418   0.0000       3.288469        89.4838 
 419   0.0000       3.304723        89.9261 
 420   0.0000       3.310079        90.0718 
 421   0.0000       3.317081        90.2624 
 422   0.0000       3.345234        91.0284 
 423   0.0000       3.355643        91.3117 
 424   0.0000       3.356753        91.3419 
 425   0.0000       3.361638        91.4748 
 426   0.0000       3.383384        92.0665 
 427   0.0000       3.393666        92.3464 
 428   0.0000       3.418534        93.0230 
 429   0.0000       3.428877        93.3045 
 430   0.0000       3.431092        93.3648 
 431   0.0000       3.437841        93.5484 
 432   0.0000       3.458637        94.1143 
 433   0.0000       3.465019        94.2880 
 434   0.0000       3.478124        94.6446 
 435   0.0000       3.492732        95.0421 
 436   0.0000       3.499552        95.2277 
 437   0.0000       3.516967        95.7015 
 438   0.0000       3.524824        95.9153 
 439   0.0000       3.535531        96.2067 
 440   0.0000       3.546833        96.5142 
 441   0.0000       3.555594        96.7526 
 442   0.0000       3.575049        97.2820 
 443   0.0000       3.580376        97.4270 
 444   0.0000       3.597227        97.8855 
 445   0.0000       3.602910        98.0402 
 446   0.0000       3.628818        98.7451 
 447   0.0000       3.651851        99.3719 
 448   0.0000       3.667717        99.8036 
 449   0.0000       3.679270       100.1180 
 450   0.0000       3.698745       100.6480 
 451   0.0000       3.713141       101.0397 
 452   0.0000       3.723423       101.3195 
 453   0.0000       3.743518       101.8663 
 454   0.0000       3.770711       102.6063 
 455   0.0000       3.774453       102.7081 
 456   0.0000       3.816884       103.8627 
 457   0.0000       3.852527       104.8326 
 458   0.0000       3.869704       105.3000 
 459   0.0000       3.884489       105.7023 
 460   0.0000       3.901248       106.1584 
 461   0.0000       3.905431       106.2722 
 462   0.0000       3.935483       107.0899 
 463   0.0000       3.957821       107.6978 
 464   0.0000       3.998738       108.8112 
 465   0.0000       4.021623       109.4339 
 466   0.0000       4.030594       109.6780 
 467   0.0000       4.049188       110.1840 
 468   0.0000       4.084731       111.1512 
 469   0.0000       4.101774       111.6149 
 470   0.0000       4.117470       112.0421 
 471   0.0000       4.142664       112.7276 
 472   0.0000       4.165078       113.3375 
 473   0.0000       4.191143       114.0468 
 474   0.0000       4.214645       114.6863 
 475   0.0000       4.233352       115.1954 
 476   0.0000       4.263354       116.0118 
 477   0.0000       4.301417       117.0475 
 478   0.0000       4.331888       117.8767 
 479   0.0000       4.355260       118.5127 
 480   0.0000       4.380793       119.2074 
 481   0.0000       4.424905       120.4078 
 482   0.0000       4.462731       121.4371 
 483   0.0000       4.484731       122.0357 
 484   0.0000       4.539227       123.5186 
 485   0.0000       4.553498       123.9070 
 486   0.0000       4.587962       124.8448 
 487   0.0000       4.624727       125.8452 
 488   0.0000       4.675751       127.2336 
 489   0.0000       4.689494       127.6076 
 490   0.0000       4.713798       128.2690 
 491   0.0000       4.796232       130.5121 
 492   0.0000       4.814367       131.0056 
 493   0.0000       4.836120       131.5975 
 494   0.0000       4.880501       132.8052 
 495   0.0000       4.897486       133.2674 
 496   0.0000       4.920762       133.9007 
 497   0.0000       4.957883       134.9109 
 498   0.0000       5.003036       136.1395 
 499   0.0000       5.006989       136.2471 
 500   0.0000       5.063897       137.7956 
 501   0.0000       5.103525       138.8740 
 502   0.0000       5.150075       140.1407 
 503   0.0000       5.163564       140.5077 
 504   0.0000       5.186803       141.1401 
 505   0.0000       5.198897       141.4692 
 506   0.0000       5.213779       141.8741 
 507   0.0000       5.223532       142.1395 
 508   0.0000       5.240036       142.5886 
 509   0.0000       5.253123       142.9447 
 510   0.0000       5.268603       143.3660 
 511   0.0000       5.281574       143.7189 
 512   0.0000       5.309587       144.4812 
 513   0.0000       5.317292       144.6909 
 514   0.0000       5.342218       145.3691 
 515   0.0000       5.376012       146.2887 
 516   0.0000       5.396452       146.8449 
 517   0.0000       5.430223       147.7639 
 518   0.0000       5.457560       148.5078 
 519   0.0000       5.483934       149.2254 
 520   0.0000       5.495175       149.5313 
 521   0.0000       5.547235       150.9479 
 522   0.0000       5.595644       152.2652 
 523   0.0000       5.634185       153.3140 
 524   0.0000       5.681674       154.6062 
 525   0.0000       5.729026       155.8947 
 526   0.0000       5.768812       156.9773 
 527   0.0000       5.794928       157.6880 
 528   0.0000       5.832046       158.6980 
 529   0.0000       5.952316       161.9707 
 530   0.0000       5.977719       162.6620 
 531   0.0000       6.554086       178.3457 
 532   0.0000       6.569707       178.7708 
 533   0.0000       6.588143       179.2725 
 534   0.0000       6.658785       181.1947 
 535   0.0000       6.684585       181.8968 
 536   0.0000       6.794009       184.8744 
 537   0.0000       6.827916       185.7970 
 538   0.0000       6.873924       187.0490 
 539   0.0000       6.895052       187.6239 
 540   0.0000       6.902672       187.8312 
 541   0.0000       7.075630       192.5377 
 542   0.0000       7.141991       194.3435 
 543   0.0000       7.148345       194.5163 
 544   0.0000       7.213781       196.2970 
 545   0.0000       7.255185       197.4236 
 546   0.0000       9.651780       262.6383 
 547   0.0000       9.844987       267.8957 
 548   0.0000       9.967887       271.2400 
 549   0.0000      22.671768       616.9302 
 550   0.0000      22.746217       618.9560 
 551   0.0000      22.802730       620.4938 
 552   0.0000      22.805591       620.5717 
 553   0.0000      22.915290       623.5567 
 554   0.0000      22.990740       625.6098 
 555   0.0000      23.192221       631.0924 
 556   0.0000      32.559352       885.9850 
 557   0.0000      44.346181      1206.7209 
 558   0.0000      44.373642      1207.4682 
 559   0.0000      44.410527      1208.4719 

                    ********************************
                    * MULLIKEN POPULATION ANALYSIS *
                    ********************************

-----------------------
MULLIKEN ATOMIC CHARGES
-----------------------
   0 C :   -0.542282
   1 N :   -0.032153
   2 C :   -0.213467
   3 C :   -0.568741
   4 S :    1.166618
   5 H :    0.323658
   6 H :    0.321362
   7 H :    0.232124
   8 O :   -0.595475
   9 O :   -0.818610
  10 H :    0.286273
  11 H :    0.146248
  12 O :   -0.832482
  13 C :   -0.331218
  14 H :    0.144535
  15 H :    0.165000
  16 C :   -0.152862
  17 H :    0.144677
  18 H :    0.314931
  19 C :   -0.297979
  20 H :    0.327224
  21 H :    0.133504
  22 H :    0.236431
  23 H :    0.138938
  24 H :    0.124265
  25 H :    0.179483
Sum of atomic charges:    0.0000000

--------------------------------
MULLIKEN REDUCED ORBITAL CHARGES
--------------------------------
  0 C s       :     3.338863  s :     3.338863
      pz      :     1.126917  p :     3.073108
      px      :     0.799033
      py      :     1.147158
      dz2     :     0.050085  d :     0.122859
      dxz     :     0.023984
      dyz     :    -0.012791
      dx2y2   :     0.055411
      dxy     :     0.006171
      f0      :     0.000583  f :     0.007451
      f+1     :     0.001569
      f-1     :     0.000664
      f+2     :     0.001489
      f-2     :     0.000679
      f+3     :     0.001001
      f-3     :     0.001465
  1 N s       :     3.235837  s :     3.235837
      pz      :     1.313439  p :     3.718015
      px      :     1.166261
      py      :     1.238315
      dz2     :     0.010154  d :     0.076502
      dxz     :     0.017649
      dyz     :     0.006704
      dx2y2   :     0.011815
      dxy     :     0.030180
      f0      :     0.000416  f :     0.001799
      f+1     :     0.000228
      f-1     :     0.000097
      f+2     :     0.000156
      f-2     :     0.000140
      f+3     :     0.000520
      f-3     :     0.000241
  2 C s       :     3.007691  s :     3.007691
      pz      :     0.988618  p :     3.126186
      px      :     1.022898
      py      :     1.114669
      dz2     :    -0.022277  d :     0.074159
      dxz     :     0.009269
      dyz     :     0.057656
      dx2y2   :     0.027336
      dxy     :     0.002176
      f0      :     0.000272  f :     0.005431
      f+1     :     0.000554
      f-1     :     0.000869
      f+2     :     0.001545
      f-2     :     0.000672
      f+3     :     0.000983
      f-3     :     0.000536
  3 C s       :     3.228664  s :     3.228664
      pz      :     1.078466  p :     3.194060
      px      :     1.079647
      py      :     1.035947
      dz2     :    -0.001848  d :     0.141440
      dxz     :     0.035251
      dyz     :    -0.015630
      dx2y2   :     0.064379
      dxy     :     0.059287
      f0      :     0.000443  f :     0.004578
      f+1     :     0.001211
      f-1     :     0.000401
      f+2     :     0.000337
      f-2     :     0.000832
      f+3     :     0.000781
      f-3     :     0.000572
  4 S s       :     5.402842  s :     5.402842
      pz      :     2.621207  p :     8.030537
      px      :     2.734208
      py      :     2.675122
      dz2     :     0.298681  d :     1.279481
      dxz     :     0.258249
      dyz     :     0.240334
      dx2y2   :     0.182020
      dxy     :     0.300197
      f0      :     0.014730  f :     0.120522
      f+1     :     0.023485
      f-1     :     0.025135
      f+2     :     0.013803
      f-2     :     0.015499
      f+3     :     0.016792
      f-3     :     0.011078
  5 H s       :     0.638740  s :     0.638740
      pz      :     0.019022  p :     0.037602
      px      :     0.006016
      py      :     0.012564
  6 H s       :     0.663330  s :     0.663330
      pz      :     0.007432  p :     0.015308
      px      :     0.002762
      py      :     0.005115
  7 H s       :     0.704326  s :     0.704326
      pz      :     0.001301  p :     0.063549
      px      :     0.025758
      py      :     0.036490
  8 O s       :     3.903014  s :     3.903014
      pz      :     1.649349  p :     4.643986
      px      :     1.386376
      py      :     1.608261
      dz2     :     0.005620  d :     0.046429
      dxz     :     0.010467
      dyz     :     0.003902
      dx2y2   :     0.013770
      dxy     :     0.012670
      f0      :     0.000186  f :     0.002046
      f+1     :     0.000329
      f-1     :     0.000104
      f+2     :     0.000225
      f-2     :     0.000308
      f+3     :     0.000488
      f-3     :     0.000406
  9 O s       :     4.010441  s :     4.010441
      pz      :     1.617250  p :     4.771469
      px      :     1.727593
      py      :     1.426626
      dz2     :     0.002934  d :     0.034961
      dxz     :     0.005882
      dyz     :     0.007615
      dx2y2   :     0.013165
      dxy     :     0.005365
      f0      :     0.000153  f :     0.001739
      f+1     :     0.000054
      f-1     :     0.000383
      f+2     :     0.000327
      f-2     :     0.000285
      f+3     :     0.000276
      f-3     :     0.000259
 10 H s       :     0.686439  s :     0.686439
      pz      :     0.018572  p :     0.027288
      px      :     0.003458
      py      :     0.005258
 11 H s       :     0.813665  s :     0.813665
      pz      :     0.011405  p :     0.040087
      px      :     0.012693
      py      :     0.015990
 12 O s       :     4.016753  s :     4.016753
      pz      :     1.305949  p :     4.784669
      px      :     1.756051
      py      :     1.722669
      dz2     :     0.011345  d :     0.029359
      dxz     :     0.007658
      dyz     :     0.008292
      dx2y2   :     0.000853
      dxy     :     0.001210
      f0      :     0.000608  f :     0.001701
      f+1     :     0.000429
      f-1     :     0.000460
      f+2     :     0.000078
      f-2     :     0.000089
      f+3     :     0.000028
      f-3     :     0.000010
 13 C s       :     3.030585  s :     3.030585
      pz      :     0.918775  p :     3.111345
      px      :     1.187555
      py      :     1.005015
      dz2     :    -0.005052  d :     0.183987
      dxz     :     0.044895
      dyz     :     0.051424
      dx2y2   :     0.067509
      dxy     :     0.025212
      f0      :     0.000408  f :     0.005300
      f+1     :     0.000185
      f-1     :     0.001108
      f+2     :     0.001571
      f-2     :     0.000868
      f+3     :     0.000667
      f-3     :     0.000494
 14 H s       :     0.820874  s :     0.820874
      pz      :     0.003480  p :     0.034591
      px      :     0.026173
      py      :     0.004938
 15 H s       :     0.802032  s :     0.802032
      pz      :     0.018680  p :     0.032968
      px      :    -0.001103
      py      :     0.015391
 16 C s       :     3.050645  s :     3.050645
      pz      :     0.857864  p :     2.981088
      px      :     1.052460
      py      :     1.070764
      dz2     :    -0.003619  d :     0.115724
      dxz     :     0.034001
      dyz     :     0.022882
      dx2y2   :     0.012763
      dxy     :     0.049697
      f0      :     0.000374  f :     0.005406
      f+1     :     0.000220
      f-1     :     0.001108
      f+2     :     0.001177
      f-2     :     0.001328
      f+3     :     0.000423
      f-3     :     0.000775
 17 H s       :     0.853998  s :     0.853998
      pz      :    -0.012421  p :     0.001325
      px      :     0.019041
      py      :    -0.005295
 18 H s       :     0.616238  s :     0.616238
      pz      :     0.000551  p :     0.068831
      px      :     0.054747
      py      :     0.013533
 19 C s       :     2.997515  s :     2.997515
      pz      :     0.987013  p :     3.174174
      px      :     1.075611
      py      :     1.111551
      dz2     :    -0.000789  d :     0.120791
      dxz     :     0.048049
      dyz     :     0.028573
      dx2y2   :    -0.003470
      dxy     :     0.048429
      f0      :     0.000465  f :     0.005499
      f+1     :     0.000784
      f-1     :     0.000613
      f+2     :     0.000861
      f-2     :     0.001356
      f+3     :     0.000520
      f-3     :     0.000900
 20 H s       :     0.651081  s :     0.651081
      pz      :     0.025623  p :     0.021696
      px      :     0.008181
      py      :    -0.012109
 21 H s       :     0.844203  s :     0.844203
      pz      :    -0.007814  p :     0.022293
      px      :     0.010899
      py      :     0.019209
 22 H s       :     0.711044  s :     0.711044
      pz      :    -0.020918  p :     0.052525
      px      :     0.034876
      py      :     0.038567
 23 H s       :     0.863121  s :     0.863121
      pz      :    -0.012177  p :    -0.002059
      px      :     0.004190
      py      :     0.005928
 24 H s       :     0.854377  s :     0.854377
      pz      :    -0.003240  p :     0.021359
      px      :     0.025420
      py      :    -0.000822
 25 H s       :     0.799841  s :     0.799841
      pz      :     0.013714  p :     0.020676
      px      :     0.003486
      py      :     0.003477


                     *******************************
                     * LOEWDIN POPULATION ANALYSIS *
                     *******************************

----------------------
LOEWDIN ATOMIC CHARGES
----------------------
   0 C :   -0.162151
   1 N :    0.156041
   2 C :   -0.181610
   3 C :   -0.234853
   4 S :    0.458528
   5 H :    0.102703
   6 H :    0.171944
   7 H :    0.063731
   8 O :   -0.306817
   9 O :   -0.386677
  10 H :    0.124274
  11 H :    0.120810
  12 O :   -0.367958
  13 C :   -0.201087
  14 H :    0.118501
  15 H :    0.116674
  16 C :   -0.211311
  17 H :    0.121748
  18 H :    0.087637
  19 C :   -0.215225
  20 H :    0.097803
  21 H :    0.096698
  22 H :    0.086268
  23 H :    0.117828
  24 H :    0.112759
  25 H :    0.113742

-------------------------------
LOEWDIN REDUCED ORBITAL CHARGES
-------------------------------
  0 C s       :     2.670146  s :     2.670146
      pz      :     0.935662  p :     2.685745
      px      :     0.809525
      py      :     0.940558
      dz2     :     0.173419  d :     0.755008
      dxz     :     0.160949
      dyz     :     0.081280
      dx2y2   :     0.216040
      dxy     :     0.123320
      f0      :     0.004728  f :     0.051251
      f+1     :     0.009524
      f-1     :     0.005174
      f+2     :     0.008350
      f-2     :     0.006167
      f+3     :     0.006866
      f-3     :     0.010442
  1 N s       :     2.891959  s :     2.891959
      pz      :     1.183109  p :     3.461107
      px      :     1.124682
      py      :     1.153315
      dz2     :     0.095460  d :     0.480712
      dxz     :     0.101695
      dyz     :     0.048631
      dx2y2   :     0.090965
      dxy     :     0.143962
      f0      :     0.001504  f :     0.010180
      f+1     :     0.001324
      f-1     :     0.000605
      f+2     :     0.001650
      f-2     :     0.001652
      f+3     :     0.002252
      f-3     :     0.001192
  2 C s       :     2.673967  s :     2.673967
      pz      :     0.921334  p :     2.751448
      px      :     0.901797
      py      :     0.928316
      dz2     :     0.095420  d :     0.717486
      dxz     :     0.143578
      dyz     :     0.191455
      dx2y2   :     0.154681
      dxy     :     0.132351
      f0      :     0.003892  f :     0.038710
      f+1     :     0.004280
      f-1     :     0.007027
      f+2     :     0.006981
      f-2     :     0.004642
      f+3     :     0.007339
      f-3     :     0.004549
  3 C s       :     2.714218  s :     2.714218
      pz      :     0.954820  p :     2.797702
      px      :     0.916478
      py      :     0.926405
      dz2     :     0.169525  d :     0.691127
      dxz     :     0.129003
      dyz     :     0.086833
      dx2y2   :     0.127879
      dxy     :     0.177887
      f0      :     0.003275  f :     0.031805
      f+1     :     0.006538
      f-1     :     0.004186
      f+2     :     0.003604
      f-2     :     0.004727
      f+3     :     0.005608
      f-3     :     0.003868
  4 S s       :     4.560867  s :     4.560867
      pz      :     2.766752  p :     8.327513
      px      :     2.787238
      py      :     2.773523
      dz2     :     0.517412  d :     2.277570
      dxz     :     0.409253
      dyz     :     0.444952
      dx2y2   :     0.392097
      dxy     :     0.513856
      f0      :     0.054417  f :     0.375522
      f+1     :     0.065602
      f-1     :     0.075134
      f+2     :     0.042977
      f-2     :     0.048450
      f+3     :     0.050357
      f-3     :     0.038584
  5 H s       :     0.549972  s :     0.549972
      pz      :     0.169765  p :     0.347325
      px      :     0.078816
      py      :     0.098743
  6 H s       :     0.606825  s :     0.606825
      pz      :     0.054275  p :     0.221231
      px      :     0.081378
      py      :     0.085578
  7 H s       :     0.545069  s :     0.545069
      pz      :     0.080249  p :     0.391200
      px      :     0.103067
      py      :     0.207884
  8 O s       :     3.471812  s :     3.471812
      pz      :     1.544129  p :     4.570930
      px      :     1.491550
      py      :     1.535251
      dz2     :     0.041445  d :     0.259296
      dxz     :     0.051124
      dyz     :     0.026248
      dx2y2   :     0.065232
      dxy     :     0.075246
      f0      :     0.000497  f :     0.004780
      f+1     :     0.000708
      f-1     :     0.000223
      f+2     :     0.000490
      f-2     :     0.000758
      f+3     :     0.000850
      f-3     :     0.001254
  9 O s       :     3.436533  s :     3.436533
      pz      :     1.562552  p :     4.624613
      px      :     1.577916
      py      :     1.484145
      dz2     :     0.065993  d :     0.321281
      dxz     :     0.031243
      dyz     :     0.088110
      dx2y2   :     0.066166
      dxy     :     0.069769
      f0      :     0.000506  f :     0.004250
      f+1     :     0.000115
      f-1     :     0.000807
      f+2     :     0.000967
      f-2     :     0.000687
      f+3     :     0.000635
      f-3     :     0.000532
 10 H s       :     0.671253  s :     0.671253
      pz      :     0.086930  p :     0.204473
      px      :     0.042390
      py      :     0.075153
 11 H s       :     0.684542  s :     0.684542
      pz      :     0.051409  p :     0.194648
      px      :     0.044135
      py      :     0.099104
 12 O s       :     3.432298  s :     3.432298
      pz      :     1.462493  p :     4.613253
      px      :     1.589730
      py      :     1.561030
      dz2     :     0.106664  d :     0.318120
      dxz     :     0.065471
      dyz     :     0.077538
      dx2y2   :     0.031990
      dxy     :     0.036457
      f0      :     0.001794  f :     0.004288
      f+1     :     0.000811
      f-1     :     0.001241
      f+2     :     0.000144
      f-2     :     0.000202
      f+3     :     0.000082
      f-3     :     0.000013
 13 C s       :     2.660766  s :     2.660766
      pz      :     0.926588  p :     2.745968
      px      :     0.925379
      py      :     0.894001
      dz2     :     0.113820  d :     0.755152
      dxz     :     0.166835
      dyz     :     0.175876
      dx2y2   :     0.166415
      dxy     :     0.132207
      f0      :     0.005220  f :     0.039201
      f+1     :     0.002588
      f-1     :     0.008012
      f+2     :     0.007048
      f-2     :     0.005174
      f+3     :     0.005992
      f-3     :     0.005167
 14 H s       :     0.678841  s :     0.678841
      pz      :     0.066963  p :     0.202658
      px      :     0.084229
      py      :     0.051466
 15 H s       :     0.682308  s :     0.682308
      pz      :     0.081084  p :     0.201019
      px      :     0.049349
      py      :     0.070586
 16 C s       :     2.662147  s :     2.662147
      pz      :     0.918133  p :     2.740780
      px      :     0.918458
      py      :     0.904190
      dz2     :     0.111081  d :     0.768942
      dxz     :     0.170286
      dyz     :     0.181461
      dx2y2   :     0.160514
      dxy     :     0.145600
      f0      :     0.005184  f :     0.039443
      f+1     :     0.002934
      f-1     :     0.007769
      f+2     :     0.005762
      f-2     :     0.006525
      f+3     :     0.004414
      f-3     :     0.006855
 17 H s       :     0.680799  s :     0.680799
      pz      :     0.061938  p :     0.197454
      px      :     0.082880
      py      :     0.052635
 18 H s       :     0.641750  s :     0.641750
      pz      :     0.077745  p :     0.270613
      px      :     0.126529
      py      :     0.066339
 19 C s       :     2.671798  s :     2.671798
      pz      :     0.926145  p :     2.758716
      px      :     0.915938
      py      :     0.916634
      dz2     :     0.121060  d :     0.745781
      dxz     :     0.156748
      dyz     :     0.174691
      dx2y2   :     0.119224
      dxy     :     0.174057
      f0      :     0.004874  f :     0.038930
      f+1     :     0.005492
      f-1     :     0.005576
      f+2     :     0.004965
      f-2     :     0.006996
      f+3     :     0.004259
      f-3     :     0.006768
 20 H s       :     0.676521  s :     0.676521
      pz      :     0.092746  p :     0.225675
      px      :     0.064004
      py      :     0.068926
 21 H s       :     0.680021  s :     0.680021
      pz      :     0.055293  p :     0.223281
      px      :     0.072511
      py      :     0.095477
 22 H s       :     0.654810  s :     0.654810
      pz      :     0.072704  p :     0.258923
      px      :     0.105123
      py      :     0.081095
 23 H s       :     0.683590  s :     0.683590
      pz      :     0.063935  p :     0.198582
      px      :     0.083075
      py      :     0.051572
 24 H s       :     0.681075  s :     0.681075
      pz      :     0.063087  p :     0.206166
      px      :     0.078412
      py      :     0.064667
 25 H s       :     0.677641  s :     0.677641
      pz      :     0.082507  p :     0.208617
      px      :     0.061058
      py      :     0.065052


                      *****************************
                      * MAYER POPULATION ANALYSIS *
                      *****************************

  NA   - Mulliken gross atomic population
  ZA   - Total nuclear charge
  QA   - Mulliken gross atomic charge
  VA   - Mayer's total valence
  BVA  - Mayer's bonded valence
  FA   - Mayer's free valence

  ATOM       NA         ZA         QA         VA         BVA        FA
  0 C      6.5423     6.0000    -0.5423     4.2876     4.2876    -0.0000
  1 N      7.0322     7.0000    -0.0322     3.6440     3.6440     0.0000
  2 C      6.2135     6.0000    -0.2135     4.1950     4.1950     0.0000
  3 C      6.5687     6.0000    -0.5687     4.3973     4.3973    -0.0000
  4 S     14.8334    16.0000     1.1666     5.3019     5.3019    -0.0000
  5 H      0.6763     1.0000     0.3237     0.9687     0.9687     0.0000
  6 H      0.6786     1.0000     0.3214     0.7998     0.7998     0.0000
  7 H      0.7679     1.0000     0.2321     1.0910     1.0910     0.0000
  8 O      8.5955     8.0000    -0.5955     1.7114     1.7114    -0.0000
  9 O      8.8186     8.0000    -0.8186     1.6669     1.6669    -0.0000
 10 H      0.7137     1.0000     0.2863     0.9010     0.9010    -0.0000
 11 H      0.8538     1.0000     0.1462     0.9900     0.9900    -0.0000
 12 O      8.8325     8.0000    -0.8325     1.7177     1.7177    -0.0000
 13 C      6.3312     6.0000    -0.3312     4.0586     4.0586     0.0000
 14 H      0.8555     1.0000     0.1445     1.0157     1.0157    -0.0000
 15 H      0.8350     1.0000     0.1650     0.9824     0.9824     0.0000
 16 C      6.1529     6.0000    -0.1529     3.9772     3.9772     0.0000
 17 H      0.8553     1.0000     0.1447     0.9738     0.9738     0.0000
 18 H      0.6851     1.0000     0.3149     0.9402     0.9402     0.0000
 19 C      6.2980     6.0000    -0.2980     4.5114     4.5114     0.0000
 20 H      0.6728     1.0000     0.3272     0.7813     0.7813    -0.0000
 21 H      0.8665     1.0000     0.1335     1.0033     1.0033    -0.0000
 22 H      0.7636     1.0000     0.2364     0.9017     0.9017     0.0000
 23 H      0.8611     1.0000     0.1389     0.9441     0.9441     0.0000
 24 H      0.8757     1.0000     0.1243     1.0026     1.0026    -0.0000
 25 H      0.8205     1.0000     0.1795     0.9402     0.9402    -0.0000

  Mayer bond orders larger than 0.100000
B(  0-C ,  1-N ) :   1.0459 B(  0-C ,  2-C ) :   1.0036 B(  0-C , 10-H ) :   0.9010 
B(  0-C , 11-H ) :   0.9528 B(  0-C , 16-C ) :   0.2437 B(  1-N ,  5-H ) :   0.8203 
B(  1-N ,  6-H ) :   0.8196 B(  1-N ,  7-H ) :   0.9201 B(  2-C , 13-C ) :   1.0619 
B(  2-C , 14-H ) :   0.9184 B(  2-C , 15-H ) :   0.9428 B(  2-C , 16-C ) :   0.1048 
B(  2-C , 18-H ) :   0.1276 B(  3-C ,  4-S ) :   0.8213 B(  3-C ,  8-O ) :   0.1957 
B(  3-C ,  9-O ) :   0.1326 B(  3-C , 13-C ) :   0.1338 B(  3-C , 19-C ) :   0.9930 
B(  3-C , 20-H ) :   0.8762 B(  3-C , 21-H ) :   1.0322 B(  4-S ,  8-O ) :   1.4773 
B(  4-S ,  9-O ) :   1.4026 B(  4-S , 12-O ) :   1.4087 B(  7-H , 12-O ) :   0.1227 
B(  9-O , 12-O ) :   0.1319 B( 13-C , 16-C ) :   0.6410 B( 13-C , 17-H ) :   0.9126 
B( 13-C , 18-H ) :   0.9859 B( 13-C , 19-C ) :   0.2496 B( 16-C , 19-C ) :   1.1415 
B( 16-C , 22-H ) :   0.9556 B( 16-C , 23-H ) :   0.9070 B( 19-C , 22-H ) :   0.1128 
B( 19-C , 24-H ) :   0.9182 B( 19-C , 25-H ) :   0.9061 

-------
TIMINGS
-------

Total SCF time: 0 days 0 hours 3 min 17 sec 

Total time                  ....     197.960 sec
Sum of individual times     ....     197.043 sec  ( 99.5%)

Fock matrix formation       ....     190.611 sec  ( 96.3%)
  Split-RI-J                ....      12.336 sec  (  6.5% of F)
  Chain of spheres X        ....     150.953 sec  ( 79.2% of F)
  XC integration            ....      27.062 sec  ( 14.2% of F)
    Basis function eval.    ....       5.264 sec  ( 19.5% of XC)
    Density eval.           ....       8.749 sec  ( 32.3% of XC)
    XC-Functional eval.     ....       0.379 sec  (  1.4% of XC)
    XC-Potential eval.      ....      10.945 sec  ( 40.4% of XC)
Diagonalization             ....       0.790 sec  (  0.4%)
Density matrix formation    ....       0.048 sec  (  0.0%)
Population analysis         ....       0.091 sec  (  0.0%)
Initial guess               ....       1.360 sec  (  0.7%)
Orbital Transformation      ....       0.000 sec  (  0.0%)
Orbital Orthonormalization  ....       0.000 sec  (  0.0%)
DIIS solution               ....       0.430 sec  (  0.2%)
SOSCF solution              ....       0.416 sec  (  0.2%)
Grid generation             ....       3.297 sec  (  1.7%)

Maximum memory used throughout the entire SCF-calculation: 125.9 MB


-------------------------------------------------------------------------------
                          DFT DISPERSION CORRECTION                            
                                                                               
                              DFTD3 V3.1  Rev 1                                
                          USING Becke-Johnson damping                          
-------------------------------------------------------------------------------
The PBE0 functional is recognized
Active option DFTDOPT                   ...         4   

molecular C6(AA) [au] = 6012.748442 


            DFT-D V3
 parameters
 s6 scaling factor         :     1.0000 
 a1 scaling factor         :     0.4145 
 s8 scaling factor         :     1.2177 
 a2 scaling factor         :     4.8593 
 ad hoc parameters k1-k3   :    16.0000     1.3333    -4.0000 

 Edisp/kcal,au: -17.034638027025  -0.027146420754 
 E6   /kcal   : -10.889027041 
 E8   /kcal   :  -6.145610986 
 % E8         :  36.077144557 

-------------------------   ----------------
Dispersion correction           -0.027146421
-------------------------   ----------------


-------------------------   --------------------
FINAL SINGLE POINT ENERGY      -915.817649471782
-------------------------   --------------------


                            ***************************************
                            *     ORCA property calculations      *
                            ***************************************

                                    ---------------------
                                    Active property flags
                                    ---------------------
   (+) Dipole Moment


------------------------------------------------------------------------------
                       ORCA ELECTRIC PROPERTIES CALCULATION
------------------------------------------------------------------------------

Dipole Moment Calculation                       ... on
Quadrupole Moment Calculation                   ... off
Polarizability Calculation                      ... off
GBWName                                         ... 28Oct_TZVPD_PBE0_B_wt_wb97.gbw
Electron density file                           ... 28Oct_TZVPD_PBE0_B_wt_wb97.scfp
The origin for moment calculation is the CENTER OF MASS  = (-10.567773, -7.550116 -0.068605)

-------------
DIPOLE MOMENT
-------------
                                X             Y             Z
Electronic contribution:    -13.54500      -2.93249      -3.68013
Nuclear contribution   :     16.18863       5.15617       4.97370
                        -----------------------------------------
Total Dipole Moment    :      2.64363       2.22368       1.29358
                        -----------------------------------------
Magnitude (a.u.)       :      3.68875
Magnitude (Debye)      :      9.37605



--------------------
Rotational spectrum 
--------------------
 
Rotational constants in cm-1:     0.048546     0.025588     0.020102 
Rotational constants in MHz :  1455.374030   767.095631   602.645620 

 Dipole components along the rotational axes: 
x,y,z [a.u.] :     3.681613    -0.119682     0.195621 
x,y,z [Debye]:     9.357915    -0.304207     0.497230 

 

Timings for individual modules:

Sum of individual times         ...      199.327 sec (=   3.322 min)
GTO integral calculation        ...        0.977 sec (=   0.016 min)   0.5 %
SCF iterations                  ...      198.350 sec (=   3.306 min)  99.5 %
                             ****ORCA TERMINATED NORMALLY****
TOTAL RUN TIME: 0 days 0 hours 3 minutes 20 seconds 65 msec
