
                                        *****************
                                        * O   R   C   A *
                                        *****************

                                            #,                                       
                                            ###                                      
                                            ####                                     
                                            #####                                    
                                            ######                                   
                                           ########,                                 
                                     ,,################,,,,,                         
                               ,,#################################,,                 
                          ,,##########################################,,             
                       ,#########################################, ''#####,          
                    ,#############################################,,   '####,        
                  ,##################################################,,,,####,       
                ,###########''''           ''''###############################       
              ,#####''   ,,,,##########,,,,          '''####'''          '####       
            ,##' ,,,,###########################,,,                        '##       
           ' ,,###''''                  '''############,,,                           
         ,,##''                                '''############,,,,        ,,,,,,###''
      ,#''                                            '''#######################'''  
     '                                                          ''''####''''         
             ,#######,   #######,   ,#######,      ##                                
            ,#'     '#,  ##    ##  ,#'     '#,    #''#        ######   ,####,        
            ##       ##  ##   ,#'  ##            #'  '#       #        #'  '#        
            ##       ##  #######   ##           ,######,      #####,   #    #        
            '#,     ,#'  ##    ##  '#,     ,#' ,#      #,         ##   #,  ,#        
             '#######'   ##     ##  '#######'  #'      '#     #####' # '####'        



                  #######################################################
                  #                        -***-                        #
                  #          Department of theory and spectroscopy      #
                  #    Directorship and core code : Frank Neese         #
                  #        Max Planck Institute fuer Kohlenforschung    #
                  #                Kaiser Wilhelm Platz 1               #
                  #                 D-45470 Muelheim/Ruhr               #
                  #                      Germany                        #
                  #                                                     #
                  #                  All rights reserved                #
                  #                        -***-                        #
                  #######################################################


                         Program Version 5.0.0 -  RELEASE  -
                                (SVN: $Rev: 19529$)
                ($Date: 2021-06-28 11:36:33 +0200 (Mo, 28 Jun 2021) $)


 With contributions from (in alphabetic order):
   Daniel Aravena         : Magnetic Suceptibility
   Michael Atanasov       : Ab Initio Ligand Field Theory (pilot matlab implementation)
   Alexander A. Auer      : GIAO ZORA, VPT2 properties, NMR spectrum
   Ute Becker             : Parallelization
   Giovanni Bistoni       : ED, misc. LED, open-shell LED, HFLD
   Martin Brehm           : Molecular dynamics
   Dmytro Bykov           : SCF Hessian
   Vijay G. Chilkuri      : MRCI spin determinant printing, contributions to CSF-ICE
   Dipayan Datta          : RHF DLPNO-CCSD density
   Achintya Kumar Dutta   : EOM-CC, STEOM-CC
   Dmitry Ganyushin       : Spin-Orbit,Spin-Spin,Magnetic field MRCI
   Miquel Garcia          : C-PCM Hessian, Gaussian charge scheme
   Yang Guo               : DLPNO-NEVPT2, F12-NEVPT2, CIM, IAO-localization
   Andreas Hansen         : Spin unrestricted coupled pair/coupled cluster methods
   Benjamin Helmich-Paris : MC-RPA, TRAH-SCF, COSX integrals
   Lee Huntington         : MR-EOM, pCC
   Robert Izsak           : Overlap fitted RIJCOSX, COSX-SCS-MP3, EOM
   Marcus Kettner         : VPT2
   Christian Kollmar      : KDIIS, OOCD, Brueckner-CCSD(T), CCSD density, CASPT2, CASPT2-K
   Simone Kossmann        : Meta GGA functionals, TD-DFT gradient, OOMP2, MP2 Hessian
   Martin Krupicka        : Initial AUTO-CI
   Lucas Lang             : DCDCAS
   Marvin Lechner         : AUTO-CI (C++ implementation), FIC-MRCC
   Dagmar Lenk            : GEPOL surface, SMD
   Dimitrios Liakos       : Extrapolation schemes; Compound Job, initial MDCI parallelization
   Dimitrios Manganas     : Further ROCIS development; embedding schemes
   Dimitrios Pantazis     : SARC Basis sets
   Anastasios Papadopoulos: AUTO-CI, single reference methods and gradients
   Taras Petrenko         : DFT Hessian,TD-DFT gradient, ASA, ECA, R-Raman, ABS, FL, XAS/XES, NRVS
   Peter Pinski           : DLPNO-MP2, DLPNO-MP2 Gradient
   Christoph Reimann      : Effective Core Potentials
   Marius Retegan         : Local ZFS, SOC
   Christoph Riplinger    : Optimizer, TS searches, QM/MM, DLPNO-CCSD(T), (RO)-DLPNO pert. Triples
   Tobias Risthaus        : Range-separated hybrids, TD-DFT gradient, RPA, STAB
   Michael Roemelt        : Original ROCIS implementation
   Masaaki Saitow         : Open-shell DLPNO-CCSD energy and density
   Barbara Sandhoefer     : DKH picture change effects
   Avijit Sen             : IP-ROCIS
   Kantharuban Sivalingam : CASSCF convergence, NEVPT2, FIC-MRCI
   Bernardo de Souza      : ESD, SOC TD-DFT
   Georgi Stoychev        : AutoAux, RI-MP2 NMR
   Willem Van den Heuvel  : Paramagnetic NMR
   Boris Wezisla          : Elementary symmetry handling
   Frank Wennmohs         : Technical directorship


 We gratefully acknowledge several colleagues who have allowed us to
 interface, adapt or use parts of their codes:
   Stefan Grimme, W. Hujo, H. Kruse, P. Pracht,  : VdW corrections, initial TS optimization,
                  C. Bannwarth, S. Ehlert          DFT functionals, gCP, sTDA/sTD-DF
   Ed Valeev, F. Pavosevic, A. Kumar             : LibInt (2-el integral package), F12 methods
   Garnet Chan, S. Sharma, J. Yang, R. Olivares  : DMRG
   Ulf Ekstrom                                   : XCFun DFT Library
   Mihaly Kallay                                 : mrcc  (arbitrary order and MRCC methods)
   Jiri Pittner, Ondrej Demel                    : Mk-CCSD
   Frank Weinhold                                : gennbo (NPA and NBO analysis)
   Christopher J. Cramer and Donald G. Truhlar   : smd solvation model
   Lars Goerigk                                  : TD-DFT with DH, B97 family of functionals
   V. Asgeirsson, H. Jonsson                     : NEB implementation
   FAccTs GmbH                                   : IRC, NEB, NEB-TS, DLPNO-Multilevel, CI-OPT
                                                   MM, QMMM, 2- and 3-layer-ONIOM, Crystal-QMMM,
                                                   LR-CPCM, SF, NACMEs, symmetry and pop. for TD-DFT,
                                                   nearIR, NL-DFT gradient (VV10), updates on ESD,
                                                   ML-optimized integration grids
   S Lehtola, MJT Oliveira, MAL Marques          : LibXC Library
   Liviu Ungur et al                             : ANISO software


 Your calculation uses the libint2 library for the computation of 2-el integrals
 For citations please refer to: http://libint.valeyev.net

 Your ORCA version has been built with support for libXC version: 5.1.0
 For citations please refer to: https://tddft.org/programs/libxc/

 This ORCA versions uses:
   CBLAS   interface :  Fast vector & matrix operations
   LAPACKE interface :  Fast linear algebra routines
   SCALAPACK package :  Parallel linear algebra routines
   Shared memory     :  Shared parallel matrices
   BLAS/LAPACK       :  OpenBLAS 0.3.15  USE64BITINT DYNAMIC_ARCH NO_AFFINITY Haswell SINGLE_THREADED
        Core in use  :  Haswell
   Copyright (c) 2011-2014, The OpenBLAS Project




***************************************
The coordinates will be read from file: D5.xyz
***************************************


Your calculation utilizes the atom-pairwise dispersion correction
with the Becke-Johnson damping scheme (D3BJ)
Cite in your paper:
S.Grimme, S.Ehrlich, L.Goerigk, J Comput Chem, (2011), 32, 1456–1465 
S.Grimme, J.Antony, S.Ehrlich and H.Krieg, J.Chem.Phys., 132, (2010), 154104 
   

================================================================================

----- Orbital basis set information -----
Your calculation utilizes the basis: def2-SVPD
   F. Weigend and R. Ahlrichs, Phys. Chem. Chem. Phys. 7, 3297 (2005).
   D. Rappoport and F. Furche, J. Chem. Phys. 133 134105 (2010).

----- AuxJ basis set information -----
Your calculation utilizes the auxiliary basis: def2/J
   F. Weigend, Phys. Chem. Chem. Phys. 8, 1057 (2006).

================================================================================
                                        WARNINGS
                       Please study these warnings very carefully!
================================================================================



WARNING: Found flag for RIJCOSX approximation but no HF exchange needed!
  ===> : RIJCOSX  will be disabled and Split-RI-J is turned on

INFO   : the flag for use of the SHARK integral package has been found!

================================================================================
                                       INPUT FILE
================================================================================
NAME = 28Oct_SVPD_TPSS_D5_wb97.com
|  1> !TPSS D3BJ RIJCOSX def2-SVPD def2/J TightSCF xyzfile                                                                                         
|  2> 
|  3> *xyzfile 0 1 D5.xyz
|  4> 
|  5> %MaxCore 64000
|  6> 
|  7> %pal nprocs 4                                                                                                                                                  
|  8> end  
|  9> 
| 10> %scf
| 11>   MaxIter 150
| 12> end
| 13> 
| 14> 
| 15>                          ****END OF INPUT****
================================================================================

                       ****************************
                       * Single Point Calculation *
                       ****************************

---------------------------------
CARTESIAN COORDINATES (ANGSTROEM)
---------------------------------
  C      2.234473   -2.989754   -2.397622
  N      2.756799   -2.945553   -3.765029
  C     -1.104325    0.251374   -2.860056
  C     -0.711893    0.842517   -4.218344
  H      0.154626    1.499800   -4.130909
  H     -1.538134    1.459222   -4.582671
  C     -0.397624   -0.205875   -5.288018
  C      1.987208   -2.590451   -4.818975
  C      0.743221   -3.017493   -4.913524
  N      2.499636   -1.848598   -5.803241
  H      3.309780   -1.292818   -5.558947
  H      1.801025   -1.304298   -6.289129
  H      3.716116   -2.628797   -3.829533
  H      0.395828   -3.627747   -4.185024
  H      0.039201   -2.454383   -5.371367
  O      0.617165   -0.005348   -5.998273
  F     -1.133173   -1.221380   -5.341465
  C      2.191199   -1.619503   -1.715492
  H      2.872783   -3.666368   -1.828014
  H      1.246188   -3.447444   -2.407842
  C      1.298729   -0.554314   -2.359773
  H      1.872917   -1.787955   -0.681310
  H      3.216809   -1.238432   -1.654428
  C     -0.196255   -0.863365   -2.325763
  H      1.612531   -0.371346   -3.393065
  H      1.480944    0.388638   -1.834444
  H     -0.404105   -1.761825   -2.909448
  H     -0.490439   -1.087880   -1.294131
  H     -1.143842    1.066711   -2.129680
  H     -2.114401   -0.156834   -2.930323

----------------------------
CARTESIAN COORDINATES (A.U.)
----------------------------
  NO LB      ZA    FRAG     MASS         X           Y           Z
   0 C     6.0000    0    12.011    4.222543   -5.649816   -4.530848
   1 N     7.0000    0    14.007    5.209595   -5.566289   -7.114873
   2 C     6.0000    0    12.011   -2.086873    0.475028   -5.404722
   3 C     6.0000    0    12.011   -1.345283    1.592127   -7.971516
   4 H     1.0000    0     1.008    0.292200    2.834211   -7.806286
   5 H     1.0000    0     1.008   -2.906652    2.757530   -8.659992
   6 C     6.0000    0    12.011   -0.751401   -0.389047   -9.992907
   7 C     6.0000    0    12.011    3.755279   -4.895244   -9.106543
   8 C     6.0000    0    12.011    1.404485   -5.702235   -9.285215
   9 N     7.0000    0    14.007    4.723627   -3.493344  -10.966537
  10 H     1.0000    0     1.008    6.254578   -2.443072  -10.504887
  11 H     1.0000    0     1.008    3.403445   -2.464767  -11.884731
  12 H     1.0000    0     1.008    7.022441   -4.967706   -7.236769
  13 H     1.0000    0     1.008    0.748006   -6.855448   -7.908548
  14 H     1.0000    0     1.008    0.074080   -4.638111  -10.150413
  15 O     8.0000    0    15.999    1.166273   -0.010106  -11.335093
  16 F     9.0000    0    18.998   -2.141387   -2.308074  -10.093907
  17 C     6.0000    0    12.011    4.140767   -3.060418   -3.241811
  18 H     1.0000    0     1.008    5.428773   -6.928432   -3.454445
  19 H     1.0000    0     1.008    2.354955   -6.514725   -4.550162
  20 C     6.0000    0    12.011    2.454243   -1.047501   -4.459324
  21 H     1.0000    0     1.008    3.539301   -3.378746   -1.287489
  22 H     1.0000    0     1.008    6.078888   -2.340297   -3.126415
  23 C     6.0000    0    12.011   -0.370868   -1.631524   -4.395056
  24 H     1.0000    0     1.008    3.047241   -0.701741   -6.411963
  25 H     1.0000    0     1.008    2.798579    0.734420   -3.466597
  26 H     1.0000    0     1.008   -0.763647   -3.329367   -5.498059
  27 H     1.0000    0     1.008   -0.926795   -2.055796   -2.445553
  28 H     1.0000    0     1.008   -2.161548    2.015792   -4.024513
  29 H     1.0000    0     1.008   -3.995640   -0.296373   -5.537508

--------------------------------
INTERNAL COORDINATES (ANGSTROEM)
--------------------------------
 C      0   0   0     0.000000000000     0.00000000     0.00000000
 N      1   0   0     1.464438225876     0.00000000     0.00000000
 C      1   2   0     4.676145129276    98.12927291     0.00000000
 C      3   1   2     1.532449663024    99.91462131   348.31309700
 H      4   3   1     1.091109561698   111.39025959   283.89265125
 H      4   3   1     1.093495439559   108.62484397   166.67912614
 C      4   3   1     1.530389765639   114.06976040    46.19796968
 C      2   1   3     1.352468525377   122.18202950   332.12698446
 C      8   2   1     1.318638167115   120.50800772   318.92382051
 N      8   2   1     1.334806580019   120.13920908   141.74971933
 H     10   8   2     1.012375870590   115.74621574   337.06348414
 H     10   8   2     1.010151241361   112.87083799   206.24146608
 H      2   1   3     1.012316375193   114.01286739   115.96418648
 H      9   8   2     1.011832723100   117.87797810   358.89717874
 H      9   8   2     1.011116910562   120.59529148   149.18306403
 O      7   4   3     1.254778981721   116.88713641   223.97730908
 F      7   4   3     1.255045716386   117.62699891    40.66785663
 C      1   2   3     1.531261091561   113.51716415   306.50017999
 H      1   2   3     1.090733497968   107.31452929   184.97158571
 H      1   2   3     1.089170204566   109.12058142    70.56520786
 C     18   1   2     1.531740549402   116.83240064    61.84859762
 H     18   1   2     1.095086016226   106.93324123   184.96028215
 H     18   1   2     1.095819174782   108.03263762   298.48283650
 C     21  18   1     1.526973371423   114.85536009    65.69540509
 H     21  18   1     1.095281264436   110.24604822   301.31032456
 H     21  18   1     1.094683112767   107.46873106   187.23902369
 H     24  21  18     1.091383863395   109.94769458   296.45428662
 H     24  21  18     1.096000392918   108.97875853    52.80812729
 H      3   1   2     1.095346916976   118.40828837   231.18872133
 H      3   1   2     1.091707330182   114.06755658   104.31710724

---------------------------
INTERNAL COORDINATES (A.U.)
---------------------------
 C      0   0   0     0.000000000000     0.00000000     0.00000000
 N      1   0   0     2.767387186951     0.00000000     0.00000000
 C      1   2   0     8.836633656801    98.12927291     0.00000000
 C      3   1   2     2.895910177136    99.91462131   348.31309700
 H      4   3   1     2.061898253712   111.39025959   283.89265125
 H      4   3   1     2.066406909459   108.62484397   166.67912614
 C      4   3   1     2.892017535214   114.06976040    46.19796968
 C      2   1   3     2.555795117711   122.18202950   332.12698446
 C      8   2   1     2.491865005583   120.50800772   318.92382051
 N      8   2   1     2.522418877992   120.13920908   141.74971933
 H     10   8   2     1.913113140005   115.74621574   337.06348414
 H     10   8   2     1.908909200014   112.87083799   206.24146608
 H      2   1   3     1.913000709999   114.01286739   115.96418648
 H      9   8   2     1.912086739998   117.87797810   358.89717874
 H      9   8   2     1.910734050338   120.59529148   149.18306403
 O      7   4   3     2.371188634054   116.88713641   223.97730908
 F      7   4   3     2.371692689521   117.62699891    40.66785663
 C      1   2   3     2.893664102580   113.51716415   306.50017999
 H      1   2   3     2.061187596254   107.31452929   184.97158571
 H      1   2   3     2.058233399856   109.12058142    70.56520786
 C     18   1   2     2.894570146592   116.83240064    61.84859762
 H     18   1   2     2.069412663755   106.93324123   184.96028215
 H     18   1   2     2.070798132638   108.03263762   298.48283650
 C     21  18   1     2.885561485780   114.85536009    65.69540509
 H     21  18   1     2.069781629399   110.24604822   301.31032456
 H     21  18   1     2.068651286558   107.46873106   187.23902369
 H     24  21  18     2.062416608797   109.94769458   296.45428662
 H     24  21  18     2.071140585285   108.97875853    52.80812729
 H      3   1   2     2.069905694719   118.40828837   231.18872133
 H      3   1   2     2.063027872438   114.06755658   104.31710724

---------------------
BASIS SET INFORMATION
---------------------
There are 5 groups of distinct atoms

 Group   1 Type C   : 8s4p2d contracted to 4s2p2d pattern {5111/31/11}
 Group   2 Type N   : 8s4p2d contracted to 4s2p2d pattern {5111/31/11}
 Group   3 Type H   : 4s2p contracted to 2s2p pattern {31/11}
 Group   4 Type O   : 8s5p2d contracted to 4s3p2d pattern {5111/311/11}
 Group   5 Type F   : 8s5p2d contracted to 4s3p2d pattern {5111/311/11}

Atom   0C    basis set group =>   1
Atom   1N    basis set group =>   2
Atom   2C    basis set group =>   1
Atom   3C    basis set group =>   1
Atom   4H    basis set group =>   3
Atom   5H    basis set group =>   3
Atom   6C    basis set group =>   1
Atom   7C    basis set group =>   1
Atom   8C    basis set group =>   1
Atom   9N    basis set group =>   2
Atom  10H    basis set group =>   3
Atom  11H    basis set group =>   3
Atom  12H    basis set group =>   3
Atom  13H    basis set group =>   3
Atom  14H    basis set group =>   3
Atom  15O    basis set group =>   4
Atom  16F    basis set group =>   5
Atom  17C    basis set group =>   1
Atom  18H    basis set group =>   3
Atom  19H    basis set group =>   3
Atom  20C    basis set group =>   1
Atom  21H    basis set group =>   3
Atom  22H    basis set group =>   3
Atom  23C    basis set group =>   1
Atom  24H    basis set group =>   3
Atom  25H    basis set group =>   3
Atom  26H    basis set group =>   3
Atom  27H    basis set group =>   3
Atom  28H    basis set group =>   3
Atom  29H    basis set group =>   3
---------------------------------
AUXILIARY/J BASIS SET INFORMATION
---------------------------------
There are 5 groups of distinct atoms

 Group   1 Type C   : 12s5p4d2f1g contracted to 6s4p3d1f1g pattern {711111/2111/211/2/1}
 Group   2 Type N   : 12s5p4d2f1g contracted to 6s4p3d1f1g pattern {711111/2111/211/2/1}
 Group   3 Type H   : 5s2p1d contracted to 3s1p1d pattern {311/2/1}
 Group   4 Type O   : 12s5p4d2f1g contracted to 6s4p3d1f1g pattern {711111/2111/211/2/1}
 Group   5 Type F   : 12s5p4d2f1g contracted to 6s4p3d1f1g pattern {711111/2111/211/2/1}

Atom   0C    basis set group =>   1
Atom   1N    basis set group =>   2
Atom   2C    basis set group =>   1
Atom   3C    basis set group =>   1
Atom   4H    basis set group =>   3
Atom   5H    basis set group =>   3
Atom   6C    basis set group =>   1
Atom   7C    basis set group =>   1
Atom   8C    basis set group =>   1
Atom   9N    basis set group =>   2
Atom  10H    basis set group =>   3
Atom  11H    basis set group =>   3
Atom  12H    basis set group =>   3
Atom  13H    basis set group =>   3
Atom  14H    basis set group =>   3
Atom  15O    basis set group =>   4
Atom  16F    basis set group =>   5
Atom  17C    basis set group =>   1
Atom  18H    basis set group =>   3
Atom  19H    basis set group =>   3
Atom  20C    basis set group =>   1
Atom  21H    basis set group =>   3
Atom  22H    basis set group =>   3
Atom  23C    basis set group =>   1
Atom  24H    basis set group =>   3
Atom  25H    basis set group =>   3
Atom  26H    basis set group =>   3
Atom  27H    basis set group =>   3
Atom  28H    basis set group =>   3
Atom  29H    basis set group =>   3


           ************************************************************
           *        Program running with 4 parallel MPI-processes     *
           *              working on a common directory               *
           ************************************************************
------------------------------------------------------------------------------
                           ORCA GTO INTEGRAL CALCULATION
                           -- RI-GTO INTEGRALS CHOSEN --
------------------------------------------------------------------------------
------------------------------------------------------------------------------
                   ___                                                        
                  /   \      - P O W E R E D   B Y -                         
                 /     \                                                     
                 |  |  |   _    _      __       _____    __    __             
                 |  |  |  | |  | |    /  \     |  _  \  |  |  /  |          
                  \  \/   | |  | |   /    \    | | | |  |  | /  /          
                 / \  \   | |__| |  /  /\  \   | |_| |  |  |/  /          
                |  |  |   |  __  | /  /__\  \  |    /   |      \           
                |  |  |   | |  | | |   __   |  |    \   |  |\   \          
                \     /   | |  | | |  |  |  |  | |\  \  |  | \   \       
                 \___/    |_|  |_| |__|  |__|  |_| \__\ |__|  \__/        
                                                                              
                      - O R C A' S   B I G   F R I E N D -                    
                                      &                                       
                       - I N T E G R A L  F E E D E R -                       
                                                                              
 v1 FN, 2020, v2 2021                                                         
------------------------------------------------------------------------------


Reading SHARK input file 28Oct_SVPD_TPSS_D5_wb97.SHARKINP.tmp ... ok
----------------------
SHARK INTEGRAL PACKAGE
----------------------

Number of atoms                             ...     30
Number of basis functions                   ...    402
Number of shells                            ...    174
Maximum angular momentum                    ...      2
Integral batch strategy                     ... SHARK/LIBINT Hybrid
RI-J (if used) integral strategy            ... SPLIT-RIJ (Revised 2003 algorithm where possible)
Printlevel                                  ...      1
Contraction scheme used                     ... SEGMENTED contraction
Coulomb Range Separation                    ... NOT USED
Exchange Range Separation                   ... NOT USED
Finite Nucleus Model                        ... NOT USED
Auxiliary Coulomb fitting basis             ... AVAILABLE
   # of basis functions in Aux-J            ...    824
   # of shells in Aux-J                     ...    280
   Maximum angular momentum in Aux-J        ...      4
Auxiliary J/K fitting basis                 ... NOT available
Auxiliary Correlation fitting basis         ... NOT available
Auxiliary 'external' fitting basis          ... NOT available
Integral threshold                          ...     2.500000e-11
Primitive cut-off                           ...     2.500000e-12
Primitive pair pre-selection threshold      ...     2.500000e-12

Calculating pre-screening integrals         ... done (  0.1 sec) Dimension = 174
Organizing shell pair data                  ... done (  0.1 sec)
Shell pair information
Total number of shell pairs                 ...     15225
Shell pairs after pre-screening             ...     14440
Total number of primitive shell pairs       ...     41261
Primitive shell pairs kept                  ...     30330
          la=0 lb=0:   3522 shell pairs
          la=1 lb=0:   5051 shell pairs
          la=1 lb=1:   1858 shell pairs
          la=2 lb=0:   2125 shell pairs
          la=2 lb=1:   1543 shell pairs
          la=2 lb=2:    341 shell pairs

Calculating one electron integrals          ... done (  0.0 sec)
Calculating RI/J V-Matrix + Cholesky decomp.... done (  0.1 sec)
Calculating Nuclear repulsion               ... done (  0.0 sec) ENN=    907.329727904902 Eh

SHARK setup successfully completed in   0.4 seconds

Maximum memory used throughout the entire GTOINT-calculation: 22.7 MB


           ************************************************************
           *        Program running with 4 parallel MPI-processes     *
           *              working on a common directory               *
           ************************************************************
-------------------------------------------------------------------------------
                                 ORCA SCF
-------------------------------------------------------------------------------

------------
SCF SETTINGS
------------
Hamiltonian:
 Density Functional     Method          .... DFT(GTOs)
 Exchange Functional    Exchange        .... TPSS
 Correlation Functional Correlation     .... TPSS
 LDA part of GGA corr.  LDAOpt          .... PW91-LDA
 Gradients option       PostSCFGGA      .... off
   Density functional embedding theory  .... OFF
   NL short-range parameter             ....  5.000000
 RI-approximation to the Coulomb term is turned on
   Number of AuxJ basis functions       .... 824


General Settings:
 Integral files         IntName         .... 28Oct_SVPD_TPSS_D5_wb97
 Hartree-Fock type      HFTyp           .... RHF
 Total Charge           Charge          ....    0
 Multiplicity           Mult            ....    1
 Number of Electrons    NEL             ....  102
 Basis Dimension        Dim             ....  402
 Nuclear Repulsion      ENuc            ....    907.3297279049 Eh

Convergence Acceleration:
 DIIS                   CNVDIIS         .... on
   Start iteration      DIISMaxIt       ....    12
   Startup error        DIISStart       ....  0.200000
   # of expansion vecs  DIISMaxEq       ....     5
   Bias factor          DIISBfac        ....   1.050
   Max. coefficient     DIISMaxC        ....  10.000
 Trust-Rad. Augm. Hess. CNVTRAH         .... auto
   Auto Start mean grad. ratio tolernc. ....  1.125000
   Auto Start start iteration           ....    20
   Auto Start num. interpolation iter.  ....    10
   Max. Number of Micro iterations      ....    16
   Max. Number of Macro iterations      .... Maxiter - #DIIS iter
   Number of Davidson start vectors     ....     2
   Converg. threshold I  (grad. norm)   ....   1.000e-05
   Converg. threshold II (energy diff.) ....   1.000e-08
   Grad. Scal. Fac. for Micro threshold ....   0.100
   Minimum threshold for Micro iter.    ....   0.010
   NR start threshold (gradient norm)   ....   0.001
   Initial trust radius                 ....   0.400
   Minimum AH scaling param. (alpha)    ....   1.000
   Maximum AH scaling param. (alpha)    .... 1000.000
   Orbital update algorithm             .... Taylor
   White noise on init. David. guess    .... on
   Maximum white noise                  ....   0.010
   Quad. conv. algorithm                .... NR
 SOSCF                  CNVSOSCF        .... on
   Start iteration      SOSCFMaxIt      ....   150
   Startup grad/error   SOSCFStart      ....  0.003300
 Level Shifting         CNVShift        .... on
   Level shift para.    LevelShift      ....    0.2500
   Turn off err/grad.   ShiftErr        ....    0.0010
 Zerner damping         CNVZerner       .... off
 Static damping         CNVDamp         .... on
   Fraction old density DampFac         ....    0.7000
   Max. Damping (<1)    DampMax         ....    0.9800
   Min. Damping (>=0)   DampMin         ....    0.0000
   Turn off err/grad.   DampErr         ....    0.1000
 Fernandez-Rico         CNVRico         .... off

SCF Procedure:
 Maximum # iterations   MaxIter         ....   150
 SCF integral mode      SCFMode         .... Direct
   Integral package                     .... SHARK and LIBINT hybrid scheme
 Reset frequency        DirectResetFreq ....    20
 Integral Threshold     Thresh          ....  2.500e-11 Eh
 Primitive CutOff       TCut            ....  2.500e-12 Eh

Convergence Tolerance:
 Convergence Check Mode ConvCheckMode   .... Total+1el-Energy
 Convergence forced     ConvForced      .... 0
 Energy Change          TolE            ....  1.000e-08 Eh
 1-El. energy change                    ....  1.000e-05 Eh
 Orbital Gradient       TolG            ....  1.000e-05
 Orbital Rotation angle TolX            ....  1.000e-05
 DIIS Error             TolErr          ....  5.000e-07


Diagonalization of the overlap matrix:
Smallest eigenvalue                        ... 3.094e-05
Time for diagonalization                   ...    0.041 sec
Threshold for overlap eigenvalues          ... 1.000e-08
Number of eigenvalues below threshold      ... 0
Time for construction of square roots      ...    0.028 sec
Total time needed                          ...    0.070 sec

Time for model grid setup =    0.366 sec

------------------------------
INITIAL GUESS: MODEL POTENTIAL
------------------------------
Loading Hartree-Fock densities                     ... done
Calculating cut-offs                               ... done
Initializing the effective Hamiltonian             ... done
Setting up the integral package (SHARK)            ... done
Starting the Coulomb interaction                   ... done (   0.3 sec)
Reading the grid                                   ... done
Mapping shells                                     ... done
Starting the XC term evaluation                    ... done (   0.4 sec)
  promolecular density results
     # of electrons  =    101.994604285
     EX              =    -82.415906554
     EC              =     -3.429258740
     EX+EC           =    -85.845165295
Transforming the Hamiltonian                       ... done (   0.0 sec)
Diagonalizing the Hamiltonian                      ... done (   0.0 sec)
Back transforming the eigenvectors                 ... done (   0.0 sec)
Now organizing SCF variables                       ... done
                      ------------------
                      INITIAL GUESS DONE (   1.2 sec)
                      ------------------
-------------------
DFT GRID GENERATION
-------------------

General Integration Accuracy     IntAcc      ... 4.388
Radial Grid Type                 RadialGrid  ... OptM3 with GC (2021)
Angular Grid (max. ang.)         AngularGrid ... 4 (Lebedev-302)
Angular grid pruning method      GridPruning ... 4 (adaptive)
Weight generation scheme         WeightScheme... Becke
Basis function cutoff            BFCut       ... 1.0000e-11
Integration weight cutoff        WCut        ... 1.0000e-14
Angular grids for H and He will be reduced by one unit
Partially contracted basis set               ... off
Rotationally invariant grid construction     ... off

Total number of grid points                  ...   134687
Total number of batches                      ...     2118
Average number of points per batch           ...       63
Average number of grid points per atom       ...     4490
Time for grid setup =    1.217 sec

--------------
SCF ITERATIONS
--------------
ITER       Energy         Delta-E        Max-DP      RMS-DP      [F,P]     Damp
               ***  Starting incremental Fock matrix formation  ***
  0   -636.9114797274   0.000000000000 0.67376153  0.00439102  0.2284593 0.7000
  1   -637.1391218403  -0.227642112857 0.59408858  0.00362684  0.1062069 0.7000
                               ***Turning on DIIS***
  2   -637.2119394479  -0.072817607615 0.82714897  0.00619729  0.0315723 0.0000
  3   -637.3279870375  -0.116047589629 0.53885335  0.00286387  0.0691379 0.0000
  4   -637.3612665401  -0.033279502623 0.19293872  0.00117266  0.0348326 0.0000
  5   -637.3651579947  -0.003891454526 0.08397987  0.00055304  0.0114743 0.0000
                      *** Initiating the SOSCF procedure ***
                           *** Shutting down DIIS ***
                      *** Re-Reading the Fockian *** 
                      *** Removing any level shift *** 
ITER      Energy       Delta-E        Grad      Rot      Max-DP    RMS-DP
  6   -637.36550371  -0.0003457172  0.000634  0.000634  0.033013  0.000241
               *** Restarting incremental Fock matrix formation ***
  7   -637.36553316  -0.0000294472  0.000474  0.007169  0.023229  0.000214
  8   -637.36553588  -0.0000027168  0.000679  0.001423  0.007990  0.000074
  9   -637.36554228  -0.0000064033  0.000319  0.002834  0.009975  0.000092
 10   -637.36554303  -0.0000007531  0.000341  0.000458  0.001465  0.000019
 11   -637.36554472  -0.0000016879  0.000156  0.001217  0.005020  0.000047
 12   -637.36554515  -0.0000004314  0.000116  0.000245  0.002418  0.000016
 13   -637.36554550  -0.0000003521  0.000039  0.000414  0.001331  0.000014
 14   -637.36554563  -0.0000001286  0.000024  0.000169  0.000655  0.000006
 15   -637.36554566  -0.0000000314  0.000014  0.000067  0.000323  0.000004
 16   -637.36554566   0.0000000027  0.000006  0.000043  0.000143  0.000002
 17   -637.36554567  -0.0000000102  0.000003  0.000025  0.000157  0.000002
                  ***Gradient check signals convergence***
              ***Rediagonalizing the Fockian in SOSCF/NRSCF***

               *****************************************************
               *                     SUCCESS                       *
               *           SCF CONVERGED AFTER  18 CYCLES          *
               *****************************************************


----------------
TOTAL SCF ENERGY
----------------

Total Energy       :         -637.36554568 Eh          -17343.59823 eV

Components:
Nuclear Repulsion  :          907.32972790 Eh           24689.69710 eV
Electronic Energy  :        -1544.69527358 Eh          -42033.29533 eV
One Electron Energy:        -2668.10210719 Eh          -72602.74939 eV
Two Electron Energy:         1123.40683361 Eh           30569.45406 eV

Virial components:
Potential Energy   :        -1269.05605139 Eh          -34532.77077 eV
Kinetic Energy     :          631.69050571 Eh           17189.17254 eV
Virial Ratio       :            2.00898389


DFT components:
N(Alpha)           :       50.999958790662 electrons
N(Beta)            :       50.999958790662 electrons
N(Total)           :      101.999917581324 electrons
E(X)               :      -84.873623469584 Eh       
E(C)               :       -3.430665637294 Eh       
E(XC)              :      -88.304289106878 Eh       
DFET-embed. en.    :        0.000000000000 Eh       

---------------
SCF CONVERGENCE
---------------

  Last Energy change         ...   -7.6136e-09  Tolerance :   1.0000e-08
  Last MAX-Density change    ...    8.7847e-05  Tolerance :   1.0000e-07
  Last RMS-Density change    ...    1.3663e-06  Tolerance :   5.0000e-09
  Last Orbital Gradient      ...    1.8593e-06  Tolerance :   1.0000e-05
  Last Orbital Rotation      ...    2.0455e-05  Tolerance :   1.0000e-05

             **** THE GBW FILE WAS UPDATED (28Oct_SVPD_TPSS_D5_wb97.gbw) ****
             **** DENSITY 28Oct_SVPD_TPSS_D5_wb97.scfp WAS UPDATED ****
             **** ENERGY FILE WAS UPDATED (28Oct_SVPD_TPSS_D5_wb97.en.tmp) ****
             **** THE GBW FILE WAS UPDATED (28Oct_SVPD_TPSS_D5_wb97.gbw) ****
             **** DENSITY 28Oct_SVPD_TPSS_D5_wb97.scfp WAS UPDATED ****
----------------
ORBITAL ENERGIES
----------------

  NO   OCC          E(Eh)            E(eV) 
   0   2.0000     -24.502284      -666.7410 
   1   2.0000     -18.919340      -514.8214 
   2   2.0000     -14.112715      -384.0265 
   3   2.0000     -14.095015      -383.5449 
   4   2.0000     -10.179898      -277.0091 
   5   2.0000     -10.034690      -273.0578 
   6   2.0000     -10.030785      -272.9515 
   7   2.0000     -10.028856      -272.8990 
   8   2.0000     -10.018018      -272.6041 
   9   2.0000     -10.002965      -272.1945 
  10   2.0000     -10.002158      -272.1726 
  11   2.0000     -10.001601      -272.1574 
  12   2.0000      -9.908558      -269.6256 
  13   2.0000      -1.234530       -33.5933 
  14   2.0000      -0.970440       -26.4070 
  15   2.0000      -0.882486       -24.0137 
  16   2.0000      -0.806907       -21.9571 
  17   2.0000      -0.761740       -20.7280 
  18   2.0000      -0.722066       -19.6484 
  19   2.0000      -0.674044       -18.3417 
  20   2.0000      -0.646155       -17.5828 
  21   2.0000      -0.628713       -17.1082 
  22   2.0000      -0.603324       -16.4173 
  23   2.0000      -0.565937       -15.3999 
  24   2.0000      -0.534675       -14.5492 
  25   2.0000      -0.518423       -14.1070 
  26   2.0000      -0.498089       -13.5537 
  27   2.0000      -0.492879       -13.4119 
  28   2.0000      -0.483161       -13.1475 
  29   2.0000      -0.468543       -12.7497 
  30   2.0000      -0.442821       -12.0498 
  31   2.0000      -0.438598       -11.9349 
  32   2.0000      -0.430283       -11.7086 
  33   2.0000      -0.408972       -11.1287 
  34   2.0000      -0.403340       -10.9755 
  35   2.0000      -0.378877       -10.3098 
  36   2.0000      -0.375086       -10.2066 
  37   2.0000      -0.371304       -10.1037 
  38   2.0000      -0.352988        -9.6053 
  39   2.0000      -0.345336        -9.3971 
  40   2.0000      -0.340001        -9.2519 
  41   2.0000      -0.334444        -9.1007 
  42   2.0000      -0.323519        -8.8034 
  43   2.0000      -0.321733        -8.7548 
  44   2.0000      -0.304483        -8.2854 
  45   2.0000      -0.297119        -8.0850 
  46   2.0000      -0.293234        -7.9793 
  47   2.0000      -0.287980        -7.8363 
  48   2.0000      -0.258814        -7.0427 
  49   2.0000      -0.202472        -5.5095 
  50   2.0000      -0.138281        -3.7628 
  51   0.0000      -0.073117        -1.9896 
  52   0.0000      -0.001799        -0.0489 
  53   0.0000       0.009746         0.2652 
  54   0.0000       0.020482         0.5573 
  55   0.0000       0.029048         0.7904 
  56   0.0000       0.035514         0.9664 
  57   0.0000       0.042107         1.1458 
  58   0.0000       0.047809         1.3010 
  59   0.0000       0.054420         1.4808 
  60   0.0000       0.061784         1.6812 
  61   0.0000       0.071182         1.9370 
  62   0.0000       0.079800         2.1715 
  63   0.0000       0.086068         2.3420 
  64   0.0000       0.088259         2.4016 
  65   0.0000       0.094807         2.5798 
  66   0.0000       0.098930         2.6920 
  67   0.0000       0.106335         2.8935 
  68   0.0000       0.112483         3.0608 
  69   0.0000       0.120886         3.2895 
  70   0.0000       0.123411         3.3582 
  71   0.0000       0.127566         3.4712 
  72   0.0000       0.131324         3.5735 
  73   0.0000       0.138382         3.7656 
  74   0.0000       0.141235         3.8432 
  75   0.0000       0.152122         4.1395 
  76   0.0000       0.155417         4.2291 
  77   0.0000       0.160612         4.3705 
  78   0.0000       0.164003         4.4628 
  79   0.0000       0.168255         4.5785 
  80   0.0000       0.170708         4.6452 
  81   0.0000       0.185648         5.0517 
  82   0.0000       0.189760         5.1636 
  83   0.0000       0.193753         5.2723 
  84   0.0000       0.200304         5.4505 
  85   0.0000       0.204099         5.5538 
  86   0.0000       0.208871         5.6837 
  87   0.0000       0.214303         5.8315 
  88   0.0000       0.218544         5.9469 
  89   0.0000       0.224335         6.1045 
  90   0.0000       0.234530         6.3819 
  91   0.0000       0.238128         6.4798 
  92   0.0000       0.239235         6.5099 
  93   0.0000       0.244071         6.6415 
  94   0.0000       0.253087         6.8869 
  95   0.0000       0.262165         7.1339 
  96   0.0000       0.265443         7.2231 
  97   0.0000       0.269783         7.3412 
  98   0.0000       0.275240         7.4897 
  99   0.0000       0.277638         7.5549 
 100   0.0000       0.285557         7.7704 
 101   0.0000       0.286671         7.8007 
 102   0.0000       0.290885         7.9154 
 103   0.0000       0.295829         8.0499 
 104   0.0000       0.300448         8.1756 
 105   0.0000       0.306510         8.3406 
 106   0.0000       0.310045         8.4367 
 107   0.0000       0.314851         8.5675 
 108   0.0000       0.316454         8.6111 
 109   0.0000       0.322622         8.7790 
 110   0.0000       0.327414         8.9094 
 111   0.0000       0.330436         8.9916 
 112   0.0000       0.334928         9.1138 
 113   0.0000       0.339516         9.2387 
 114   0.0000       0.342821         9.3286 
 115   0.0000       0.348087         9.4719 
 116   0.0000       0.353123         9.6090 
 117   0.0000       0.353849         9.6287 
 118   0.0000       0.359072         9.7708 
 119   0.0000       0.361112         9.8264 
 120   0.0000       0.366889         9.9836 
 121   0.0000       0.373378        10.1601 
 122   0.0000       0.376802        10.2533 
 123   0.0000       0.379171        10.3178 
 124   0.0000       0.382532        10.4092 
 125   0.0000       0.386053        10.5050 
 126   0.0000       0.388866        10.5816 
 127   0.0000       0.396463        10.7883 
 128   0.0000       0.404603        11.0098 
 129   0.0000       0.408253        11.1091 
 130   0.0000       0.414661        11.2835 
 131   0.0000       0.417457        11.3596 
 132   0.0000       0.419903        11.4261 
 133   0.0000       0.428896        11.6709 
 134   0.0000       0.433006        11.7827 
 135   0.0000       0.436139        11.8680 
 136   0.0000       0.439685        11.9644 
 137   0.0000       0.443072        12.0566 
 138   0.0000       0.454625        12.3710 
 139   0.0000       0.456627        12.4255 
 140   0.0000       0.458773        12.4838 
 141   0.0000       0.462641        12.5891 
 142   0.0000       0.468221        12.7409 
 143   0.0000       0.474317        12.9068 
 144   0.0000       0.480399        13.0723 
 145   0.0000       0.484155        13.1745 
 146   0.0000       0.486232        13.2310 
 147   0.0000       0.488475        13.2921 
 148   0.0000       0.489744        13.3266 
 149   0.0000       0.495132        13.4732 
 150   0.0000       0.498995        13.5783 
 151   0.0000       0.505276        13.7493 
 152   0.0000       0.514105        13.9895 
 153   0.0000       0.518711        14.1149 
 154   0.0000       0.519032        14.1236 
 155   0.0000       0.525266        14.2932 
 156   0.0000       0.532154        14.4806 
 157   0.0000       0.545296        14.8383 
 158   0.0000       0.547190        14.8898 
 159   0.0000       0.551885        15.0176 
 160   0.0000       0.554296        15.0832 
 161   0.0000       0.557557        15.1719 
 162   0.0000       0.562394        15.3035 
 163   0.0000       0.564061        15.3489 
 164   0.0000       0.571407        15.5488 
 165   0.0000       0.576990        15.7007 
 166   0.0000       0.580401        15.7935 
 167   0.0000       0.581838        15.8326 
 168   0.0000       0.585868        15.9423 
 169   0.0000       0.592877        16.1330 
 170   0.0000       0.594662        16.1816 
 171   0.0000       0.606641        16.5075 
 172   0.0000       0.609623        16.5887 
 173   0.0000       0.617089        16.7918 
 174   0.0000       0.623737        16.9728 
 175   0.0000       0.625276        17.0146 
 176   0.0000       0.629041        17.1171 
 177   0.0000       0.636843        17.3294 
 178   0.0000       0.646097        17.5812 
 179   0.0000       0.650719        17.7070 
 180   0.0000       0.652374        17.7520 
 181   0.0000       0.657591        17.8940 
 182   0.0000       0.662489        18.0272 
 183   0.0000       0.663262        18.0483 
 184   0.0000       0.671830        18.2814 
 185   0.0000       0.684898        18.6370 
 186   0.0000       0.692340        18.8395 
 187   0.0000       0.702405        19.1134 
 188   0.0000       0.704939        19.1824 
 189   0.0000       0.708567        19.2811 
 190   0.0000       0.718742        19.5580 
 191   0.0000       0.725307        19.7366 
 192   0.0000       0.729402        19.8480 
 193   0.0000       0.736439        20.0395 
 194   0.0000       0.750878        20.4324 
 195   0.0000       0.759418        20.6648 
 196   0.0000       0.759950        20.6793 
 197   0.0000       0.765778        20.8379 
 198   0.0000       0.783195        21.3118 
 199   0.0000       0.791317        21.5328 
 200   0.0000       0.796884        21.6843 
 201   0.0000       0.806113        21.9355 
 202   0.0000       0.809824        22.0364 
 203   0.0000       0.812540        22.1103 
 204   0.0000       0.823635        22.4122 
 205   0.0000       0.837600        22.7923 
 206   0.0000       0.839133        22.8340 
 207   0.0000       0.856660        23.3109 
 208   0.0000       0.869794        23.6683 
 209   0.0000       0.875747        23.8303 
 210   0.0000       0.878034        23.8925 
 211   0.0000       0.890405        24.2291 
 212   0.0000       0.898087        24.4382 
 213   0.0000       0.913623        24.8610 
 214   0.0000       0.925643        25.1880 
 215   0.0000       0.932461        25.3736 
 216   0.0000       0.945497        25.7283 
 217   0.0000       0.956659        26.0320 
 218   0.0000       0.965630        26.2761 
 219   0.0000       0.971697        26.4412 
 220   0.0000       0.986550        26.8454 
 221   0.0000       0.988838        26.9077 
 222   0.0000       0.999717        27.2037 
 223   0.0000       1.012193        27.5432 
 224   0.0000       1.020042        27.7567 
 225   0.0000       1.025834        27.9144 
 226   0.0000       1.030647        28.0453 
 227   0.0000       1.034769        28.1575 
 228   0.0000       1.041969        28.3534 
 229   0.0000       1.055306        28.7163 
 230   0.0000       1.066850        29.0305 
 231   0.0000       1.069314        29.0975 
 232   0.0000       1.074269        29.2323 
 233   0.0000       1.077385        29.3171 
 234   0.0000       1.096556        29.8388 
 235   0.0000       1.100473        29.9454 
 236   0.0000       1.105627        30.0856 
 237   0.0000       1.119552        30.4646 
 238   0.0000       1.125684        30.6314 
 239   0.0000       1.138178        30.9714 
 240   0.0000       1.140368        31.0310 
 241   0.0000       1.163314        31.6554 
 242   0.0000       1.165311        31.7097 
 243   0.0000       1.169157        31.8144 
 244   0.0000       1.185801        32.2673 
 245   0.0000       1.190868        32.4052 
 246   0.0000       1.203037        32.7363 
 247   0.0000       1.212920        33.0052 
 248   0.0000       1.223150        33.2836 
 249   0.0000       1.241192        33.7745 
 250   0.0000       1.249222        33.9931 
 251   0.0000       1.253845        34.1189 
 252   0.0000       1.278964        34.8024 
 253   0.0000       1.285670        34.9849 
 254   0.0000       1.302799        35.4510 
 255   0.0000       1.312107        35.7043 
 256   0.0000       1.314844        35.7787 
 257   0.0000       1.331380        36.2287 
 258   0.0000       1.362063        37.0636 
 259   0.0000       1.380454        37.5641 
 260   0.0000       1.393774        37.9265 
 261   0.0000       1.407287        38.2942 
 262   0.0000       1.416343        38.5406 
 263   0.0000       1.459484        39.7146 
 264   0.0000       1.464681        39.8560 
 265   0.0000       1.492069        40.6013 
 266   0.0000       1.512421        41.1551 
 267   0.0000       1.524614        41.4869 
 268   0.0000       1.530371        41.6435 
 269   0.0000       1.557708        42.3874 
 270   0.0000       1.569203        42.7002 
 271   0.0000       1.569914        42.7195 
 272   0.0000       1.589009        43.2391 
 273   0.0000       1.603425        43.6314 
 274   0.0000       1.609329        43.7921 
 275   0.0000       1.619378        44.0655 
 276   0.0000       1.651800        44.9478 
 277   0.0000       1.662285        45.2331 
 278   0.0000       1.673066        45.5264 
 279   0.0000       1.694310        46.1045 
 280   0.0000       1.703618        46.3578 
 281   0.0000       1.713777        46.6342 
 282   0.0000       1.745859        47.5073 
 283   0.0000       1.749266        47.5999 
 284   0.0000       1.760756        47.9126 
 285   0.0000       1.770689        48.1829 
 286   0.0000       1.781872        48.4872 
 287   0.0000       1.789813        48.7033 
 288   0.0000       1.818994        49.4973 
 289   0.0000       1.830714        49.8162 
 290   0.0000       1.831725        49.8438 
 291   0.0000       1.843320        50.1593 
 292   0.0000       1.856164        50.5088 
 293   0.0000       1.865666        50.7673 
 294   0.0000       1.877940        51.1014 
 295   0.0000       1.883029        51.2398 
 296   0.0000       1.892595        51.5001 
 297   0.0000       1.904320        51.8192 
 298   0.0000       1.914019        52.0831 
 299   0.0000       1.921618        52.2899 
 300   0.0000       1.935153        52.6582 
 301   0.0000       1.947589        52.9966 
 302   0.0000       1.960364        53.3442 
 303   0.0000       1.969142        53.5831 
 304   0.0000       1.974406        53.7263 
 305   0.0000       1.982800        53.9547 
 306   0.0000       1.994621        54.2764 
 307   0.0000       2.003495        54.5179 
 308   0.0000       2.010382        54.7053 
 309   0.0000       2.023761        55.0693 
 310   0.0000       2.032963        55.3197 
 311   0.0000       2.034963        55.3742 
 312   0.0000       2.047937        55.7272 
 313   0.0000       2.052640        55.8552 
 314   0.0000       2.071086        56.3571 
 315   0.0000       2.080099        56.6024 
 316   0.0000       2.084045        56.7098 
 317   0.0000       2.095378        57.0181 
 318   0.0000       2.108069        57.3635 
 319   0.0000       2.121054        57.7168 
 320   0.0000       2.126936        57.8769 
 321   0.0000       2.151049        58.5330 
 322   0.0000       2.156955        58.6937 
 323   0.0000       2.167294        58.9751 
 324   0.0000       2.169101        59.0242 
 325   0.0000       2.189521        59.5799 
 326   0.0000       2.191065        59.6219 
 327   0.0000       2.221205        60.4421 
 328   0.0000       2.237433        60.8836 
 329   0.0000       2.242775        61.0290 
 330   0.0000       2.260486        61.5109 
 331   0.0000       2.277812        61.9824 
 332   0.0000       2.286939        62.2308 
 333   0.0000       2.297116        62.5077 
 334   0.0000       2.306958        62.7755 
 335   0.0000       2.333354        63.4938 
 336   0.0000       2.337254        63.5999 
 337   0.0000       2.350946        63.9725 
 338   0.0000       2.365908        64.3796 
 339   0.0000       2.377052        64.6829 
 340   0.0000       2.387056        64.9551 
 341   0.0000       2.398051        65.2543 
 342   0.0000       2.414288        65.6961 
 343   0.0000       2.445070        66.5337 
 344   0.0000       2.456280        66.8388 
 345   0.0000       2.471030        67.2402 
 346   0.0000       2.485751        67.6407 
 347   0.0000       2.495794        67.9140 
 348   0.0000       2.509619        68.2902 
 349   0.0000       2.523091        68.6568 
 350   0.0000       2.545908        69.2777 
 351   0.0000       2.552041        69.4446 
 352   0.0000       2.570958        69.9593 
 353   0.0000       2.584773        70.3352 
 354   0.0000       2.598135        70.6989 
 355   0.0000       2.616724        71.2047 
 356   0.0000       2.633878        71.6715 
 357   0.0000       2.637293        71.7644 
 358   0.0000       2.650416        72.1215 
 359   0.0000       2.661021        72.4101 
 360   0.0000       2.698518        73.4304 
 361   0.0000       2.705807        73.6287 
 362   0.0000       2.722444        74.0815 
 363   0.0000       2.738539        74.5194 
 364   0.0000       2.760241        75.1100 
 365   0.0000       2.783417        75.7406 
 366   0.0000       2.811989        76.5181 
 367   0.0000       2.844669        77.4074 
 368   0.0000       2.853203        77.6396 
 369   0.0000       2.900233        78.9194 
 370   0.0000       2.922797        79.5333 
 371   0.0000       2.947982        80.2187 
 372   0.0000       2.973104        80.9023 
 373   0.0000       2.982475        81.1573 
 374   0.0000       3.011431        81.9452 
 375   0.0000       3.037950        82.6668 
 376   0.0000       3.058240        83.2189 
 377   0.0000       3.105599        84.5076 
 378   0.0000       3.113560        84.7243 
 379   0.0000       3.123606        84.9977 
 380   0.0000       3.152375        85.7805 
 381   0.0000       3.176028        86.4241 
 382   0.0000       3.180587        86.5482 
 383   0.0000       3.202902        87.1554 
 384   0.0000       3.214181        87.4623 
 385   0.0000       3.225209        87.7624 
 386   0.0000       3.235858        88.0522 
 387   0.0000       3.247055        88.3569 
 388   0.0000       3.283676        89.3534 
 389   0.0000       3.297942        89.7416 
 390   0.0000       3.325962        90.5040 
 391   0.0000       3.387160        92.1693 
 392   0.0000       3.409314        92.7721 
 393   0.0000       3.436740        93.5184 
 394   0.0000       3.447786        93.8190 
 395   0.0000       3.475736        94.5796 
 396   0.0000       3.532350        96.1201 
 397   0.0000       3.569636        97.1347 
 398   0.0000       3.678170       100.0881 
 399   0.0000       3.762807       102.3912 
 400   0.0000       3.784025       102.9686 
 401   0.0000       4.082797       111.0985 

                    ********************************
                    * MULLIKEN POPULATION ANALYSIS *
                    ********************************

-----------------------
MULLIKEN ATOMIC CHARGES
-----------------------
   0 C :    0.770161
   1 N :   -0.435154
   2 C :    0.479409
   3 C :    0.095661
   4 H :    0.198757
   5 H :   -0.217868
   6 C :    0.634987
   7 C :    0.541621
   8 C :    0.569447
   9 N :    0.073147
  10 H :    0.044912
  11 H :   -0.124766
  12 H :   -0.208857
  13 H :    0.022717
  14 H :   -0.672089
  15 O :   -0.540400
  16 F :   -0.525902
  17 C :    0.283144
  18 H :   -0.350597
  19 H :    0.020160
  20 C :   -0.031570
  21 H :    0.041390
  22 H :   -0.047100
  23 C :   -0.132008
  24 H :   -0.161741
  25 H :   -0.123217
  26 H :   -0.116001
  27 H :   -0.095091
  28 H :   -0.073139
  29 H :    0.079987
Sum of atomic charges:    0.0000000

--------------------------------
MULLIKEN REDUCED ORBITAL CHARGES
--------------------------------
  0 C s       :     2.619740  s :     2.619740
      pz      :     0.805489  p :     2.449578
      px      :     0.742836
      py      :     0.901252
      dz2     :     0.053217  d :     0.160521
      dxz     :    -0.037740
      dyz     :     0.075682
      dx2y2   :    -0.001965
      dxy     :     0.071327
  1 N s       :     3.487140  s :     3.487140
      pz      :     1.094444  p :     3.757783
      px      :     1.025756
      py      :     1.637582
      dz2     :     0.045091  d :     0.190231
      dxz     :     0.053426
      dyz     :     0.083933
      dx2y2   :     0.014079
      dxy     :    -0.006297
  2 C s       :     2.603091  s :     2.603091
      pz      :     0.827680  p :     2.642338
      px      :     0.927534
      py      :     0.887124
      dz2     :     0.037945  d :     0.275162
      dxz     :     0.010032
      dyz     :     0.140133
      dx2y2   :     0.085058
      dxy     :     0.001995
  3 C s       :     2.718683  s :     2.718683
      pz      :     0.956514  p :     2.870878
      px      :     0.915594
      py      :     0.998770
      dz2     :     0.101012  d :     0.314778
      dxz     :     0.108609
      dyz     :     0.037303
      dx2y2   :     0.011614
      dxy     :     0.056240
  4 H s       :     0.797027  s :     0.797027
      pz      :    -0.010513  p :     0.004216
      px      :    -0.013183
      py      :     0.027912
  5 H s       :     1.187894  s :     1.187894
      pz      :     0.006758  p :     0.029974
      px      :     0.010822
      py      :     0.012393
  6 C s       :     3.003962  s :     3.003962
      pz      :     0.711418  p :     2.131544
      px      :     0.701906
      py      :     0.718220
      dz2     :     0.074769  d :     0.229507
      dxz     :     0.001479
      dyz     :     0.008389
      dx2y2   :     0.038812
      dxy     :     0.106058
  7 C s       :     2.865596  s :     2.865596
      pz      :     0.782725  p :     2.410355
      px      :     0.740479
      py      :     0.887151
      dz2     :    -0.079439  d :     0.182428
      dxz     :     0.087176
      dyz     :     0.022389
      dx2y2   :    -0.060739
      dxy     :     0.213041
  8 C s       :     2.399729  s :     2.399729
      pz      :     0.946129  p :     2.835438
      px      :     0.928059
      py      :     0.961249
      dz2     :     0.045803  d :     0.195386
      dxz     :     0.088622
      dyz     :     0.000272
      dx2y2   :     0.025455
      dxy     :     0.035234
  9 N s       :     3.228624  s :     3.228624
      pz      :     1.299423  p :     3.660497
      px      :     1.092770
      py      :     1.268305
      dz2     :     0.021329  d :     0.037732
      dxz     :     0.000859
      dyz     :     0.003546
      dx2y2   :     0.008169
      dxy     :     0.003829
 10 H s       :     0.927192  s :     0.927192
      pz      :     0.006713  p :     0.027896
      px      :     0.006349
      py      :     0.014834
 11 H s       :     1.060313  s :     1.060313
      pz      :     0.059953  p :     0.064453
      px      :    -0.005200
      py      :     0.009700
 12 H s       :     1.171361  s :     1.171361
      pz      :    -0.007355  p :     0.037497
      px      :     0.004512
      py      :     0.040339
 13 H s       :     1.062654  s :     1.062654
      pz      :    -0.045615  p :    -0.085371
      px      :    -0.005949
      py      :    -0.033807
 14 H s       :     1.629139  s :     1.629139
      pz      :     0.001000  p :     0.042950
      px      :     0.102326
      py      :    -0.060375
 15 O s       :     3.899761  s :     3.899761
      pz      :     1.489449  p :     4.593323
      px      :     1.369794
      py      :     1.734079
      dz2     :     0.011613  d :     0.047316
      dxz     :     0.008827
      dyz     :     0.012086
      dx2y2   :     0.010090
      dxy     :     0.004700
 16 F s       :     4.103893  s :     4.103893
      pz      :     1.952512  p :     5.374974
      px      :     1.785805
      py      :     1.636657
      dz2     :     0.006298  d :     0.047035
      dxz     :     0.006912
      dyz     :     0.008568
      dx2y2   :     0.012857
      dxy     :     0.012399
 17 C s       :     2.685783  s :     2.685783
      pz      :     0.923096  p :     2.731378
      px      :     0.852483
      py      :     0.955799
      dz2     :     0.142472  d :     0.299695
      dxz     :    -0.024426
      dyz     :     0.022747
      dx2y2   :     0.136384
      dxy     :     0.022519
 18 H s       :     1.322918  s :     1.322918
      pz      :     0.023158  p :     0.027679
      px      :     0.000315
      py      :     0.004207
 19 H s       :     0.951915  s :     0.951915
      pz      :     0.037630  p :     0.027925
      px      :     0.002646
      py      :    -0.012351
 20 C s       :     2.721928  s :     2.721928
      pz      :     0.922967  p :     2.733106
      px      :     0.982116
      py      :     0.828022
      dz2     :     0.052280  d :     0.576537
      dxz     :     0.167788
      dyz     :     0.090375
      dx2y2   :     0.132096
      dxy     :     0.133998
 21 H s       :     0.951555  s :     0.951555
      pz      :     0.049518  p :     0.007055
      px      :    -0.026363
      py      :    -0.016101
 22 H s       :     1.041620  s :     1.041620
      pz      :    -0.024444  p :     0.005480
      px      :     0.041375
      py      :    -0.011451
 23 C s       :     2.748831  s :     2.748831
      pz      :     0.814749  p :     2.789956
      px      :     1.000743
      py      :     0.974463
      dz2     :     0.068007  d :     0.593221
      dxz     :     0.115153
      dyz     :     0.046278
      dx2y2   :     0.170512
      dxy     :     0.193271
 24 H s       :     1.092528  s :     1.092528
      pz      :     0.048482  p :     0.069213
      px      :     0.000876
      py      :     0.019854
 25 H s       :     1.100093  s :     1.100093
      pz      :    -0.021873  p :     0.023124
      px      :    -0.007349
      py      :     0.052345
 26 H s       :     0.947379  s :     0.947379
      pz      :     0.062913  p :     0.168622
      px      :     0.001957
      py      :     0.103752
 27 H s       :     1.071231  s :     1.071231
      pz      :     0.037994  p :     0.023860
      px      :     0.009149
      py      :    -0.023284
 28 H s       :     1.059202  s :     1.059202
      pz      :     0.021157  p :     0.013937
      px      :    -0.015915
      py      :     0.008696
 29 H s       :     0.948684  s :     0.948684
      pz      :    -0.029167  p :    -0.028671
      px      :     0.041557
      py      :    -0.041061


                     *******************************
                     * LOEWDIN POPULATION ANALYSIS *
                     *******************************

----------------------
LOEWDIN ATOMIC CHARGES
----------------------
   0 C :    0.066206
   1 N :    0.003650
   2 C :   -0.011660
   3 C :    0.068204
   4 H :    0.030172
   5 H :    0.034345
   6 C :    0.021267
   7 C :   -0.228051
   8 C :    0.184553
   9 N :    0.216950
  10 H :   -0.009814
  11 H :   -0.079649
  12 H :    0.010961
  13 H :   -0.091117
  14 H :   -0.139680
  15 O :   -0.126882
  16 F :   -0.032992
  17 C :   -0.009102
  18 H :    0.013346
  19 H :    0.002200
  20 C :   -0.015474
  21 H :    0.016814
  22 H :    0.014345
  23 C :   -0.016556
  24 H :    0.000504
  25 H :    0.020881
  26 H :   -0.008561
  27 H :    0.023408
  28 H :    0.021653
  29 H :    0.020081

-------------------------------
LOEWDIN REDUCED ORBITAL CHARGES
-------------------------------
  0 C s       :     2.667412  s :     2.667412
      pz      :     0.789428  p :     2.575732
      px      :     0.892618
      py      :     0.893686
      dz2     :     0.155165  d :     0.690650
      dxz     :     0.123277
      dyz     :     0.194379
      dx2y2   :     0.084008
      dxy     :     0.133820
  1 N s       :     2.930940  s :     2.930940
      pz      :     1.051740  p :     3.473317
      px      :     1.053773
      py      :     1.367805
      dz2     :     0.181384  d :     0.592092
      dxz     :     0.153504
      dyz     :     0.130367
      dx2y2   :     0.069140
      dxy     :     0.057697
  2 C s       :     2.684883  s :     2.684883
      pz      :     0.869592  p :     2.674765
      px      :     0.902575
      py      :     0.902599
      dz2     :     0.134950  d :     0.652012
      dxz     :     0.096648
      dyz     :     0.187199
      dx2y2   :     0.130560
      dxy     :     0.102656
  3 C s       :     2.683088  s :     2.683088
      pz      :     0.870155  p :     2.668053
      px      :     0.917963
      py      :     0.879935
      dz2     :     0.154682  d :     0.580655
      dxz     :     0.118686
      dyz     :     0.141641
      dx2y2   :     0.050112
      dxy     :     0.115533
  4 H s       :     0.713063  s :     0.713063
      pz      :     0.065856  p :     0.256765
      px      :     0.108752
      py      :     0.082157
  5 H s       :     0.719965  s :     0.719965
      pz      :     0.066603  p :     0.245690
      px      :     0.099940
      py      :     0.079147
  6 C s       :     2.638837  s :     2.638837
      pz      :     0.765843  p :     2.282501
      px      :     0.771544
      py      :     0.745115
      dz2     :     0.190313  d :     1.057395
      dxz     :     0.191837
      dyz     :     0.186215
      dx2y2   :     0.222126
      dxy     :     0.266904
  7 C s       :     2.629200  s :     2.629200
      pz      :     0.816494  p :     2.511231
      px      :     0.922241
      py      :     0.772496
      dz2     :     0.213108  d :     1.087620
      dxz     :     0.283417
      dyz     :     0.179562
      dx2y2   :     0.187374
      dxy     :     0.224159
  8 C s       :     2.709524  s :     2.709524
      pz      :     0.907669  p :     2.731026
      px      :     0.917984
      py      :     0.905373
      dz2     :     0.048045  d :     0.374898
      dxz     :     0.097355
      dyz     :     0.046834
      dx2y2   :     0.076289
      dxy     :     0.106376
  9 N s       :     2.950580  s :     2.950580
      pz      :     1.202464  p :     3.467167
      px      :     1.088955
      py      :     1.175748
      dz2     :     0.086939  d :     0.365303
      dxz     :     0.070356
      dyz     :     0.062832
      dx2y2   :     0.042593
      dxy     :     0.102583
 10 H s       :     0.668471  s :     0.668471
      pz      :     0.100007  p :     0.341343
      px      :     0.123730
      py      :     0.117606
 11 H s       :     0.615316  s :     0.615316
      pz      :     0.119838  p :     0.464333
      px      :     0.175427
      py      :     0.169068
 12 H s       :     0.658954  s :     0.658954
      pz      :     0.075208  p :     0.330085
      px      :     0.134101
      py      :     0.120776
 13 H s       :     0.752975  s :     0.752975
      pz      :     0.149127  p :     0.338141
      px      :     0.078027
      py      :     0.110988
 14 H s       :     0.709093  s :     0.709093
      pz      :     0.121945  p :     0.430587
      px      :     0.138257
      py      :     0.170385
 15 O s       :     3.437409  s :     3.437409
      pz      :     1.458607  p :     4.426055
      px      :     1.374569
      py      :     1.592879
      dz2     :     0.047862  d :     0.263418
      dxz     :     0.071851
      dyz     :     0.028805
      dx2y2   :     0.041767
      dxy     :     0.073132
 16 F s       :     3.591732  s :     3.591732
      pz      :     1.808361  p :     5.171434
      px      :     1.722467
      py      :     1.640606
      dz2     :     0.033089  d :     0.269827
      dxz     :     0.026146
      dyz     :     0.046835
      dx2y2   :     0.065605
      dxy     :     0.098151
 17 C s       :     2.696804  s :     2.696804
      pz      :     0.892474  p :     2.674204
      px      :     0.893770
      py      :     0.887960
      dz2     :     0.151501  d :     0.638094
      dxz     :     0.059402
      dyz     :     0.115459
      dx2y2   :     0.165513
      dxy     :     0.146219
 18 H s       :     0.745110  s :     0.745110
      pz      :     0.071853  p :     0.241544
      px      :     0.087285
      py      :     0.082407
 19 H s       :     0.716360  s :     0.716360
      pz      :     0.079535  p :     0.281440
      px      :     0.127800
      py      :     0.074105
 20 C s       :     2.681002  s :     2.681002
      pz      :     0.899207  p :     2.664061
      px      :     0.880245
      py      :     0.884609
      dz2     :     0.112459  d :     0.670411
      dxz     :     0.136748
      dyz     :     0.105497
      dx2y2   :     0.169536
      dxy     :     0.146171
 21 H s       :     0.730467  s :     0.730467
      pz      :     0.115738  p :     0.252719
      px      :     0.076170
      py      :     0.060811
 22 H s       :     0.735607  s :     0.735607
      pz      :     0.065967  p :     0.250048
      px      :     0.116627
      py      :     0.067454
 23 C s       :     2.680756  s :     2.680756
      pz      :     0.895086  p :     2.667141
      px      :     0.878539
      py      :     0.893516
      dz2     :     0.110217  d :     0.668659
      dxz     :     0.130795
      dyz     :     0.096767
      dx2y2   :     0.170027
      dxy     :     0.160854
 24 H s       :     0.709303  s :     0.709303
      pz      :     0.138837  p :     0.290193
      px      :     0.072135
      py      :     0.079221
 25 H s       :     0.731371  s :     0.731371
      pz      :     0.079285  p :     0.247749
      px      :     0.061730
      py      :     0.106734
 26 H s       :     0.706918  s :     0.706918
      pz      :     0.113562  p :     0.301643
      px      :     0.071051
      py      :     0.117030
 27 H s       :     0.731268  s :     0.731268
      pz      :     0.117161  p :     0.245324
      px      :     0.063576
      py      :     0.064587
 28 H s       :     0.731642  s :     0.731642
      pz      :     0.086627  p :     0.246705
      px      :     0.065139
      py      :     0.094939
 29 H s       :     0.729456  s :     0.729456
      pz      :     0.063543  p :     0.250463
      px      :     0.113111
      py      :     0.073809


                      *****************************
                      * MAYER POPULATION ANALYSIS *
                      *****************************

  NA   - Mulliken gross atomic population
  ZA   - Total nuclear charge
  QA   - Mulliken gross atomic charge
  VA   - Mayer's total valence
  BVA  - Mayer's bonded valence
  FA   - Mayer's free valence

  ATOM       NA         ZA         QA         VA         BVA        FA
  0 C      5.2298     6.0000     0.7702     3.9364     3.9364     0.0000
  1 N      7.4352     7.0000    -0.4352     3.9625     3.9625     0.0000
  2 C      5.5206     6.0000     0.4794     4.3314     4.3314    -0.0000
  3 C      5.9043     6.0000     0.0957     4.4966     4.4966    -0.0000
  4 H      0.8012     1.0000     0.1988     0.9258     0.9258    -0.0000
  5 H      1.2179     1.0000    -0.2179     1.1075     1.1075     0.0000
  6 C      5.3650     6.0000     0.6350     4.1291     4.1291    -0.0000
  7 C      5.4584     6.0000     0.5416     4.1665     4.1665     0.0000
  8 C      5.4306     6.0000     0.5694     3.1900     3.1900     0.0000
  9 N      6.9269     7.0000     0.0731     3.1159     3.1159    -0.0000
 10 H      0.9551     1.0000     0.0449     0.8441     0.8441     0.0000
 11 H      1.1248     1.0000    -0.1248     0.9809     0.9809    -0.0000
 12 H      1.2089     1.0000    -0.2089     0.9305     0.9305     0.0000
 13 H      0.9773     1.0000     0.0227     0.7399     0.7399     0.0000
 14 H      1.6721     1.0000    -0.6721     0.8245     0.8245     0.0000
 15 O      8.5404     8.0000    -0.5404     1.8829     1.8829    -0.0000
 16 F      9.5259     9.0000    -0.5259     1.0326     1.0326    -0.0000
 17 C      5.7169     6.0000     0.2831     4.3656     4.3656     0.0000
 18 H      1.3506     1.0000    -0.3506     1.0049     1.0049     0.0000
 19 H      0.9798     1.0000     0.0202     0.9863     0.9863    -0.0000
 20 C      6.0316     6.0000    -0.0316     5.0956     5.0956    -0.0000
 21 H      0.9586     1.0000     0.0414     0.9928     0.9928     0.0000
 22 H      1.0471     1.0000    -0.0471     1.0101     1.0101     0.0000
 23 C      6.1320     6.0000    -0.1320     5.3228     5.3228    -0.0000
 24 H      1.1617     1.0000    -0.1617     1.2743     1.2743    -0.0000
 25 H      1.1232     1.0000    -0.1232     1.0971     1.0971     0.0000
 26 H      1.1160     1.0000    -0.1160     1.3262     1.3262     0.0000
 27 H      1.0951     1.0000    -0.0951     1.0811     1.0811     0.0000
 28 H      1.0731     1.0000    -0.0731     1.0362     1.0362     0.0000
 29 H      0.9200     1.0000     0.0800     0.9006     0.9006    -0.0000

  Mayer bond orders larger than 0.100000
B(  0-C ,  1-N ) :   0.9227 B(  0-C ,  8-C ) :   0.1063 B(  0-C , 17-C ) :   1.0817 
B(  0-C , 18-H ) :   0.8272 B(  0-C , 19-H ) :   0.7574 B(  0-C , 21-H ) :   0.1561 
B(  0-C , 22-H ) :   0.1165 B(  1-N ,  7-C ) :   0.9689 B(  1-N ,  8-C ) :   0.3246 
B(  1-N ,  9-N ) :   0.1862 B(  1-N , 12-H ) :   1.0986 B(  1-N , 18-H ) :   0.2151 
B(  1-N , 19-H ) :   0.1177 B(  2-C ,  3-C ) :   1.1587 B(  2-C ,  5-H ) :   0.1726 
B(  2-C , 23-C ) :   1.2626 B(  2-C , 28-H ) :   0.8062 B(  2-C , 29-H ) :   0.6538 
B(  3-C ,  4-H ) :   0.8264 B(  3-C ,  5-H ) :   0.7911 B(  3-C ,  6-C ) :   1.1919 
B(  3-C , 16-F ) :   0.1084 B(  3-C , 28-H ) :   0.1354 B(  4-H ,  6-C ) :   0.1864 
B(  5-H ,  6-C ) :   0.1963 B(  6-C , 14-H ) :   0.1484 B(  6-C , 15-O ) :   1.5707 
B(  6-C , 16-F ) :   0.5956 B(  7-C ,  8-C ) :   1.6943 B(  7-C ,  9-N ) :   0.7654 
B(  7-C , 13-H ) :   0.3260 B(  7-C , 14-H ) :   0.1440 B(  8-C ,  9-N ) :   0.2607 
B(  8-C , 13-H ) :   0.3817 B(  8-C , 14-H ) :   0.3751 B(  9-N , 10-H ) :   0.8598 
B(  9-N , 11-H ) :   0.8911 B( 11-H , 15-O ) :   0.1090 B( 13-H , 14-H ) :  -0.1105 
B( 14-H , 16-F ) :   0.2268 B( 17-C , 18-H ) :   0.1048 B( 17-C , 19-H ) :   0.1245 
B( 17-C , 20-C ) :   1.2299 B( 17-C , 21-H ) :   0.7918 B( 17-C , 22-H ) :   0.7506 
B( 17-C , 24-H ) :   0.1235 B( 18-H , 19-H ) :  -0.1298 B( 20-C , 21-H ) :   0.1696 
B( 20-C , 22-H ) :   0.2279 B( 20-C , 23-C ) :   1.2961 B( 20-C , 24-H ) :   0.9262 
B( 20-C , 25-H ) :   0.8339 B( 20-C , 26-H ) :   0.1533 B( 20-C , 27-H ) :   0.2199 
B( 23-C , 24-H ) :   0.1589 B( 23-C , 25-H ) :   0.2051 B( 23-C , 26-H ) :   0.9452 
B( 23-C , 27-H ) :   0.7858 B( 23-C , 28-H ) :   0.1644 B( 23-C , 29-H ) :   0.2271 
B( 28-H , 29-H ) :  -0.1036 

-------
TIMINGS
-------

Total SCF time: 0 days 0 hours 1 min 10 sec 

Total time                  ....      70.972 sec
Sum of individual times     ....      70.464 sec  ( 99.3%)

Fock matrix formation       ....      67.072 sec  ( 94.5%)
  Split-RI-J                ....      11.756 sec  ( 17.5% of F)
  XC integration            ....      55.139 sec  ( 82.2% of F)
    Basis function eval.    ....       7.231 sec  ( 13.1% of XC)
    Density eval.           ....      22.181 sec  ( 40.2% of XC)
    XC-Functional eval.     ....       1.510 sec  (  2.7% of XC)
    XC-Potential eval.      ....      23.093 sec  ( 41.9% of XC)
Diagonalization             ....       0.336 sec  (  0.5%)
Density matrix formation    ....       0.033 sec  (  0.0%)
Population analysis         ....       0.039 sec  (  0.1%)
Initial guess               ....       0.806 sec  (  1.1%)
Orbital Transformation      ....       0.000 sec  (  0.0%)
Orbital Orthonormalization  ....       0.000 sec  (  0.0%)
DIIS solution               ....       0.170 sec  (  0.2%)
SOSCF solution              ....       0.425 sec  (  0.6%)
Grid generation             ....       1.583 sec  (  2.2%)

Maximum memory used throughout the entire SCF-calculation: 63.2 MB


-------------------------------------------------------------------------------
                          DFT DISPERSION CORRECTION                            
                                                                               
                              DFTD3 V3.1  Rev 1                                
                          USING Becke-Johnson damping                          
-------------------------------------------------------------------------------
The TPSS functional is recognized
Active option DFTDOPT                   ...         4   

molecular C6(AA) [au] = 7126.540385 


            DFT-D V3
 parameters
 s6 scaling factor         :     1.0000 
 a1 scaling factor         :     0.4535 
 s8 scaling factor         :     1.9435 
 a2 scaling factor         :     4.4752 
 ad hoc parameters k1-k3   :    16.0000     1.3333    -4.0000 

 Edisp/kcal,au: -27.605259657566  -0.043991776784 
 E6   /kcal   : -14.468163223 
 E8   /kcal   : -13.137096435 
 % E8         :  47.589106560 

-------------------------   ----------------
Dispersion correction           -0.043991777
-------------------------   ----------------


-------------------------   --------------------
FINAL SINGLE POINT ENERGY      -637.409537455530
-------------------------   --------------------


                            ***************************************
                            *     ORCA property calculations      *
                            ***************************************

                                    ---------------------
                                    Active property flags
                                    ---------------------
   (+) Dipole Moment


------------------------------------------------------------------------------
                       ORCA ELECTRIC PROPERTIES CALCULATION
------------------------------------------------------------------------------

Dipole Moment Calculation                       ... on
Quadrupole Moment Calculation                   ... off
Polarizability Calculation                      ... off
GBWName                                         ... 28Oct_SVPD_TPSS_D5_wb97.gbw
Electron density file                           ... 28Oct_SVPD_TPSS_D5_wb97.scfp
The origin for moment calculation is the CENTER OF MASS  = ( 1.513141, -2.410234 -7.609532)

-------------
DIPOLE MOMENT
-------------
                                X             Y             Z
Electronic contribution:     -4.31119       0.09792     -12.46063
Nuclear contribution   :      4.07548       1.14852      13.79455
                        -----------------------------------------
Total Dipole Moment    :     -0.23570       1.24644       1.33392
                        -----------------------------------------
Magnitude (a.u.)       :      1.84079
Magnitude (Debye)      :      4.67891



--------------------
Rotational spectrum 
--------------------
 
Rotational constants in cm-1:     0.033274     0.023559     0.016968 
Rotational constants in MHz :   997.539108   706.293545   508.690532 

 Dipole components along the rotational axes: 
x,y,z [a.u.] :     0.520453     1.631043    -0.676263 
x,y,z [Debye]:     1.322887     4.145781    -1.718924 

 

Timings for individual modules:

Sum of individual times         ...       72.098 sec (=   1.202 min)
GTO integral calculation        ...        0.742 sec (=   0.012 min)   1.0 %
SCF iterations                  ...       71.355 sec (=   1.189 min)  99.0 %
                             ****ORCA TERMINATED NORMALLY****
TOTAL RUN TIME: 0 days 0 hours 1 minutes 12 seconds 788 msec
