
                                        *****************
                                        * O   R   C   A *
                                        *****************

                                            #,                                       
                                            ###                                      
                                            ####                                     
                                            #####                                    
                                            ######                                   
                                           ########,                                 
                                     ,,################,,,,,                         
                               ,,#################################,,                 
                          ,,##########################################,,             
                       ,#########################################, ''#####,          
                    ,#############################################,,   '####,        
                  ,##################################################,,,,####,       
                ,###########''''           ''''###############################       
              ,#####''   ,,,,##########,,,,          '''####'''          '####       
            ,##' ,,,,###########################,,,                        '##       
           ' ,,###''''                  '''############,,,                           
         ,,##''                                '''############,,,,        ,,,,,,###''
      ,#''                                            '''#######################'''  
     '                                                          ''''####''''         
             ,#######,   #######,   ,#######,      ##                                
            ,#'     '#,  ##    ##  ,#'     '#,    #''#        ######   ,####,        
            ##       ##  ##   ,#'  ##            #'  '#       #        #'  '#        
            ##       ##  #######   ##           ,######,      #####,   #    #        
            '#,     ,#'  ##    ##  '#,     ,#' ,#      #,         ##   #,  ,#        
             '#######'   ##     ##  '#######'  #'      '#     #####' # '####'        



                  #######################################################
                  #                        -***-                        #
                  #          Department of theory and spectroscopy      #
                  #    Directorship and core code : Frank Neese         #
                  #        Max Planck Institute fuer Kohlenforschung    #
                  #                Kaiser Wilhelm Platz 1               #
                  #                 D-45470 Muelheim/Ruhr               #
                  #                      Germany                        #
                  #                                                     #
                  #                  All rights reserved                #
                  #                        -***-                        #
                  #######################################################


                         Program Version 5.0.0 -  RELEASE  -
                                (SVN: $Rev: 19529$)
                ($Date: 2021-06-28 11:36:33 +0200 (Mo, 28 Jun 2021) $)


 With contributions from (in alphabetic order):
   Daniel Aravena         : Magnetic Suceptibility
   Michael Atanasov       : Ab Initio Ligand Field Theory (pilot matlab implementation)
   Alexander A. Auer      : GIAO ZORA, VPT2 properties, NMR spectrum
   Ute Becker             : Parallelization
   Giovanni Bistoni       : ED, misc. LED, open-shell LED, HFLD
   Martin Brehm           : Molecular dynamics
   Dmytro Bykov           : SCF Hessian
   Vijay G. Chilkuri      : MRCI spin determinant printing, contributions to CSF-ICE
   Dipayan Datta          : RHF DLPNO-CCSD density
   Achintya Kumar Dutta   : EOM-CC, STEOM-CC
   Dmitry Ganyushin       : Spin-Orbit,Spin-Spin,Magnetic field MRCI
   Miquel Garcia          : C-PCM Hessian, Gaussian charge scheme
   Yang Guo               : DLPNO-NEVPT2, F12-NEVPT2, CIM, IAO-localization
   Andreas Hansen         : Spin unrestricted coupled pair/coupled cluster methods
   Benjamin Helmich-Paris : MC-RPA, TRAH-SCF, COSX integrals
   Lee Huntington         : MR-EOM, pCC
   Robert Izsak           : Overlap fitted RIJCOSX, COSX-SCS-MP3, EOM
   Marcus Kettner         : VPT2
   Christian Kollmar      : KDIIS, OOCD, Brueckner-CCSD(T), CCSD density, CASPT2, CASPT2-K
   Simone Kossmann        : Meta GGA functionals, TD-DFT gradient, OOMP2, MP2 Hessian
   Martin Krupicka        : Initial AUTO-CI
   Lucas Lang             : DCDCAS
   Marvin Lechner         : AUTO-CI (C++ implementation), FIC-MRCC
   Dagmar Lenk            : GEPOL surface, SMD
   Dimitrios Liakos       : Extrapolation schemes; Compound Job, initial MDCI parallelization
   Dimitrios Manganas     : Further ROCIS development; embedding schemes
   Dimitrios Pantazis     : SARC Basis sets
   Anastasios Papadopoulos: AUTO-CI, single reference methods and gradients
   Taras Petrenko         : DFT Hessian,TD-DFT gradient, ASA, ECA, R-Raman, ABS, FL, XAS/XES, NRVS
   Peter Pinski           : DLPNO-MP2, DLPNO-MP2 Gradient
   Christoph Reimann      : Effective Core Potentials
   Marius Retegan         : Local ZFS, SOC
   Christoph Riplinger    : Optimizer, TS searches, QM/MM, DLPNO-CCSD(T), (RO)-DLPNO pert. Triples
   Tobias Risthaus        : Range-separated hybrids, TD-DFT gradient, RPA, STAB
   Michael Roemelt        : Original ROCIS implementation
   Masaaki Saitow         : Open-shell DLPNO-CCSD energy and density
   Barbara Sandhoefer     : DKH picture change effects
   Avijit Sen             : IP-ROCIS
   Kantharuban Sivalingam : CASSCF convergence, NEVPT2, FIC-MRCI
   Bernardo de Souza      : ESD, SOC TD-DFT
   Georgi Stoychev        : AutoAux, RI-MP2 NMR
   Willem Van den Heuvel  : Paramagnetic NMR
   Boris Wezisla          : Elementary symmetry handling
   Frank Wennmohs         : Technical directorship


 We gratefully acknowledge several colleagues who have allowed us to
 interface, adapt or use parts of their codes:
   Stefan Grimme, W. Hujo, H. Kruse, P. Pracht,  : VdW corrections, initial TS optimization,
                  C. Bannwarth, S. Ehlert          DFT functionals, gCP, sTDA/sTD-DF
   Ed Valeev, F. Pavosevic, A. Kumar             : LibInt (2-el integral package), F12 methods
   Garnet Chan, S. Sharma, J. Yang, R. Olivares  : DMRG
   Ulf Ekstrom                                   : XCFun DFT Library
   Mihaly Kallay                                 : mrcc  (arbitrary order and MRCC methods)
   Jiri Pittner, Ondrej Demel                    : Mk-CCSD
   Frank Weinhold                                : gennbo (NPA and NBO analysis)
   Christopher J. Cramer and Donald G. Truhlar   : smd solvation model
   Lars Goerigk                                  : TD-DFT with DH, B97 family of functionals
   V. Asgeirsson, H. Jonsson                     : NEB implementation
   FAccTs GmbH                                   : IRC, NEB, NEB-TS, DLPNO-Multilevel, CI-OPT
                                                   MM, QMMM, 2- and 3-layer-ONIOM, Crystal-QMMM,
                                                   LR-CPCM, SF, NACMEs, symmetry and pop. for TD-DFT,
                                                   nearIR, NL-DFT gradient (VV10), updates on ESD,
                                                   ML-optimized integration grids
   S Lehtola, MJT Oliveira, MAL Marques          : LibXC Library
   Liviu Ungur et al                             : ANISO software


 Your calculation uses the libint2 library for the computation of 2-el integrals
 For citations please refer to: http://libint.valeyev.net

 Your ORCA version has been built with support for libXC version: 5.1.0
 For citations please refer to: https://tddft.org/programs/libxc/

 This ORCA versions uses:
   CBLAS   interface :  Fast vector & matrix operations
   LAPACKE interface :  Fast linear algebra routines
   SCALAPACK package :  Parallel linear algebra routines
   Shared memory     :  Shared parallel matrices
   BLAS/LAPACK       :  OpenBLAS 0.3.15  USE64BITINT DYNAMIC_ARCH NO_AFFINITY Haswell SINGLE_THREADED
        Core in use  :  Haswell
   Copyright (c) 2011-2014, The OpenBLAS Project


Your calculation utilizes the atom-pairwise dispersion correction
with the Becke-Johnson damping scheme (D3BJ)
Cite in your paper:
S.Grimme, S.Ehrlich, L.Goerigk, J Comput Chem, (2011), 32, 1456–1465 
S.Grimme, J.Antony, S.Ehrlich and H.Krieg, J.Chem.Phys., 132, (2010), 154104 
   

================================================================================

----- Orbital basis set information -----
Your calculation utilizes the basis: def2-SVPD
   F. Weigend and R. Ahlrichs, Phys. Chem. Chem. Phys. 7, 3297 (2005).
   D. Rappoport and F. Furche, J. Chem. Phys. 133 134105 (2010).

----- AuxJ basis set information -----
Your calculation utilizes the auxiliary basis: def2/J
   F. Weigend, Phys. Chem. Chem. Phys. 8, 1057 (2006).

================================================================================
                                        WARNINGS
                       Please study these warnings very carefully!
================================================================================



WARNING: Found flag for RIJCOSX approximation but no HF exchange needed!
  ===> : RIJCOSX  will be disabled and Split-RI-J is turned on

INFO   : the flag for use of the SHARK integral package has been found!

================================================================================
                                       INPUT FILE
================================================================================
NAME = SVPD_TPSS_A_wt_dlpno_pos.com
|  1> !TPSS D3BJ RIJCOSX def2-SVPD def2/J TightSCF 
|  2> *xyz 1 1 
|  3> C         -2.12050        0.88520        1.78951
|  4> C         -0.77894        0.17197        1.80496
|  5> H         -2.32419        1.47265        2.68608
|  6> H         -2.18770        1.54127        0.91948
|  7> N         -3.17690       -0.15948        1.61070
|  8> H         -4.06474        0.23127        1.28675
|  9> H         -3.34407       -0.67151        2.48493
| 10> H         -2.71686       -0.78189        0.93588
| 11> H         -0.65708       -0.37837        0.89547
| 12> H         -0.74207       -0.50050        2.63642
| 13> H          0.00707        0.89251        1.89389
| 14> *
| 15> %MaxCore 64000
| 16> 
| 17> %pal nprocs 4 
| 18> end  
| 19> 
| 20> %scf
| 21>   MaxIter 150
| 22> end
| 23> 
| 24> 
| 25>                          ****END OF INPUT****
================================================================================

                       ****************************
                       * Single Point Calculation *
                       ****************************

---------------------------------
CARTESIAN COORDINATES (ANGSTROEM)
---------------------------------
  C     -2.120500    0.885200    1.789510
  C     -0.778940    0.171970    1.804960
  H     -2.324190    1.472650    2.686080
  H     -2.187700    1.541270    0.919480
  N     -3.176900   -0.159480    1.610700
  H     -4.064740    0.231270    1.286750
  H     -3.344070   -0.671510    2.484930
  H     -2.716860   -0.781890    0.935880
  H     -0.657080   -0.378370    0.895470
  H     -0.742070   -0.500500    2.636420
  H      0.007070    0.892510    1.893890

----------------------------
CARTESIAN COORDINATES (A.U.)
----------------------------
  NO LB      ZA    FRAG     MASS         X           Y           Z
   0 C     6.0000    0    12.011   -4.007164    1.672786    3.381684
   1 C     6.0000    0    12.011   -1.471983    0.324976    3.410880
   2 H     1.0000    0     1.008   -4.392083    2.782905    5.075956
   3 H     1.0000    0     1.008   -4.134154    2.912578    1.737565
   4 N     7.0000    0    14.007   -6.003471   -0.301374    3.043782
   5 H     1.0000    0     1.008   -7.681245    0.437037    2.431605
   6 H     1.0000    0     1.008   -6.319376   -1.268970    4.695837
   7 H     1.0000    0     1.008   -5.134121   -1.477558    1.768557
   8 H     1.0000    0     1.008   -1.241701   -0.715016    1.692193
   9 H     1.0000    0     1.008   -1.402309   -0.945808    4.982112
  10 H     1.0000    0     1.008    0.013360    1.686599    3.578933

--------------------------------
INTERNAL COORDINATES (ANGSTROEM)
--------------------------------
 C      0   0   0     0.000000000000     0.00000000     0.00000000
 C      1   0   0     1.519446928655     0.00000000     0.00000000
 H      1   2   0     1.091065939116   114.15529761     0.00000000
 H      1   2   3     1.091739843461   110.15322550   122.54443755
 N      1   2   3     1.496432517189   107.26657455   237.84423019
 H      5   1   2     1.022687161648   112.58021957   198.71585537
 H      5   1   2     1.026839141589   111.18056980    76.60859775
 H      5   1   2     1.026846162821   100.68486536   320.92026735
 H      2   1   3     1.069998147335   109.47177185   179.99955993
 H      2   1   3     1.070000481028   109.47117718    59.99979551
 H      2   1   3     1.069999138598   109.47148846   300.00054162

---------------------------
INTERNAL COORDINATES (A.U.)
---------------------------
 C      0   0   0     0.000000000000     0.00000000     0.00000000
 C      1   0   0     2.871338570186     0.00000000     0.00000000
 H      1   2   0     2.061815818980   114.15529761     0.00000000
 H      1   2   3     2.063089313631   110.15322550   122.54443755
 N      1   2   3     2.827847635381   107.26657455   237.84423019
 H      5   1   2     1.932598656192   112.58021957   198.71585537
 H      5   1   2     1.940444761195   111.18056980    76.60859775
 H      5   1   2     1.940458029399   100.68486536   320.92026735
 H      2   1   3     2.022003462266   109.47177185   179.99955993
 H      2   1   3     2.022007872307   109.47117718    59.99979551
 H      2   1   3     2.022005335481   109.47148846   300.00054162

---------------------
BASIS SET INFORMATION
---------------------
There are 3 groups of distinct atoms

 Group   1 Type C   : 8s4p2d contracted to 4s2p2d pattern {5111/31/11}
 Group   2 Type H   : 4s2p contracted to 2s2p pattern {31/11}
 Group   3 Type N   : 8s4p2d contracted to 4s2p2d pattern {5111/31/11}

Atom   0C    basis set group =>   1
Atom   1C    basis set group =>   1
Atom   2H    basis set group =>   2
Atom   3H    basis set group =>   2
Atom   4N    basis set group =>   3
Atom   5H    basis set group =>   2
Atom   6H    basis set group =>   2
Atom   7H    basis set group =>   2
Atom   8H    basis set group =>   2
Atom   9H    basis set group =>   2
Atom  10H    basis set group =>   2
---------------------------------
AUXILIARY/J BASIS SET INFORMATION
---------------------------------
There are 3 groups of distinct atoms

 Group   1 Type C   : 12s5p4d2f1g contracted to 6s4p3d1f1g pattern {711111/2111/211/2/1}
 Group   2 Type H   : 5s2p1d contracted to 3s1p1d pattern {311/2/1}
 Group   3 Type N   : 12s5p4d2f1g contracted to 6s4p3d1f1g pattern {711111/2111/211/2/1}

Atom   0C    basis set group =>   1
Atom   1C    basis set group =>   1
Atom   2H    basis set group =>   2
Atom   3H    basis set group =>   2
Atom   4N    basis set group =>   3
Atom   5H    basis set group =>   2
Atom   6H    basis set group =>   2
Atom   7H    basis set group =>   2
Atom   8H    basis set group =>   2
Atom   9H    basis set group =>   2
Atom  10H    basis set group =>   2


           ************************************************************
           *        Program running with 4 parallel MPI-processes     *
           *              working on a common directory               *
           ************************************************************
------------------------------------------------------------------------------
                           ORCA GTO INTEGRAL CALCULATION
                           -- RI-GTO INTEGRALS CHOSEN --
------------------------------------------------------------------------------
------------------------------------------------------------------------------
                   ___                                                        
                  /   \      - P O W E R E D   B Y -                         
                 /     \                                                     
                 |  |  |   _    _      __       _____    __    __             
                 |  |  |  | |  | |    /  \     |  _  \  |  |  /  |          
                  \  \/   | |  | |   /    \    | | | |  |  | /  /          
                 / \  \   | |__| |  /  /\  \   | |_| |  |  |/  /          
                |  |  |   |  __  | /  /__\  \  |    /   |      \           
                |  |  |   | |  | | |   __   |  |    \   |  |\   \          
                \     /   | |  | | |  |  |  |  | |\  \  |  | \   \       
                 \___/    |_|  |_| |__|  |__|  |_| \__\ |__|  \__/        
                                                                              
                      - O R C A' S   B I G   F R I E N D -                    
                                      &                                       
                       - I N T E G R A L  F E E D E R -                       
                                                                              
 v1 FN, 2020, v2 2021                                                         
------------------------------------------------------------------------------


Reading SHARK input file SVPD_TPSS_A_wt_dlpno_pos.SHARKINP.tmp ... ok
----------------------
SHARK INTEGRAL PACKAGE
----------------------

Number of atoms                             ...     11
Number of basis functions                   ...    124
Number of shells                            ...     56
Maximum angular momentum                    ...      2
Integral batch strategy                     ... SHARK/LIBINT Hybrid
RI-J (if used) integral strategy            ... SPLIT-RIJ (Revised 2003 algorithm where possible)
Printlevel                                  ...      1
Contraction scheme used                     ... SEGMENTED contraction
Coulomb Range Separation                    ... NOT USED
Exchange Range Separation                   ... NOT USED
Finite Nucleus Model                        ... NOT USED
Auxiliary Coulomb fitting basis             ... AVAILABLE
   # of basis functions in Aux-J            ...    235
   # of shells in Aux-J                     ...     85
   Maximum angular momentum in Aux-J        ...      4
Auxiliary J/K fitting basis                 ... NOT available
Auxiliary Correlation fitting basis         ... NOT available
Auxiliary 'external' fitting basis          ... NOT available
Integral threshold                          ...     2.500000e-11
Primitive cut-off                           ...     2.500000e-12
Primitive pair pre-selection threshold      ...     2.500000e-12

Calculating pre-screening integrals         ... done (  0.0 sec) Dimension = 56
Organizing shell pair data                  ... done (  0.0 sec)
Shell pair information
Total number of shell pairs                 ...      1596
Shell pairs after pre-screening             ...      1595
Total number of primitive shell pairs       ...      4158
Primitive shell pairs kept                  ...      3747
          la=0 lb=0:    405 shell pairs
          la=1 lb=0:    616 shell pairs
          la=1 lb=1:    253 shell pairs
          la=2 lb=0:    168 shell pairs
          la=2 lb=1:    132 shell pairs
          la=2 lb=2:     21 shell pairs

Calculating one electron integrals          ... done (  0.0 sec)
Calculating RI/J V-Matrix + Cholesky decomp.... done (  0.0 sec)
Calculating Nuclear repulsion               ... done (  0.0 sec) ENN=     91.121697929630 Eh

SHARK setup successfully completed in   0.1 seconds

Maximum memory used throughout the entire GTOINT-calculation: 8.8 MB


           ************************************************************
           *        Program running with 4 parallel MPI-processes     *
           *              working on a common directory               *
           ************************************************************
-------------------------------------------------------------------------------
                                 ORCA SCF
-------------------------------------------------------------------------------

------------
SCF SETTINGS
------------
Hamiltonian:
 Density Functional     Method          .... DFT(GTOs)
 Exchange Functional    Exchange        .... TPSS
 Correlation Functional Correlation     .... TPSS
 LDA part of GGA corr.  LDAOpt          .... PW91-LDA
 Gradients option       PostSCFGGA      .... off
   Density functional embedding theory  .... OFF
   NL short-range parameter             ....  5.000000
 RI-approximation to the Coulomb term is turned on
   Number of AuxJ basis functions       .... 235


General Settings:
 Integral files         IntName         .... SVPD_TPSS_A_wt_dlpno_pos
 Hartree-Fock type      HFTyp           .... RHF
 Total Charge           Charge          ....    1
 Multiplicity           Mult            ....    1
 Number of Electrons    NEL             ....   26
 Basis Dimension        Dim             ....  124
 Nuclear Repulsion      ENuc            ....     91.1216979296 Eh

Convergence Acceleration:
 DIIS                   CNVDIIS         .... on
   Start iteration      DIISMaxIt       ....    12
   Startup error        DIISStart       ....  0.200000
   # of expansion vecs  DIISMaxEq       ....     5
   Bias factor          DIISBfac        ....   1.050
   Max. coefficient     DIISMaxC        ....  10.000
 Trust-Rad. Augm. Hess. CNVTRAH         .... auto
   Auto Start mean grad. ratio tolernc. ....  1.125000
   Auto Start start iteration           ....    20
   Auto Start num. interpolation iter.  ....    10
   Max. Number of Micro iterations      ....    16
   Max. Number of Macro iterations      .... Maxiter - #DIIS iter
   Number of Davidson start vectors     ....     2
   Converg. threshold I  (grad. norm)   ....   1.000e-05
   Converg. threshold II (energy diff.) ....   1.000e-08
   Grad. Scal. Fac. for Micro threshold ....   0.100
   Minimum threshold for Micro iter.    ....   0.010
   NR start threshold (gradient norm)   ....   0.001
   Initial trust radius                 ....   0.400
   Minimum AH scaling param. (alpha)    ....   1.000
   Maximum AH scaling param. (alpha)    .... 1000.000
   Orbital update algorithm             .... Taylor
   White noise on init. David. guess    .... on
   Maximum white noise                  ....   0.010
   Quad. conv. algorithm                .... NR
 SOSCF                  CNVSOSCF        .... on
   Start iteration      SOSCFMaxIt      ....   150
   Startup grad/error   SOSCFStart      ....  0.003300
 Level Shifting         CNVShift        .... on
   Level shift para.    LevelShift      ....    0.2500
   Turn off err/grad.   ShiftErr        ....    0.0010
 Zerner damping         CNVZerner       .... off
 Static damping         CNVDamp         .... on
   Fraction old density DampFac         ....    0.7000
   Max. Damping (<1)    DampMax         ....    0.9800
   Min. Damping (>=0)   DampMin         ....    0.0000
   Turn off err/grad.   DampErr         ....    0.1000
 Fernandez-Rico         CNVRico         .... off

SCF Procedure:
 Maximum # iterations   MaxIter         ....   150
 SCF integral mode      SCFMode         .... Direct
   Integral package                     .... SHARK and LIBINT hybrid scheme
 Reset frequency        DirectResetFreq ....    20
 Integral Threshold     Thresh          ....  2.500e-11 Eh
 Primitive CutOff       TCut            ....  2.500e-12 Eh

Convergence Tolerance:
 Convergence Check Mode ConvCheckMode   .... Total+1el-Energy
 Convergence forced     ConvForced      .... 0
 Energy Change          TolE            ....  1.000e-08 Eh
 1-El. energy change                    ....  1.000e-05 Eh
 Orbital Gradient       TolG            ....  1.000e-05
 Orbital Rotation angle TolX            ....  1.000e-05
 DIIS Error             TolErr          ....  5.000e-07


Diagonalization of the overlap matrix:
Smallest eigenvalue                        ... 1.300e-04
Time for diagonalization                   ...    0.005 sec
Threshold for overlap eigenvalues          ... 1.000e-08
Number of eigenvalues below threshold      ... 0
Time for construction of square roots      ...    0.004 sec
Total time needed                          ...    0.009 sec

Time for model grid setup =    0.068 sec

------------------------------
INITIAL GUESS: MODEL POTENTIAL
------------------------------
Loading Hartree-Fock densities                     ... done
Calculating cut-offs                               ... done
Initializing the effective Hamiltonian             ... done
Setting up the integral package (SHARK)            ... done
Starting the Coulomb interaction                   ... done (   0.0 sec)
Reading the grid                                   ... done
Mapping shells                                     ... done
Starting the XC term evaluation                    ... done (   0.1 sec)
  promolecular density results
     # of electrons  =     26.996910067
     EX              =    -19.176371828
     EC              =     -0.868500543
     EX+EC           =    -20.044872371
Transforming the Hamiltonian                       ... done (   0.0 sec)
Diagonalizing the Hamiltonian                      ... done (   0.0 sec)
Back transforming the eigenvectors                 ... done (   0.0 sec)
Now organizing SCF variables                       ... done
                      ------------------
                      INITIAL GUESS DONE (   0.2 sec)
                      ------------------
-------------------
DFT GRID GENERATION
-------------------

General Integration Accuracy     IntAcc      ... 4.388
Radial Grid Type                 RadialGrid  ... OptM3 with GC (2021)
Angular Grid (max. ang.)         AngularGrid ... 4 (Lebedev-302)
Angular grid pruning method      GridPruning ... 4 (adaptive)
Weight generation scheme         WeightScheme... Becke
Basis function cutoff            BFCut       ... 1.0000e-11
Integration weight cutoff        WCut        ... 1.0000e-14
Angular grids for H and He will be reduced by one unit
Partially contracted basis set               ... off
Rotationally invariant grid construction     ... off

Total number of grid points                  ...    45570
Total number of batches                      ...      717
Average number of points per batch           ...       63
Average number of grid points per atom       ...     4143
Time for grid setup =    0.304 sec

--------------
SCF ITERATIONS
--------------
ITER       Energy         Delta-E        Max-DP      RMS-DP      [F,P]     Damp
               ***  Starting incremental Fock matrix formation  ***
  0   -135.3878223464   0.000000000000 0.08909749  0.00252220  0.1575167 0.7000
  1   -135.4226814730  -0.034859126585 0.04988321  0.00165724  0.0772476 0.7000
                               ***Turning on DIIS***
  2   -135.4365865675  -0.013905094534 0.08884094  0.00307761  0.0241556 0.0000
  3   -135.4559190672  -0.019332499710 0.03627392  0.00088750  0.0481274 0.0000
  4   -135.4618363406  -0.005917273390 0.00609523  0.00030809  0.0074789 0.0000
                      *** Initiating the SOSCF procedure ***
                           *** Shutting down DIIS ***
                      *** Re-Reading the Fockian *** 
                      *** Removing any level shift *** 
ITER      Energy       Delta-E        Grad      Rot      Max-DP    RMS-DP
  5   -135.46211590  -0.0002795605  0.000669  0.000669  0.001959  0.000084
               *** Restarting incremental Fock matrix formation ***
  6   -135.46214124  -0.0000253369  0.000348  0.001036  0.002324  0.000072
  7   -135.46214025   0.0000009898  0.000320  0.000247  0.000980  0.000028
  8   -135.46214446  -0.0000042130  0.000047  0.000111  0.000202  0.000008
  9   -135.46214446   0.0000000003  0.000046  0.000033  0.000107  0.000004
 10   -135.46214452  -0.0000000581  0.000006  0.000014  0.000031  0.000002
 11   -135.46214452  -0.0000000002  0.000005  0.000006  0.000014  0.000001
                 **** Energy Check signals convergence ****
              ***Rediagonalizing the Fockian in SOSCF/NRSCF***

               *****************************************************
               *                     SUCCESS                       *
               *           SCF CONVERGED AFTER  12 CYCLES          *
               *****************************************************


----------------
TOTAL SCF ENERGY
----------------

Total Energy       :         -135.46214452 Eh           -3686.11235 eV

Components:
Nuclear Repulsion  :           91.12169793 Eh            2479.54746 eV
Electronic Energy  :         -226.58384245 Eh           -6165.65981 eV
One Electron Energy:         -354.82087811 Eh           -9655.16695 eV
Two Electron Energy:          128.23703566 Eh            3489.50714 eV

Virial components:
Potential Energy   :         -269.51179388 Eh           -7333.78875 eV
Kinetic Energy     :          134.04964936 Eh            3647.67640 eV
Virial Ratio       :            2.01053710


DFT components:
N(Alpha)           :       13.000011277941 electrons
N(Beta)            :       13.000011277941 electrons
N(Total)           :       26.000022555882 electrons
E(X)               :      -19.693397280024 Eh       
E(C)               :       -0.844332860825 Eh       
E(XC)              :      -20.537730140849 Eh       
DFET-embed. en.    :        0.000000000000 Eh       

---------------
SCF CONVERGENCE
---------------

  Last Energy change         ...   -1.2153e-09  Tolerance :   1.0000e-08
  Last MAX-Density change    ...    2.0290e-05  Tolerance :   1.0000e-07
  Last RMS-Density change    ...    2.4642e-07  Tolerance :   5.0000e-09
  Last Orbital Gradient      ...    3.6427e-07  Tolerance :   1.0000e-05
  Last Orbital Rotation      ...    7.6130e-07  Tolerance :   1.0000e-05

             **** THE GBW FILE WAS UPDATED (SVPD_TPSS_A_wt_dlpno_pos.gbw) ****
             **** DENSITY SVPD_TPSS_A_wt_dlpno_pos.scfp WAS UPDATED ****
             **** ENERGY FILE WAS UPDATED (SVPD_TPSS_A_wt_dlpno_pos.en.tmp) ****
             **** THE GBW FILE WAS UPDATED (SVPD_TPSS_A_wt_dlpno_pos.gbw) ****
             **** DENSITY SVPD_TPSS_A_wt_dlpno_pos.scfp WAS UPDATED ****
----------------
ORBITAL ENERGIES
----------------

  NO   OCC          E(Eh)            E(eV) 
   0   2.0000     -14.451237      -393.2382 
   1   2.0000     -10.257353      -279.1168 
   2   2.0000     -10.185024      -277.1486 
   3   2.0000      -1.147798       -31.2332 
   4   2.0000      -0.908208       -24.7136 
   5   2.0000      -0.794109       -21.6088 
   6   2.0000      -0.760402       -20.6916 
   7   2.0000      -0.749608       -20.3979 
   8   2.0000      -0.651728       -17.7344 
   9   2.0000      -0.606047       -16.4914 
  10   2.0000      -0.548194       -14.9171 
  11   2.0000      -0.542034       -14.7495 
  12   2.0000      -0.522824       -14.2268 
  13   0.0000      -0.206035        -5.6065 
  14   0.0000      -0.149417        -4.0659 
  15   0.0000      -0.148533        -4.0418 
  16   0.0000      -0.134701        -3.6654 
  17   0.0000      -0.105663        -2.8752 
  18   0.0000      -0.101699        -2.7674 
  19   0.0000      -0.081824        -2.2265 
  20   0.0000      -0.068571        -1.8659 
  21   0.0000      -0.054546        -1.4843 
  22   0.0000      -0.044207        -1.2029 
  23   0.0000      -0.034250        -0.9320 
  24   0.0000      -0.026293        -0.7155 
  25   0.0000      -0.007353        -0.2001 
  26   0.0000       0.001964         0.0534 
  27   0.0000       0.007653         0.2083 
  28   0.0000       0.026519         0.7216 
  29   0.0000       0.053461         1.4547 
  30   0.0000       0.067489         1.8365 
  31   0.0000       0.098849         2.6898 
  32   0.0000       0.110585         3.0092 
  33   0.0000       0.119775         3.2593 
  34   0.0000       0.126425         3.4402 
  35   0.0000       0.141626         3.8538 
  36   0.0000       0.146884         3.9969 
  37   0.0000       0.157228         4.2784 
  38   0.0000       0.161868         4.4046 
  39   0.0000       0.180503         4.9117 
  40   0.0000       0.186227         5.0675 
  41   0.0000       0.200161         5.4467 
  42   0.0000       0.208759         5.6806 
  43   0.0000       0.218362         5.9419 
  44   0.0000       0.225102         6.1253 
  45   0.0000       0.234606         6.3839 
  46   0.0000       0.248323         6.7572 
  47   0.0000       0.264293         7.1918 
  48   0.0000       0.279655         7.6098 
  49   0.0000       0.284597         7.7443 
  50   0.0000       0.293998         8.0001 
  51   0.0000       0.300604         8.1798 
  52   0.0000       0.315590         8.5876 
  53   0.0000       0.318682         8.6718 
  54   0.0000       0.331136         9.0107 
  55   0.0000       0.337744         9.1905 
  56   0.0000       0.352852         9.6016 
  57   0.0000       0.364719         9.9245 
  58   0.0000       0.376497        10.2450 
  59   0.0000       0.390287        10.6203 
  60   0.0000       0.404698        11.0124 
  61   0.0000       0.413003        11.2384 
  62   0.0000       0.446815        12.1585 
  63   0.0000       0.484000        13.1703 
  64   0.0000       0.543270        14.7831 
  65   0.0000       0.650773        17.7084 
  66   0.0000       0.688632        18.7386 
  67   0.0000       0.694431        18.8964 
  68   0.0000       0.728390        19.8205 
  69   0.0000       0.748113        20.3572 
  70   0.0000       0.758096        20.6288 
  71   0.0000       0.794834        21.6285 
  72   0.0000       0.801683        21.8149 
  73   0.0000       0.827375        22.5140 
  74   0.0000       0.859641        23.3920 
  75   0.0000       0.867984        23.6190 
  76   0.0000       0.914651        24.8889 
  77   0.0000       0.937245        25.5037 
  78   0.0000       1.005882        27.3714 
  79   0.0000       1.065797        29.0018 
  80   0.0000       1.114444        30.3256 
  81   0.0000       1.133911        30.8553 
  82   0.0000       1.259023        34.2598 
  83   0.0000       1.312073        35.7033 
  84   0.0000       1.340174        36.4680 
  85   0.0000       1.372587        37.3500 
  86   0.0000       1.384020        37.6611 
  87   0.0000       1.425630        38.7934 
  88   0.0000       1.456423        39.6313 
  89   0.0000       1.500012        40.8174 
  90   0.0000       1.552965        42.2583 
  91   0.0000       1.602457        43.6051 
  92   0.0000       1.611580        43.8533 
  93   0.0000       1.647744        44.8374 
  94   0.0000       1.666872        45.3579 
  95   0.0000       1.729809        47.0705 
  96   0.0000       1.748762        47.5862 
  97   0.0000       1.770681        48.1827 
  98   0.0000       1.847382        50.2698 
  99   0.0000       1.853127        50.4261 
 100   0.0000       1.857450        50.5438 
 101   0.0000       1.895749        51.5860 
 102   0.0000       1.944616        52.9157 
 103   0.0000       1.989567        54.1389 
 104   0.0000       2.033273        55.3282 
 105   0.0000       2.057045        55.9750 
 106   0.0000       2.104116        57.2559 
 107   0.0000       2.166018        58.9404 
 108   0.0000       2.245685        61.1082 
 109   0.0000       2.276967        61.9594 
 110   0.0000       2.353674        64.0467 
 111   0.0000       2.394666        65.1622 
 112   0.0000       2.437844        66.3371 
 113   0.0000       2.467571        67.1460 
 114   0.0000       2.589852        70.4734 
 115   0.0000       2.648082        72.0580 
 116   0.0000       2.677202        72.8504 
 117   0.0000       2.821493        76.7767 
 118   0.0000       2.884151        78.4817 
 119   0.0000       2.947466        80.2046 
 120   0.0000       2.987682        81.2990 
 121   0.0000       3.052954        83.0751 
 122   0.0000       3.234674        88.0200 
 123   0.0000       3.268816        88.9490 

                    ********************************
                    * MULLIKEN POPULATION ANALYSIS *
                    ********************************

-----------------------
MULLIKEN ATOMIC CHARGES
-----------------------
   0 C :    0.200172
   1 C :    0.493446
   2 H :   -0.094490
   3 H :   -0.016047
   4 N :   -0.759742
   5 H :    0.331572
   6 H :    0.373941
   7 H :    0.459243
   8 H :    0.005057
   9 H :    0.055830
  10 H :   -0.048981
Sum of atomic charges:    1.0000000

--------------------------------
MULLIKEN REDUCED ORBITAL CHARGES
--------------------------------
  0 C s       :     2.799540  s :     2.799540
      pz      :     0.966304  p :     2.685233
      px      :     0.870289
      py      :     0.848640
      dz2     :    -0.015584  d :     0.315054
      dxz     :     0.054490
      dyz     :     0.084688
      dx2y2   :     0.124317
      dxy     :     0.067143
  1 C s       :     2.613565  s :     2.613565
      pz      :     0.962212  p :     2.812703
      px      :     0.904098
      py      :     0.946393
      dz2     :    -0.014643  d :     0.080286
      dxz     :     0.019885
      dyz     :     0.016490
      dx2y2   :     0.011599
      dxy     :     0.046956
  2 H s       :     1.067896  s :     1.067896
      pz      :     0.014116  p :     0.026595
      px      :     0.004292
      py      :     0.008186
  3 H s       :     1.015771  s :     1.015771
      pz      :     0.009343  p :     0.000276
      px      :    -0.021395
      py      :     0.012328
  4 N s       :     4.078738  s :     4.078738
      pz      :     1.182967  p :     3.587988
      px      :     1.156411
      py      :     1.248609
      dz2     :    -0.003513  d :     0.093016
      dxz     :     0.007170
      dyz     :     0.030719
      dx2y2   :     0.048415
      dxy     :     0.010225
  5 H s       :     0.657773  s :     0.657773
      pz      :    -0.000084  p :     0.010656
      px      :     0.028469
      py      :    -0.017730
  6 H s       :     0.610268  s :     0.610268
      pz      :     0.001618  p :     0.015790
      px      :     0.002776
      py      :     0.011396
  7 H s       :     0.531085  s :     0.531085
      pz      :     0.010721  p :     0.009672
      px      :    -0.022510
      py      :     0.021461
  8 H s       :     0.926421  s :     0.926421
      pz      :     0.051498  p :     0.068522
      px      :     0.021302
      py      :    -0.004278
  9 H s       :     0.909184  s :     0.909184
      pz      :     0.031879  p :     0.034986
      px      :     0.003063
      py      :     0.000044
 10 H s       :     0.994923  s :     0.994923
      pz      :    -0.005035  p :     0.054058
      px      :     0.012500
      py      :     0.046593


                     *******************************
                     * LOEWDIN POPULATION ANALYSIS *
                     *******************************

----------------------
LOEWDIN ATOMIC CHARGES
----------------------
   0 C :    0.068063
   1 C :    0.180121
   2 H :    0.050684
   3 H :    0.051472
   4 N :    0.336115
   5 H :    0.104447
   6 H :    0.107781
   7 H :    0.087215
   8 H :   -0.002143
   9 H :    0.002088
  10 H :    0.014158

-------------------------------
LOEWDIN REDUCED ORBITAL CHARGES
-------------------------------
  0 C s       :     2.685212  s :     2.685212
      pz      :     0.951175  p :     2.602829
      px      :     0.816032
      py      :     0.835623
      dz2     :     0.071499  d :     0.643895
      dxz     :     0.104503
      dyz     :     0.142897
      dx2y2   :     0.154113
      dxy     :     0.170882
  1 C s       :     2.702983  s :     2.702983
      pz      :     0.940125  p :     2.750467
      px      :     0.881405
      py      :     0.928937
      dz2     :     0.050568  d :     0.366430
      dxz     :     0.061372
      dyz     :     0.088763
      dx2y2   :     0.056688
      dxy     :     0.109039
  2 H s       :     0.729257  s :     0.729257
      pz      :     0.105412  p :     0.220058
      px      :     0.048739
      py      :     0.065907
  3 H s       :     0.723762  s :     0.723762
      pz      :     0.104200  p :     0.224766
      px      :     0.050095
      py      :     0.070471
  4 N s       :     2.902901  s :     2.902901
      pz      :     1.121130  p :     3.372923
      px      :     1.113816
      py      :     1.137976
      dz2     :     0.038945  d :     0.388061
      dxz     :     0.056504
      dyz     :     0.099504
      dx2y2   :     0.112065
      dxy     :     0.081043
  5 H s       :     0.618746  s :     0.618746
      pz      :     0.072085  p :     0.276808
      px      :     0.129126
      py      :     0.075597
  6 H s       :     0.615144  s :     0.615144
      pz      :     0.124764  p :     0.277075
      px      :     0.065729
      py      :     0.086582
  7 H s       :     0.603498  s :     0.603498
      pz      :     0.103573  p :     0.309287
      px      :     0.105689
      py      :     0.100025
  8 H s       :     0.733289  s :     0.733289
      pz      :     0.116008  p :     0.268854
      px      :     0.067696
      py      :     0.085151
  9 H s       :     0.736911  s :     0.736911
      pz      :     0.106311  p :     0.261001
      px      :     0.062686
      py      :     0.092005
 10 H s       :     0.727191  s :     0.727191
      pz      :     0.070010  p :     0.258651
      px      :     0.092543
      py      :     0.096097


                      *****************************
                      * MAYER POPULATION ANALYSIS *
                      *****************************

  NA   - Mulliken gross atomic population
  ZA   - Total nuclear charge
  QA   - Mulliken gross atomic charge
  VA   - Mayer's total valence
  BVA  - Mayer's bonded valence
  FA   - Mayer's free valence

  ATOM       NA         ZA         QA         VA         BVA        FA
  0 C      5.7998     6.0000     0.2002     4.4756     4.4756    -0.0000
  1 C      5.5066     6.0000     0.4934     3.9929     3.9929     0.0000
  2 H      1.0945     1.0000    -0.0945     1.0758     1.0758    -0.0000
  3 H      1.0160     1.0000    -0.0160     1.0037     1.0037    -0.0000
  4 N      7.7597     7.0000    -0.7597     3.2753     3.2753     0.0000
  5 H      0.6684     1.0000     0.3316     0.7560     0.7560     0.0000
  6 H      0.6261     1.0000     0.3739     0.7240     0.7240     0.0000
  7 H      0.5408     1.0000     0.4592     0.6069     0.6069     0.0000
  8 H      0.9949     1.0000     0.0051     1.0935     1.0935     0.0000
  9 H      0.9442     1.0000     0.0558     1.0228     1.0228    -0.0000
 10 H      1.0490     1.0000    -0.0490     1.1311     1.1311    -0.0000

  Mayer bond orders larger than 0.100000
B(  0-C ,  1-C ) :   1.2875 B(  0-C ,  2-H ) :   0.9734 B(  0-C ,  3-H ) :   0.9217 
B(  0-C ,  4-N ) :   0.8249 B(  0-C ,  8-H ) :   0.1279 B(  0-C ,  9-H ) :   0.1151 
B(  0-C , 10-H ) :   0.1688 B(  1-C ,  8-H ) :   0.8606 B(  1-C ,  9-H ) :   0.8362 
B(  1-C , 10-H ) :   0.8829 B(  4-N ,  5-H ) :   0.7914 B(  4-N ,  6-H ) :   0.7805 
B(  4-N ,  7-H ) :   0.6154 

-------
TIMINGS
-------

Total SCF time: 0 days 0 hours 0 min 4 sec 

Total time                  ....       4.613 sec
Sum of individual times     ....       4.434 sec  ( 96.1%)

Fock matrix formation       ....       3.904 sec  ( 84.6%)
  Split-RI-J                ....       0.371 sec  (  9.5% of F)
  XC integration            ....       3.509 sec  ( 89.9% of F)
    Basis function eval.    ....       0.621 sec  ( 17.7% of XC)
    Density eval.           ....       1.034 sec  ( 29.5% of XC)
    XC-Functional eval.     ....       0.339 sec  (  9.6% of XC)
    XC-Potential eval.      ....       1.399 sec  ( 39.9% of XC)
Diagonalization             ....       0.025 sec  (  0.5%)
Density matrix formation    ....       0.002 sec  (  0.0%)
Population analysis         ....       0.007 sec  (  0.2%)
Initial guess               ....       0.088 sec  (  1.9%)
Orbital Transformation      ....       0.000 sec  (  0.0%)
Orbital Orthonormalization  ....       0.000 sec  (  0.0%)
DIIS solution               ....       0.016 sec  (  0.3%)
SOSCF solution              ....       0.020 sec  (  0.4%)
Grid generation             ....       0.372 sec  (  8.1%)

Maximum memory used throughout the entire SCF-calculation: 14.5 MB


-------------------------------------------------------------------------------
                          DFT DISPERSION CORRECTION                            
                                                                               
                              DFTD3 V3.1  Rev 1                                
                          USING Becke-Johnson damping                          
-------------------------------------------------------------------------------
The TPSS functional is recognized
Active option DFTDOPT                   ...         4   

molecular C6(AA) [au] = 702.189292 


            DFT-D V3
 parameters
 s6 scaling factor         :     1.0000 
 a1 scaling factor         :     0.4535 
 s8 scaling factor         :     1.9435 
 a2 scaling factor         :     4.4752 
 ad hoc parameters k1-k3   :    16.0000     1.3333    -4.0000 

 Edisp/kcal,au: -4.730485135681  -0.007538507109 
 E6   /kcal   :  -2.571962202 
 E8   /kcal   :  -2.158522933 
 % E8         :  45.630054242 

-------------------------   ----------------
Dispersion correction           -0.007538507
-------------------------   ----------------


-------------------------   --------------------
FINAL SINGLE POINT ENERGY      -135.469683027618
-------------------------   --------------------


                            ***************************************
                            *     ORCA property calculations      *
                            ***************************************

                                    ---------------------
                                    Active property flags
                                    ---------------------
   (+) Dipole Moment


------------------------------------------------------------------------------
                       ORCA ELECTRIC PROPERTIES CALCULATION
------------------------------------------------------------------------------

Dipole Moment Calculation                       ... on
Quadrupole Moment Calculation                   ... off
Polarizability Calculation                      ... off
GBWName                                         ... SVPD_TPSS_A_wt_dlpno_pos.gbw
Electron density file                           ... SVPD_TPSS_A_wt_dlpno_pos.scfp
The origin for moment calculation is the CENTER OF MASS  = (-3.914578,  0.503609  3.262756)

-------------
DIPOLE MOMENT
-------------
                                X             Y             Z
Electronic contribution:     -1.81385      -0.15146      -0.05642
Nuclear contribution   :      0.50278      -0.30871      -0.06979
                        -----------------------------------------
Total Dipole Moment    :     -1.31107      -0.46018      -0.12621
                        -----------------------------------------
Magnitude (a.u.)       :      1.39520
Magnitude (Debye)      :      3.54632



--------------------
Rotational spectrum 
--------------------
 
Rotational constants in cm-1:     0.963746     0.295157     0.256910 
Rotational constants in MHz : 28892.375247  8848.576767  7701.963879 

 Dipole components along the rotational axes: 
x,y,z [a.u.] :     1.369870     0.264610    -0.004824 
x,y,z [Debye]:     3.481934     0.672586    -0.012262 

 

Timings for individual modules:

Sum of individual times         ...        8.306 sec (=   0.138 min)
GTO integral calculation        ...        2.062 sec (=   0.034 min)  24.8 %
SCF iterations                  ...        6.243 sec (=   0.104 min)  75.2 %
                             ****ORCA TERMINATED NORMALLY****
TOTAL RUN TIME: 0 days 0 hours 0 minutes 8 seconds 847 msec
