
                                        *****************
                                        * O   R   C   A *
                                        *****************

                                            #,                                       
                                            ###                                      
                                            ####                                     
                                            #####                                    
                                            ######                                   
                                           ########,                                 
                                     ,,################,,,,,                         
                               ,,#################################,,                 
                          ,,##########################################,,             
                       ,#########################################, ''#####,          
                    ,#############################################,,   '####,        
                  ,##################################################,,,,####,       
                ,###########''''           ''''###############################       
              ,#####''   ,,,,##########,,,,          '''####'''          '####       
            ,##' ,,,,###########################,,,                        '##       
           ' ,,###''''                  '''############,,,                           
         ,,##''                                '''############,,,,        ,,,,,,###''
      ,#''                                            '''#######################'''  
     '                                                          ''''####''''         
             ,#######,   #######,   ,#######,      ##                                
            ,#'     '#,  ##    ##  ,#'     '#,    #''#        ######   ,####,        
            ##       ##  ##   ,#'  ##            #'  '#       #        #'  '#        
            ##       ##  #######   ##           ,######,      #####,   #    #        
            '#,     ,#'  ##    ##  '#,     ,#' ,#      #,         ##   #,  ,#        
             '#######'   ##     ##  '#######'  #'      '#     #####' # '####'        



                  #######################################################
                  #                        -***-                        #
                  #          Department of theory and spectroscopy      #
                  #    Directorship and core code : Frank Neese         #
                  #        Max Planck Institute fuer Kohlenforschung    #
                  #                Kaiser Wilhelm Platz 1               #
                  #                 D-45470 Muelheim/Ruhr               #
                  #                      Germany                        #
                  #                                                     #
                  #                  All rights reserved                #
                  #                        -***-                        #
                  #######################################################


                         Program Version 5.0.0 -  RELEASE  -
                                (SVN: $Rev: 19529$)
                ($Date: 2021-06-28 11:36:33 +0200 (Mo, 28 Jun 2021) $)


 With contributions from (in alphabetic order):
   Daniel Aravena         : Magnetic Suceptibility
   Michael Atanasov       : Ab Initio Ligand Field Theory (pilot matlab implementation)
   Alexander A. Auer      : GIAO ZORA, VPT2 properties, NMR spectrum
   Ute Becker             : Parallelization
   Giovanni Bistoni       : ED, misc. LED, open-shell LED, HFLD
   Martin Brehm           : Molecular dynamics
   Dmytro Bykov           : SCF Hessian
   Vijay G. Chilkuri      : MRCI spin determinant printing, contributions to CSF-ICE
   Dipayan Datta          : RHF DLPNO-CCSD density
   Achintya Kumar Dutta   : EOM-CC, STEOM-CC
   Dmitry Ganyushin       : Spin-Orbit,Spin-Spin,Magnetic field MRCI
   Miquel Garcia          : C-PCM Hessian, Gaussian charge scheme
   Yang Guo               : DLPNO-NEVPT2, F12-NEVPT2, CIM, IAO-localization
   Andreas Hansen         : Spin unrestricted coupled pair/coupled cluster methods
   Benjamin Helmich-Paris : MC-RPA, TRAH-SCF, COSX integrals
   Lee Huntington         : MR-EOM, pCC
   Robert Izsak           : Overlap fitted RIJCOSX, COSX-SCS-MP3, EOM
   Marcus Kettner         : VPT2
   Christian Kollmar      : KDIIS, OOCD, Brueckner-CCSD(T), CCSD density, CASPT2, CASPT2-K
   Simone Kossmann        : Meta GGA functionals, TD-DFT gradient, OOMP2, MP2 Hessian
   Martin Krupicka        : Initial AUTO-CI
   Lucas Lang             : DCDCAS
   Marvin Lechner         : AUTO-CI (C++ implementation), FIC-MRCC
   Dagmar Lenk            : GEPOL surface, SMD
   Dimitrios Liakos       : Extrapolation schemes; Compound Job, initial MDCI parallelization
   Dimitrios Manganas     : Further ROCIS development; embedding schemes
   Dimitrios Pantazis     : SARC Basis sets
   Anastasios Papadopoulos: AUTO-CI, single reference methods and gradients
   Taras Petrenko         : DFT Hessian,TD-DFT gradient, ASA, ECA, R-Raman, ABS, FL, XAS/XES, NRVS
   Peter Pinski           : DLPNO-MP2, DLPNO-MP2 Gradient
   Christoph Reimann      : Effective Core Potentials
   Marius Retegan         : Local ZFS, SOC
   Christoph Riplinger    : Optimizer, TS searches, QM/MM, DLPNO-CCSD(T), (RO)-DLPNO pert. Triples
   Tobias Risthaus        : Range-separated hybrids, TD-DFT gradient, RPA, STAB
   Michael Roemelt        : Original ROCIS implementation
   Masaaki Saitow         : Open-shell DLPNO-CCSD energy and density
   Barbara Sandhoefer     : DKH picture change effects
   Avijit Sen             : IP-ROCIS
   Kantharuban Sivalingam : CASSCF convergence, NEVPT2, FIC-MRCI
   Bernardo de Souza      : ESD, SOC TD-DFT
   Georgi Stoychev        : AutoAux, RI-MP2 NMR
   Willem Van den Heuvel  : Paramagnetic NMR
   Boris Wezisla          : Elementary symmetry handling
   Frank Wennmohs         : Technical directorship


 We gratefully acknowledge several colleagues who have allowed us to
 interface, adapt or use parts of their codes:
   Stefan Grimme, W. Hujo, H. Kruse, P. Pracht,  : VdW corrections, initial TS optimization,
                  C. Bannwarth, S. Ehlert          DFT functionals, gCP, sTDA/sTD-DF
   Ed Valeev, F. Pavosevic, A. Kumar             : LibInt (2-el integral package), F12 methods
   Garnet Chan, S. Sharma, J. Yang, R. Olivares  : DMRG
   Ulf Ekstrom                                   : XCFun DFT Library
   Mihaly Kallay                                 : mrcc  (arbitrary order and MRCC methods)
   Jiri Pittner, Ondrej Demel                    : Mk-CCSD
   Frank Weinhold                                : gennbo (NPA and NBO analysis)
   Christopher J. Cramer and Donald G. Truhlar   : smd solvation model
   Lars Goerigk                                  : TD-DFT with DH, B97 family of functionals
   V. Asgeirsson, H. Jonsson                     : NEB implementation
   FAccTs GmbH                                   : IRC, NEB, NEB-TS, DLPNO-Multilevel, CI-OPT
                                                   MM, QMMM, 2- and 3-layer-ONIOM, Crystal-QMMM,
                                                   LR-CPCM, SF, NACMEs, symmetry and pop. for TD-DFT,
                                                   nearIR, NL-DFT gradient (VV10), updates on ESD,
                                                   ML-optimized integration grids
   S Lehtola, MJT Oliveira, MAL Marques          : LibXC Library
   Liviu Ungur et al                             : ANISO software


 Your calculation uses the libint2 library for the computation of 2-el integrals
 For citations please refer to: http://libint.valeyev.net

 Your ORCA version has been built with support for libXC version: 5.1.0
 For citations please refer to: https://tddft.org/programs/libxc/

 This ORCA versions uses:
   CBLAS   interface :  Fast vector & matrix operations
   LAPACKE interface :  Fast linear algebra routines
   SCALAPACK package :  Parallel linear algebra routines
   Shared memory     :  Shared parallel matrices
   BLAS/LAPACK       :  OpenBLAS 0.3.15  USE64BITINT DYNAMIC_ARCH NO_AFFINITY Haswell SINGLE_THREADED
        Core in use  :  Haswell
   Copyright (c) 2011-2014, The OpenBLAS Project




***************************************
The coordinates will be read from file: D3.xyz
***************************************


Your calculation utilizes the atom-pairwise dispersion correction
with the Becke-Johnson damping scheme (D3BJ)
Cite in your paper:
S.Grimme, S.Ehrlich, L.Goerigk, J Comput Chem, (2011), 32, 1456–1465 
S.Grimme, J.Antony, S.Ehrlich and H.Krieg, J.Chem.Phys., 132, (2010), 154104 
   

================================================================================

----- Orbital basis set information -----
Your calculation utilizes the basis: def2-SVPD
   F. Weigend and R. Ahlrichs, Phys. Chem. Chem. Phys. 7, 3297 (2005).
   D. Rappoport and F. Furche, J. Chem. Phys. 133 134105 (2010).

----- AuxJ basis set information -----
Your calculation utilizes the auxiliary basis: def2/J
   F. Weigend, Phys. Chem. Chem. Phys. 8, 1057 (2006).

================================================================================
                                        WARNINGS
                       Please study these warnings very carefully!
================================================================================


INFO   : the flag for use of the SHARK integral package has been found!

================================================================================
                                       INPUT FILE
================================================================================
NAME = 28Oct_SVPD_PBE0_D3_wb97.com
|  1> !PBE0 D3BJ RIJCOSX def2-SVPD def2/J TightSCF xyzfile                                                                                         
|  2> 
|  3> *xyzfile 0 1 D3.xyz
|  4> 
|  5> %MaxCore 64000
|  6> 
|  7> %pal nprocs 4                                                                                                                                                  
|  8> end  
|  9> 
| 10> %scf
| 11>   MaxIter 150
| 12> end
| 13> 
| 14> 
| 15>                          ****END OF INPUT****
================================================================================

                       ****************************
                       * Single Point Calculation *
                       ****************************

---------------------------------
CARTESIAN COORDINATES (ANGSTROEM)
---------------------------------
  C      3.905947    2.819855   -3.752920
  N      5.295615    3.131515   -4.105334
  C      3.803511    1.374716   -3.260807
  C      3.939934    0.320362   -4.367729
  H      4.105043   -0.655085   -3.907733
  H      3.022801    0.280517   -4.957117
  C      5.105846    0.668022   -5.305463
  C      5.708619    3.468885   -5.324190
  N      6.904696    3.038954   -5.717084
  C      4.981884    4.293570   -6.097457
  H      5.000546    4.101311   -7.087761
  H      4.084693    4.596899   -5.739652
  H      5.963358    2.526112   -3.642391
  H      7.047164    2.066861   -5.473604
  H      7.198145    3.307994   -6.645225
  H      3.282025    2.949187   -4.640259
  H      3.565254    3.514574   -2.982523
  H      4.574833    1.215157   -2.500443
  H      2.843514    1.260845   -2.751465
  F      4.809132    1.150187   -6.414361
  O      6.267366    0.564999   -4.819481

----------------------------
CARTESIAN COORDINATES (A.U.)
----------------------------
  NO LB      ZA    FRAG     MASS         X           Y           Z
   0 C     6.0000    0    12.011    7.381171    5.328753   -7.091990
   1 N     7.0000    0    14.007   10.007263    5.917705   -7.757957
   2 C     6.0000    0    12.011    7.187595    2.597836   -6.162033
   3 C     6.0000    0    12.011    7.445396    0.605397   -8.253812
   4 H     1.0000    0     1.008    7.757407   -1.237930   -7.384545
   5 H     1.0000    0     1.008    5.712267    0.530101   -9.367594
   6 C     6.0000    0    12.011    9.648650    1.262379  -10.025871
   7 C     6.0000    0    12.011   10.787727    6.555244  -10.061262
   8 N     7.0000    0    14.007   13.047984    5.742790  -10.803723
   9 C     6.0000    0    12.011    9.414397    8.113671  -11.522523
  10 H     1.0000    0     1.008    9.449663    7.750356  -13.393928
  11 H     1.0000    0     1.008    7.718951    8.686880  -10.846370
  12 H     1.0000    0     1.008   11.269114    4.773660   -6.883122
  13 H     1.0000    0     1.008   13.317210    3.905801  -10.343612
  14 H     1.0000    0     1.008   13.602523    6.251203  -12.557656
  15 H     1.0000    0     1.008    6.202128    5.573156   -8.768819
  16 H     1.0000    0     1.008    6.737353    6.641582   -5.636151
  17 H     1.0000    0     1.008    8.645182    2.296314   -4.725153
  18 H     1.0000    0     1.008    5.373463    2.382653   -5.199515
  19 F     9.0000    0    18.998    9.087942    2.173538  -12.121386
  20 O     8.0000    0    15.999   11.843606    1.067694   -9.107499

--------------------------------
INTERNAL COORDINATES (ANGSTROEM)
--------------------------------
 C      0   0   0     0.000000000000     0.00000000     0.00000000
 N      1   0   0     1.467141978358     0.00000000     0.00000000
 C      1   2   0     1.530063517905   109.95648736     0.00000000
 C      3   1   2     1.534779619809   114.26304417   287.08499053
 H      4   3   1     1.091033620284   108.87872696   165.98404284
 H      4   3   1     1.090916052212   109.87805700   285.05600920
 C      4   3   1     1.536086504513   110.62627363    44.77550193
 C      2   1   3     1.330414023142   124.60886225   117.82427755
 N      8   2   1     1.330340554584   117.88637737   216.04032271
 C      8   2   1     1.343945232509   120.98842718    40.55760065
 H     10   8   2     1.008967339645   115.96355102   215.01872382
 H     10   8   2     1.012415453042   117.36824842   356.14625482
 H      2   1   3     1.013266581664   112.80126275   337.30529129
 H      9   8   2     1.012197712497   111.46140142    44.03797432
 H      9   8   2     1.009921403817   116.52360736   180.07724841
 H      1   2   3     1.092418234860   108.70639248   240.06343406
 H      1   2   3     1.091887397005   109.26080405   121.65715898
 H      3   1   2     1.094783130927   108.29253614    49.74675079
 H      3   1   2     1.092698650205   107.88852219   164.36908434
 F      7   4   3     1.245061367518   116.77397318   256.40244270
 O      7   4   3     1.263298100477   116.39547193    69.30146499

---------------------------
INTERNAL COORDINATES (A.U.)
---------------------------
 C      0   0   0     0.000000000000     0.00000000     0.00000000
 N      1   0   0     2.772496538677     0.00000000     0.00000000
 C      1   2   0     2.891401016345   109.95648736     0.00000000
 C      3   1   2     2.900313157364   114.26304417   287.08499053
 H      4   3   1     2.061754745237   108.87872696   165.98404284
 H      4   3   1     2.061532573779   109.87805700   285.05600920
 C      4   3   1     2.902782811542   110.62627363    44.77550193
 C      2   1   3     2.514118148466   124.60886225   117.82427755
 N      8   2   1     2.513979313013   117.88637737   216.04032271
 C      8   2   1     2.539688428430   120.98842718    40.55760065
 H     10   8   2     1.906671950000   115.96355102   215.01872382
 H     10   8   2     1.913187940000   117.36824842   356.14625482
 H      2   1   3     1.914796340000   112.80126275   337.30529129
 H      9   8   2     1.912776470000   111.46140142    44.03797432
 H      9   8   2     1.908474870000   116.52360736   180.07724841
 H      1   2   3     2.064371287587   108.70639248   240.06343406
 H      1   2   3     2.063368149420   109.26080405   121.65715898
 H      3   1   2     2.068840293488   108.29253614    49.74675079
 H      3   1   2     2.064901195792   107.88852219   164.36908434
 F      7   4   3     2.352825004535   116.77397318   256.40244270
 O      7   4   3     2.387287435404   116.39547193    69.30146499

---------------------
BASIS SET INFORMATION
---------------------
There are 5 groups of distinct atoms

 Group   1 Type C   : 8s4p2d contracted to 4s2p2d pattern {5111/31/11}
 Group   2 Type N   : 8s4p2d contracted to 4s2p2d pattern {5111/31/11}
 Group   3 Type H   : 4s2p contracted to 2s2p pattern {31/11}
 Group   4 Type F   : 8s5p2d contracted to 4s3p2d pattern {5111/311/11}
 Group   5 Type O   : 8s5p2d contracted to 4s3p2d pattern {5111/311/11}

Atom   0C    basis set group =>   1
Atom   1N    basis set group =>   2
Atom   2C    basis set group =>   1
Atom   3C    basis set group =>   1
Atom   4H    basis set group =>   3
Atom   5H    basis set group =>   3
Atom   6C    basis set group =>   1
Atom   7C    basis set group =>   1
Atom   8N    basis set group =>   2
Atom   9C    basis set group =>   1
Atom  10H    basis set group =>   3
Atom  11H    basis set group =>   3
Atom  12H    basis set group =>   3
Atom  13H    basis set group =>   3
Atom  14H    basis set group =>   3
Atom  15H    basis set group =>   3
Atom  16H    basis set group =>   3
Atom  17H    basis set group =>   3
Atom  18H    basis set group =>   3
Atom  19F    basis set group =>   4
Atom  20O    basis set group =>   5
---------------------------------
AUXILIARY/J BASIS SET INFORMATION
---------------------------------
There are 5 groups of distinct atoms

 Group   1 Type C   : 12s5p4d2f1g contracted to 6s4p3d1f1g pattern {711111/2111/211/2/1}
 Group   2 Type N   : 12s5p4d2f1g contracted to 6s4p3d1f1g pattern {711111/2111/211/2/1}
 Group   3 Type H   : 5s2p1d contracted to 3s1p1d pattern {311/2/1}
 Group   4 Type F   : 12s5p4d2f1g contracted to 6s4p3d1f1g pattern {711111/2111/211/2/1}
 Group   5 Type O   : 12s5p4d2f1g contracted to 6s4p3d1f1g pattern {711111/2111/211/2/1}

Atom   0C    basis set group =>   1
Atom   1N    basis set group =>   2
Atom   2C    basis set group =>   1
Atom   3C    basis set group =>   1
Atom   4H    basis set group =>   3
Atom   5H    basis set group =>   3
Atom   6C    basis set group =>   1
Atom   7C    basis set group =>   1
Atom   8N    basis set group =>   2
Atom   9C    basis set group =>   1
Atom  10H    basis set group =>   3
Atom  11H    basis set group =>   3
Atom  12H    basis set group =>   3
Atom  13H    basis set group =>   3
Atom  14H    basis set group =>   3
Atom  15H    basis set group =>   3
Atom  16H    basis set group =>   3
Atom  17H    basis set group =>   3
Atom  18H    basis set group =>   3
Atom  19F    basis set group =>   4
Atom  20O    basis set group =>   5


           ************************************************************
           *        Program running with 4 parallel MPI-processes     *
           *              working on a common directory               *
           ************************************************************
------------------------------------------------------------------------------
                           ORCA GTO INTEGRAL CALCULATION
                           -- RI-GTO INTEGRALS CHOSEN --
------------------------------------------------------------------------------
------------------------------------------------------------------------------
                   ___                                                        
                  /   \      - P O W E R E D   B Y -                         
                 /     \                                                     
                 |  |  |   _    _      __       _____    __    __             
                 |  |  |  | |  | |    /  \     |  _  \  |  |  /  |          
                  \  \/   | |  | |   /    \    | | | |  |  | /  /          
                 / \  \   | |__| |  /  /\  \   | |_| |  |  |/  /          
                |  |  |   |  __  | /  /__\  \  |    /   |      \           
                |  |  |   | |  | | |   __   |  |    \   |  |\   \          
                \     /   | |  | | |  |  |  |  | |\  \  |  | \   \       
                 \___/    |_|  |_| |__|  |__|  |_| \__\ |__|  \__/        
                                                                              
                      - O R C A' S   B I G   F R I E N D -                    
                                      &                                       
                       - I N T E G R A L  F E E D E R -                       
                                                                              
 v1 FN, 2020, v2 2021                                                         
------------------------------------------------------------------------------


Reading SHARK input file 28Oct_SVPD_PBE0_D3_wb97.SHARKINP.tmp ... ok
----------------------
SHARK INTEGRAL PACKAGE
----------------------

Number of atoms                             ...     21
Number of basis functions                   ...    294
Number of shells                            ...    126
Maximum angular momentum                    ...      2
Integral batch strategy                     ... SHARK/LIBINT Hybrid
RI-J (if used) integral strategy            ... SPLIT-RIJ (Revised 2003 algorithm where possible)
Printlevel                                  ...      1
Contraction scheme used                     ... SEGMENTED contraction
Coulomb Range Separation                    ... NOT USED
Exchange Range Separation                   ... NOT USED
Finite Nucleus Model                        ... NOT USED
Auxiliary Coulomb fitting basis             ... AVAILABLE
   # of basis functions in Aux-J            ...    611
   # of shells in Aux-J                     ...    205
   Maximum angular momentum in Aux-J        ...      4
Auxiliary J/K fitting basis                 ... NOT available
Auxiliary Correlation fitting basis         ... NOT available
Auxiliary 'external' fitting basis          ... NOT available
Integral threshold                          ...     2.500000e-11
Primitive cut-off                           ...     2.500000e-12
Primitive pair pre-selection threshold      ...     2.500000e-12

Calculating pre-screening integrals         ... done (  0.1 sec) Dimension = 126
Organizing shell pair data                  ... done (  0.1 sec)
Shell pair information
Total number of shell pairs                 ...      8001
Shell pairs after pre-screening             ...      7781
Total number of primitive shell pairs       ...     21899
Primitive shell pairs kept                  ...     17049
          la=0 lb=0:   1882 shell pairs
          la=1 lb=0:   2642 shell pairs
          la=1 lb=1:    967 shell pairs
          la=2 lb=0:   1214 shell pairs
          la=2 lb=1:    866 shell pairs
          la=2 lb=2:    210 shell pairs

Calculating one electron integrals          ... done (  0.0 sec)
Calculating RI/J V-Matrix + Cholesky decomp.... done (  0.0 sec)
Calculating Nuclear repulsion               ... done (  0.0 sec) ENN=    598.167589649396 Eh

SHARK setup successfully completed in   0.3 seconds

Maximum memory used throughout the entire GTOINT-calculation: 14.0 MB


           ************************************************************
           *        Program running with 4 parallel MPI-processes     *
           *              working on a common directory               *
           ************************************************************
-------------------------------------------------------------------------------
                                 ORCA SCF
-------------------------------------------------------------------------------

------------
SCF SETTINGS
------------
Hamiltonian:
 Density Functional     Method          .... DFT(GTOs)
 Exchange Functional    Exchange        .... PBE
   PBE kappa parameter   XKappa         ....  0.804000
   PBE mue parameter    XMuePBE         ....  0.219520
 Correlation Functional Correlation     .... PBE
   PBE beta parameter  CBetaPBE         ....  0.066725
 LDA part of GGA corr.  LDAOpt          .... PW91-LDA
 Gradients option       PostSCFGGA      .... off
 Hybrid DFT is turned on
   Fraction HF Exchange ScalHFX         ....  0.250000
   Scaling of DF-GGA-X  ScalDFX         ....  0.750000
   Scaling of DF-GGA-C  ScalDFC         ....  1.000000
   Scaling of DF-LDA-C  ScalLDAC        ....  1.000000
   Perturbative correction              ....  0.000000
   Density functional embedding theory  .... OFF
   NL short-range parameter             ....  6.900000
 RI-approximation to the Coulomb term is turned on
   Number of AuxJ basis functions       .... 611
   RIJ-COSX (HFX calculated with COS-X)).... on


General Settings:
 Integral files         IntName         .... 28Oct_SVPD_PBE0_D3_wb97
 Hartree-Fock type      HFTyp           .... RHF
 Total Charge           Charge          ....    0
 Multiplicity           Mult            ....    1
 Number of Electrons    NEL             ....   78
 Basis Dimension        Dim             ....  294
 Nuclear Repulsion      ENuc            ....    598.1675896494 Eh

Convergence Acceleration:
 DIIS                   CNVDIIS         .... on
   Start iteration      DIISMaxIt       ....    12
   Startup error        DIISStart       ....  0.200000
   # of expansion vecs  DIISMaxEq       ....     5
   Bias factor          DIISBfac        ....   1.050
   Max. coefficient     DIISMaxC        ....  10.000
 Trust-Rad. Augm. Hess. CNVTRAH         .... auto
   Auto Start mean grad. ratio tolernc. ....  1.125000
   Auto Start start iteration           ....    20
   Auto Start num. interpolation iter.  ....    10
   Max. Number of Micro iterations      ....    16
   Max. Number of Macro iterations      .... Maxiter - #DIIS iter
   Number of Davidson start vectors     ....     2
   Converg. threshold I  (grad. norm)   ....   1.000e-05
   Converg. threshold II (energy diff.) ....   1.000e-08
   Grad. Scal. Fac. for Micro threshold ....   0.100
   Minimum threshold for Micro iter.    ....   0.010
   NR start threshold (gradient norm)   ....   0.001
   Initial trust radius                 ....   0.400
   Minimum AH scaling param. (alpha)    ....   1.000
   Maximum AH scaling param. (alpha)    .... 1000.000
   Orbital update algorithm             .... Taylor
   White noise on init. David. guess    .... on
   Maximum white noise                  ....   0.010
   Quad. conv. algorithm                .... NR
 SOSCF                  CNVSOSCF        .... on
   Start iteration      SOSCFMaxIt      ....   150
   Startup grad/error   SOSCFStart      ....  0.003300
 Level Shifting         CNVShift        .... on
   Level shift para.    LevelShift      ....    0.2500
   Turn off err/grad.   ShiftErr        ....    0.0010
 Zerner damping         CNVZerner       .... off
 Static damping         CNVDamp         .... on
   Fraction old density DampFac         ....    0.7000
   Max. Damping (<1)    DampMax         ....    0.9800
   Min. Damping (>=0)   DampMin         ....    0.0000
   Turn off err/grad.   DampErr         ....    0.1000
 Fernandez-Rico         CNVRico         .... off

SCF Procedure:
 Maximum # iterations   MaxIter         ....   150
 SCF integral mode      SCFMode         .... Direct
   Integral package                     .... SHARK and LIBINT hybrid scheme
 Reset frequency        DirectResetFreq ....    20
 Integral Threshold     Thresh          ....  2.500e-11 Eh
 Primitive CutOff       TCut            ....  2.500e-12 Eh

Convergence Tolerance:
 Convergence Check Mode ConvCheckMode   .... Total+1el-Energy
 Convergence forced     ConvForced      .... 0
 Energy Change          TolE            ....  1.000e-08 Eh
 1-El. energy change                    ....  1.000e-05 Eh
 Orbital Gradient       TolG            ....  1.000e-05
 Orbital Rotation angle TolX            ....  1.000e-05
 DIIS Error             TolErr          ....  5.000e-07


Diagonalization of the overlap matrix:
Smallest eigenvalue                        ... 4.243e-05
Time for diagonalization                   ...    0.021 sec
Threshold for overlap eigenvalues          ... 1.000e-08
Number of eigenvalues below threshold      ... 0
Time for construction of square roots      ...    0.016 sec
Total time needed                          ...    0.038 sec

Time for model grid setup =    0.195 sec

------------------------------
INITIAL GUESS: MODEL POTENTIAL
------------------------------
Loading Hartree-Fock densities                     ... done
Calculating cut-offs                               ... done
Initializing the effective Hamiltonian             ... done
Setting up the integral package (SHARK)            ... done
Starting the Coulomb interaction                   ... done (   0.1 sec)
Reading the grid                                   ... done
Mapping shells                                     ... done
Starting the XC term evaluation                    ... done (   0.3 sec)
  promolecular density results
     # of electrons  =     78.000114870
     EX              =    -65.274184540
     EC              =     -2.631431326
     EX+EC           =    -67.905615866
Transforming the Hamiltonian                       ... done (   0.0 sec)
Diagonalizing the Hamiltonian                      ... done (   0.0 sec)
Back transforming the eigenvectors                 ... done (   0.0 sec)
Now organizing SCF variables                       ... done
                      ------------------
                      INITIAL GUESS DONE (   0.6 sec)
                      ------------------
-------------------
DFT GRID GENERATION
-------------------

General Integration Accuracy     IntAcc      ... 4.388
Radial Grid Type                 RadialGrid  ... OptM3 with GC (2021)
Angular Grid (max. ang.)         AngularGrid ... 4 (Lebedev-302)
Angular grid pruning method      GridPruning ... 4 (adaptive)
Weight generation scheme         WeightScheme... Becke
Basis function cutoff            BFCut       ... 1.0000e-11
Integration weight cutoff        WCut        ... 1.0000e-14
Angular grids for H and He will be reduced by one unit
Partially contracted basis set               ... off
Rotationally invariant grid construction     ... off

Total number of grid points                  ...    97616
Total number of batches                      ...     1536
Average number of points per batch           ...       63
Average number of grid points per atom       ...     4648
Time for grid setup =    0.732 sec

--------------------
COSX GRID GENERATION
--------------------

GRIDX 1
-------
General Integration Accuracy     IntAcc      ... 3.816
Radial Grid Type                 RadialGrid  ... OptM3 with GC (2021)
Angular Grid (max. ang.)         AngularGrid ... 1 (Lebedev-50)
Angular grid pruning method      GridPruning ... 4 (adaptive)
Weight generation scheme         WeightScheme... Becke
Basis function cutoff            BFCut       ... 1.0000e-11
Integration weight cutoff        WCut        ... 1.0000e-14
Angular grids for H and He will be reduced by one unit
Partially contracted basis set               ... on
Rotationally invariant grid construction     ... off

Total number of grid points                  ...    12191
Total number of batches                      ...      202
Average number of points per batch           ...       60
Average number of grid points per atom       ...      581
UseSFitting                                  ... on

GRIDX 2
-------
General Integration Accuracy     IntAcc      ... 4.020
Radial Grid Type                 RadialGrid  ... OptM3 with GC (2021)
Angular Grid (max. ang.)         AngularGrid ... 2 (Lebedev-110)
Angular grid pruning method      GridPruning ... 4 (adaptive)
Weight generation scheme         WeightScheme... Becke
Basis function cutoff            BFCut       ... 1.0000e-11
Integration weight cutoff        WCut        ... 1.0000e-14
Angular grids for H and He will be reduced by one unit
Partially contracted basis set               ... on
Rotationally invariant grid construction     ... off

Total number of grid points                  ...    27420
Total number of batches                      ...      439
Average number of points per batch           ...       62
Average number of grid points per atom       ...     1306
UseSFitting                                  ... on

GRIDX 3
-------
General Integration Accuracy     IntAcc      ... 4.338
Radial Grid Type                 RadialGrid  ... OptM3 with GC (2021)
Angular Grid (max. ang.)         AngularGrid ... 3 (Lebedev-194)
Angular grid pruning method      GridPruning ... 4 (adaptive)
Weight generation scheme         WeightScheme... Becke
Basis function cutoff            BFCut       ... 1.0000e-11
Integration weight cutoff        WCut        ... 1.0000e-14
Angular grids for H and He will be reduced by one unit
Partially contracted basis set               ... on
Rotationally invariant grid construction     ... off

Total number of grid points                  ...    61723
Total number of batches                      ...      976
Average number of points per batch           ...       63
Average number of grid points per atom       ...     2939
UseSFitting                                  ... on

Time for X-Grid setup             =    0.873 sec

--------------
SCF ITERATIONS
--------------
ITER       Energy         Delta-E        Max-DP      RMS-DP      [F,P]     Damp
               ***  Starting incremental Fock matrix formation  ***
  0   -518.4902337759   0.000000000000 0.61920440  0.00500156  0.2416447 0.7000
  1   -518.6588686456  -0.168634869707 0.54822969  0.00398052  0.1136762 0.7000
                               ***Turning on DIIS***
  2   -518.7230999443  -0.064231298703 0.92956174  0.00732224  0.0450953 0.0000
  3   -518.8228608143  -0.099760870012 0.42722458  0.00270449  0.0667734 0.0000
  4   -518.8465074138  -0.023646599431 0.13903509  0.00092798  0.0175451 0.0000
  5   -518.8482249908  -0.001717577003 0.05701318  0.00041761  0.0088580 0.0000
                      *** Initiating the SOSCF procedure ***
                           *** Shutting down DIIS ***
                      *** Re-Reading the Fockian *** 
                      *** Removing any level shift *** 
ITER      Energy       Delta-E        Grad      Rot      Max-DP    RMS-DP
  6   -518.84839240  -0.0001674087  0.000328  0.000328  0.045285  0.000338
               *** Restarting incremental Fock matrix formation ***
  7   -518.84844642  -0.0000540175  0.000170  0.000314  0.013451  0.000101
  8   -518.84844616   0.0000002538  0.000262  0.000216  0.003032  0.000022
  9   -518.84844785  -0.0000016906  0.000016  0.000045  0.000183  0.000003
 10   -518.84844784   0.0000000129  0.000028  0.000030  0.000134  0.000002
 11   -518.84844787  -0.0000000300  0.000006  0.000010  0.000199  0.000002
 12   -518.84844787   0.0000000004  0.000009  0.000007  0.000195  0.000002
                 **** Energy Check signals convergence ****
              ***Rediagonalizing the Fockian in SOSCF/NRSCF***

               *****************************************************
               *                     SUCCESS                       *
               *           SCF CONVERGED AFTER  13 CYCLES          *
               *****************************************************

Old exchange energy                            =    -16.624473848 Eh
New exchange energy                            =    -16.624550016 Eh
Exchange energy change after final integration =     -0.000076169 Eh
Total energy after final integration           =   -518.848524040 Eh
Final COS-X integration done in                =     8.415 sec

----------------
TOTAL SCF ENERGY
----------------

Total Energy       :         -518.84852404 Eh          -14118.58611 eV

Components:
Nuclear Repulsion  :          598.16758965 Eh           16276.96762 eV
Electronic Energy  :        -1117.01611369 Eh          -30395.55373 eV
One Electron Energy:        -1893.87130934 Eh          -51534.85831 eV
Two Electron Energy:          776.85519565 Eh           21139.30458 eV
Max COSX asymmetry :            0.00000481 Eh               0.00013 eV

Virial components:
Potential Energy   :        -1033.33964596 Eh          -28118.60129 eV
Kinetic Energy     :          514.49112192 Eh           14000.01517 eV
Virial Ratio       :            2.00846934


DFT components:
N(Alpha)           :       39.000119978479 electrons
N(Beta)            :       39.000119978479 electrons
N(Total)           :       78.000239956958 electrons
E(X)               :      -49.758490256401 Eh       
E(C)               :       -2.638185301330 Eh       
E(XC)              :      -52.396675557731 Eh       
DFET-embed. en.    :        0.000000000000 Eh       

---------------
SCF CONVERGENCE
---------------

  Last Energy change         ...   -6.8621e-10  Tolerance :   1.0000e-08
  Last MAX-Density change    ...    2.6645e-15  Tolerance :   1.0000e-07
  Last RMS-Density change    ...    3.6966e-17  Tolerance :   5.0000e-09
  Last Orbital Gradient      ...    1.0613e-06  Tolerance :   1.0000e-05
  Last Orbital Rotation      ...    2.3237e-06  Tolerance :   1.0000e-05

             **** THE GBW FILE WAS UPDATED (28Oct_SVPD_PBE0_D3_wb97.gbw) ****
             **** DENSITY 28Oct_SVPD_PBE0_D3_wb97.scfp WAS UPDATED ****
             **** ENERGY FILE WAS UPDATED (28Oct_SVPD_PBE0_D3_wb97.en.tmp) ****
             **** THE GBW FILE WAS UPDATED (28Oct_SVPD_PBE0_D3_wb97.gbw) ****
             **** DENSITY 28Oct_SVPD_PBE0_D3_wb97.scfp WAS UPDATED ****
----------------
ORBITAL ENERGIES
----------------

  NO   OCC          E(Eh)            E(eV) 
   0   2.0000     -24.876625      -676.9274 
   1   2.0000     -19.247254      -523.7444 
   2   2.0000     -14.403098      -391.9282 
   3   2.0000     -14.377860      -391.2415 
   4   2.0000     -10.439933      -284.0850 
   5   2.0000     -10.280264      -279.7402 
   6   2.0000     -10.279069      -279.7077 
   7   2.0000     -10.274258      -279.5768 
   8   2.0000     -10.267454      -279.3916 
   9   2.0000     -10.146282      -276.0944 
  10   2.0000      -1.363849       -37.1122 
  11   2.0000      -1.078861       -29.3573 
  12   2.0000      -0.991758       -26.9871 
  13   2.0000      -0.905938       -24.6518 
  14   2.0000      -0.838169       -22.8077 
  15   2.0000      -0.757433       -20.6108 
  16   2.0000      -0.721691       -19.6382 
  17   2.0000      -0.699515       -19.0348 
  18   2.0000      -0.652745       -17.7621 
  19   2.0000      -0.594526       -16.1779 
  20   2.0000      -0.585538       -15.9333 
  21   2.0000      -0.577700       -15.7200 
  22   2.0000      -0.559922       -15.2363 
  23   2.0000      -0.533169       -14.5083 
  24   2.0000      -0.521107       -14.1800 
  25   2.0000      -0.500403       -13.6167 
  26   2.0000      -0.491190       -13.3660 
  27   2.0000      -0.453590       -12.3428 
  28   2.0000      -0.445325       -12.1179 
  29   2.0000      -0.425752       -11.5853 
  30   2.0000      -0.408721       -11.1219 
  31   2.0000      -0.406794       -11.0694 
  32   2.0000      -0.392526       -10.6812 
  33   2.0000      -0.385713       -10.4958 
  34   2.0000      -0.373765       -10.1707 
  35   2.0000      -0.347625        -9.4594 
  36   2.0000      -0.330372        -8.9899 
  37   2.0000      -0.266600        -7.2546 
  38   2.0000      -0.183539        -4.9943 
  39   0.0000      -0.053239        -1.4487 
  40   0.0000       0.014989         0.4079 
  41   0.0000       0.039755         1.0818 
  42   0.0000       0.044482         1.2104 
  43   0.0000       0.051308         1.3962 
  44   0.0000       0.059301         1.6137 
  45   0.0000       0.075348         2.0503 
  46   0.0000       0.081013         2.2045 
  47   0.0000       0.085084         2.3152 
  48   0.0000       0.091332         2.4853 
  49   0.0000       0.097904         2.6641 
  50   0.0000       0.111604         3.0369 
  51   0.0000       0.116385         3.1670 
  52   0.0000       0.131996         3.5918 
  53   0.0000       0.136069         3.7026 
  54   0.0000       0.137977         3.7546 
  55   0.0000       0.149450         4.0667 
  56   0.0000       0.150968         4.1080 
  57   0.0000       0.162176         4.4130 
  58   0.0000       0.167128         4.5478 
  59   0.0000       0.177801         4.8382 
  60   0.0000       0.191197         5.2027 
  61   0.0000       0.199804         5.4369 
  62   0.0000       0.206847         5.6286 
  63   0.0000       0.210339         5.7236 
  64   0.0000       0.214985         5.8500 
  65   0.0000       0.223104         6.0710 
  66   0.0000       0.232599         6.3293 
  67   0.0000       0.238322         6.4851 
  68   0.0000       0.244416         6.6509 
  69   0.0000       0.260602         7.0913 
  70   0.0000       0.261187         7.1073 
  71   0.0000       0.266381         7.2486 
  72   0.0000       0.275264         7.4903 
  73   0.0000       0.285644         7.7728 
  74   0.0000       0.288510         7.8508 
  75   0.0000       0.293689         7.9917 
  76   0.0000       0.302638         8.2352 
  77   0.0000       0.306559         8.3419 
  78   0.0000       0.314320         8.5531 
  79   0.0000       0.319261         8.6875 
  80   0.0000       0.321823         8.7572 
  81   0.0000       0.329805         8.9745 
  82   0.0000       0.336963         9.1692 
  83   0.0000       0.338465         9.2101 
  84   0.0000       0.353164         9.6101 
  85   0.0000       0.358551         9.7567 
  86   0.0000       0.363327         9.8866 
  87   0.0000       0.364343         9.9143 
  88   0.0000       0.368747        10.0341 
  89   0.0000       0.372572        10.1382 
  90   0.0000       0.386295        10.5116 
  91   0.0000       0.388947        10.5838 
  92   0.0000       0.395727        10.7683 
  93   0.0000       0.396929        10.8010 
  94   0.0000       0.404549        11.0083 
  95   0.0000       0.411352        11.1935 
  96   0.0000       0.414420        11.2769 
  97   0.0000       0.421410        11.4671 
  98   0.0000       0.423982        11.5371 
  99   0.0000       0.431295        11.7361 
 100   0.0000       0.437296        11.8994 
 101   0.0000       0.439592        11.9619 
 102   0.0000       0.450893        12.2694 
 103   0.0000       0.456161        12.4128 
 104   0.0000       0.466120        12.6838 
 105   0.0000       0.476261        12.9597 
 106   0.0000       0.478386        13.0175 
 107   0.0000       0.483324        13.1519 
 108   0.0000       0.487546        13.2668 
 109   0.0000       0.493781        13.4365 
 110   0.0000       0.498603        13.5677 
 111   0.0000       0.500815        13.6279 
 112   0.0000       0.510272        13.8852 
 113   0.0000       0.520504        14.1636 
 114   0.0000       0.525587        14.3020 
 115   0.0000       0.532428        14.4881 
 116   0.0000       0.536404        14.5963 
 117   0.0000       0.539544        14.6817 
 118   0.0000       0.549625        14.9561 
 119   0.0000       0.553655        15.0657 
 120   0.0000       0.556153        15.1337 
 121   0.0000       0.564348        15.3567 
 122   0.0000       0.565808        15.3964 
 123   0.0000       0.577723        15.7206 
 124   0.0000       0.585615        15.9354 
 125   0.0000       0.587864        15.9966 
 126   0.0000       0.599241        16.3062 
 127   0.0000       0.606822        16.5125 
 128   0.0000       0.610877        16.6228 
 129   0.0000       0.629780        17.1372 
 130   0.0000       0.632493        17.2110 
 131   0.0000       0.639171        17.3927 
 132   0.0000       0.643225        17.5030 
 133   0.0000       0.653361        17.7788 
 134   0.0000       0.660937        17.9850 
 135   0.0000       0.667701        18.1691 
 136   0.0000       0.681583        18.5468 
 137   0.0000       0.685194        18.6451 
 138   0.0000       0.693473        18.8704 
 139   0.0000       0.704515        19.1708 
 140   0.0000       0.713908        19.4264 
 141   0.0000       0.716580        19.4991 
 142   0.0000       0.734871        19.9969 
 143   0.0000       0.746378        20.3100 
 144   0.0000       0.760785        20.7020 
 145   0.0000       0.764666        20.8076 
 146   0.0000       0.779056        21.1992 
 147   0.0000       0.787039        21.4164 
 148   0.0000       0.803293        21.8587 
 149   0.0000       0.813988        22.1497 
 150   0.0000       0.822493        22.3812 
 151   0.0000       0.833668        22.6853 
 152   0.0000       0.850380        23.1400 
 153   0.0000       0.854537        23.2531 
 154   0.0000       0.871235        23.7075 
 155   0.0000       0.884267        24.0621 
 156   0.0000       0.888683        24.1823 
 157   0.0000       0.901581        24.5333 
 158   0.0000       0.921720        25.0813 
 159   0.0000       0.949082        25.8258 
 160   0.0000       0.958240        26.0750 
 161   0.0000       0.970553        26.4101 
 162   0.0000       0.984320        26.7847 
 163   0.0000       0.985224        26.8093 
 164   0.0000       1.012721        27.5575 
 165   0.0000       1.015764        27.6403 
 166   0.0000       1.023448        27.8494 
 167   0.0000       1.032614        28.0989 
 168   0.0000       1.049373        28.5549 
 169   0.0000       1.057013        28.7628 
 170   0.0000       1.063252        28.9326 
 171   0.0000       1.087073        29.5808 
 172   0.0000       1.093032        29.7429 
 173   0.0000       1.103396        30.0249 
 174   0.0000       1.107265        30.1302 
 175   0.0000       1.131418        30.7875 
 176   0.0000       1.143691        31.1214 
 177   0.0000       1.149512        31.2798 
 178   0.0000       1.165057        31.7028 
 179   0.0000       1.173534        31.9335 
 180   0.0000       1.199359        32.6362 
 181   0.0000       1.214348        33.0441 
 182   0.0000       1.226812        33.3833 
 183   0.0000       1.246231        33.9117 
 184   0.0000       1.265326        34.4313 
 185   0.0000       1.294276        35.2190 
 186   0.0000       1.318812        35.8867 
 187   0.0000       1.326799        36.1040 
 188   0.0000       1.339384        36.4465 
 189   0.0000       1.377441        37.4821 
 190   0.0000       1.388987        37.7963 
 191   0.0000       1.408205        38.3192 
 192   0.0000       1.423230        38.7281 
 193   0.0000       1.446726        39.3674 
 194   0.0000       1.461283        39.7635 
 195   0.0000       1.488931        40.5159 
 196   0.0000       1.518467        41.3196 
 197   0.0000       1.561376        42.4872 
 198   0.0000       1.571214        42.7549 
 199   0.0000       1.578437        42.9514 
 200   0.0000       1.617400        44.0117 
 201   0.0000       1.641937        44.6794 
 202   0.0000       1.671308        45.4786 
 203   0.0000       1.687015        45.9060 
 204   0.0000       1.700702        46.2784 
 205   0.0000       1.727509        47.0079 
 206   0.0000       1.738311        47.3019 
 207   0.0000       1.752428        47.6860 
 208   0.0000       1.758894        47.8619 
 209   0.0000       1.763260        47.9807 
 210   0.0000       1.793698        48.8090 
 211   0.0000       1.813856        49.3575 
 212   0.0000       1.829747        49.7900 
 213   0.0000       1.852438        50.4074 
 214   0.0000       1.864766        50.7429 
 215   0.0000       1.873130        50.9705 
 216   0.0000       1.890447        51.4417 
 217   0.0000       1.904948        51.8363 
 218   0.0000       1.914584        52.0985 
 219   0.0000       1.938237        52.7421 
 220   0.0000       1.941330        52.8263 
 221   0.0000       1.950942        53.0878 
 222   0.0000       1.955523        53.2125 
 223   0.0000       1.979427        53.8630 
 224   0.0000       2.005921        54.5839 
 225   0.0000       2.016389        54.8687 
 226   0.0000       2.040337        55.5204 
 227   0.0000       2.062964        56.1361 
 228   0.0000       2.068845        56.2961 
 229   0.0000       2.072614        56.3987 
 230   0.0000       2.097483        57.0754 
 231   0.0000       2.101538        57.1858 
 232   0.0000       2.124380        57.8073 
 233   0.0000       2.130384        57.9707 
 234   0.0000       2.138246        58.1846 
 235   0.0000       2.148719        58.4696 
 236   0.0000       2.190578        59.6086 
 237   0.0000       2.193570        59.6901 
 238   0.0000       2.215720        60.2928 
 239   0.0000       2.227089        60.6022 
 240   0.0000       2.253278        61.3148 
 241   0.0000       2.280335        62.0511 
 242   0.0000       2.289335        62.2960 
 243   0.0000       2.320609        63.1470 
 244   0.0000       2.340947        63.7004 
 245   0.0000       2.357061        64.1389 
 246   0.0000       2.362783        64.2946 
 247   0.0000       2.382819        64.8398 
 248   0.0000       2.404123        65.4195 
 249   0.0000       2.432297        66.1862 
 250   0.0000       2.436108        66.2899 
 251   0.0000       2.446494        66.5725 
 252   0.0000       2.482428        67.5503 
 253   0.0000       2.502165        68.0874 
 254   0.0000       2.508952        68.2721 
 255   0.0000       2.532595        68.9154 
 256   0.0000       2.560296        69.6692 
 257   0.0000       2.579325        70.1870 
 258   0.0000       2.621698        71.3400 
 259   0.0000       2.644656        71.9648 
 260   0.0000       2.650331        72.1192 
 261   0.0000       2.672988        72.7357 
 262   0.0000       2.701132        73.5015 
 263   0.0000       2.755324        74.9762 
 264   0.0000       2.775172        75.5163 
 265   0.0000       2.816236        76.6337 
 266   0.0000       2.862497        77.8925 
 267   0.0000       2.911625        79.2293 
 268   0.0000       2.940178        80.0063 
 269   0.0000       2.961363        80.5828 
 270   0.0000       2.998684        81.5983 
 271   0.0000       3.024985        82.3140 
 272   0.0000       3.041801        82.7716 
 273   0.0000       3.079189        83.7890 
 274   0.0000       3.106433        84.5303 
 275   0.0000       3.111473        84.6675 
 276   0.0000       3.149035        85.6896 
 277   0.0000       3.185702        86.6874 
 278   0.0000       3.198656        87.0399 
 279   0.0000       3.233230        87.9807 
 280   0.0000       3.246115        88.3313 
 281   0.0000       3.261868        88.7600 
 282   0.0000       3.299031        89.7712 
 283   0.0000       3.365829        91.5889 
 284   0.0000       3.412875        92.8690 
 285   0.0000       3.434946        93.4696 
 286   0.0000       3.452572        93.9493 
 287   0.0000       3.530941        96.0818 
 288   0.0000       3.541161        96.3599 
 289   0.0000       3.578358        97.3721 
 290   0.0000       3.699249       100.6617 
 291   0.0000       3.724090       101.3376 
 292   0.0000       3.801163       103.4349 
 293   0.0000       4.145798       112.8129 

                    ********************************
                    * MULLIKEN POPULATION ANALYSIS *
                    ********************************

-----------------------
MULLIKEN ATOMIC CHARGES
-----------------------
   0 C :    0.722518
   1 N :   -0.417056
   2 C :    0.014890
   3 C :    0.110111
   4 H :   -0.004636
   5 H :    0.072057
   6 C :    0.908559
   7 C :    0.217254
   8 N :    0.016585
   9 C :    0.337470
  10 H :   -0.342107
  11 H :   -0.092551
  12 H :   -0.179796
  13 H :   -0.083469
  14 H :    0.056815
  15 H :    0.059437
  16 H :   -0.348500
  17 H :    0.099432
  18 H :   -0.076449
  19 F :   -0.422693
  20 O :   -0.647871
Sum of atomic charges:   -0.0000000

--------------------------------
MULLIKEN REDUCED ORBITAL CHARGES
--------------------------------
  0 C s       :     2.691572  s :     2.691572
      pz      :     0.879750  p :     2.495959
      px      :     0.819089
      py      :     0.797120
      dz2     :    -0.003013  d :     0.089950
      dxz     :    -0.002048
      dyz     :     0.028481
      dx2y2   :    -0.014706
      dxy     :     0.081238
  1 N s       :     3.430927  s :     3.430927
      pz      :     1.179365  p :     3.792465
      px      :     1.111612
      py      :     1.501488
      dz2     :     0.021364  d :     0.193664
      dxz     :     0.044014
      dyz     :     0.035343
      dx2y2   :     0.074924
      dxy     :     0.018020
  2 C s       :     2.820426  s :     2.820426
      pz      :     0.962907  p :     2.803229
      px      :     0.879025
      py      :     0.961297
      dz2     :     0.072715  d :     0.361455
      dxz     :     0.048447
      dyz     :     0.056222
      dx2y2   :     0.083083
      dxy     :     0.100989
  3 C s       :     2.737623  s :     2.737623
      pz      :     0.992574  p :     2.921973
      px      :     0.930979
      py      :     0.998420
      dz2     :     0.104134  d :     0.230294
      dxz     :     0.044081
      dyz     :     0.027953
      dx2y2   :     0.032436
      dxy     :     0.021690
  4 H s       :     0.970573  s :     0.970573
      pz      :    -0.008643  p :     0.034063
      px      :    -0.007947
      py      :     0.050652
  5 H s       :     0.907964  s :     0.907964
      pz      :    -0.000314  p :     0.019979
      px      :     0.035951
      py      :    -0.015658
  6 C s       :     2.867738  s :     2.867738
      pz      :     0.653364  p :     2.116478
      px      :     0.821846
      py      :     0.641268
      dz2     :    -0.006409  d :     0.107224
      dxz     :     0.025841
      dyz     :     0.050467
      dx2y2   :     0.028693
      dxy     :     0.008632
  7 C s       :     2.782695  s :     2.782695
      pz      :     0.865556  p :     2.684910
      px      :     0.825776
      py      :     0.993578
      dz2     :     0.210166  d :     0.315140
      dxz     :    -0.029876
      dyz     :    -0.061777
      dx2y2   :     0.077151
      dxy     :     0.119477
  8 N s       :     3.258975  s :     3.258975
      pz      :     1.226470  p :     3.687488
      px      :     1.237183
      py      :     1.223834
      dz2     :    -0.006791  d :     0.036952
      dxz     :     0.004293
      dyz     :     0.006939
      dx2y2   :     0.007119
      dxy     :     0.025393
  9 C s       :     2.732215  s :     2.732215
      pz      :     0.853553  p :     2.847305
      px      :     0.821496
      py      :     1.172256
      dz2     :     0.038640  d :     0.083010
      dxz     :    -0.004482
      dyz     :     0.009209
      dx2y2   :     0.025777
      dxy     :     0.013866
 10 H s       :     1.248222  s :     1.248222
      pz      :     0.057881  p :     0.093884
      px      :     0.001045
      py      :     0.034958
 11 H s       :     1.046446  s :     1.046446
      pz      :    -0.010146  p :     0.046105
      px      :     0.037694
      py      :     0.018558
 12 H s       :     1.118337  s :     1.118337
      pz      :     0.040527  p :     0.061459
      px      :     0.002281
      py      :     0.018651
 13 H s       :     0.980378  s :     0.980378
      pz      :     0.035959  p :     0.103091
      px      :     0.002408
      py      :     0.064723
 14 H s       :     0.938909  s :     0.938909
      pz      :    -0.018733  p :     0.004276
      px      :     0.017260
      py      :     0.005749
 15 H s       :     0.900417  s :     0.900417
      pz      :     0.018692  p :     0.040147
      px      :     0.040089
      py      :    -0.018634
 16 H s       :     1.328950  s :     1.328950
      pz      :    -0.015414  p :     0.019549
      px      :     0.013913
      py      :     0.021050
 17 H s       :     0.896093  s :     0.896093
      pz      :     0.036359  p :     0.004475
      px      :    -0.021167
      py      :    -0.010717
 18 H s       :     1.052864  s :     1.052864
      pz      :     0.007290  p :     0.023584
      px      :     0.031040
      py      :    -0.014746
 19 F s       :     3.993050  s :     3.993050
      pz      :     1.566173  p :     5.399192
      px      :     1.967196
      py      :     1.865822
      dz2     :     0.009015  d :     0.030451
      dxz     :     0.004009
      dyz     :     0.010109
      dx2y2   :     0.003551
      dxy     :     0.003767
 20 O s       :     3.983069  s :     3.983069
      pz      :     1.718650  p :     4.621814
      px      :     1.359095
      py      :     1.544069
      dz2     :     0.008060  d :     0.042988
      dxz     :     0.007683
      dyz     :     0.009357
      dx2y2   :     0.000506
      dxy     :     0.017382


                     *******************************
                     * LOEWDIN POPULATION ANALYSIS *
                     *******************************

----------------------
LOEWDIN ATOMIC CHARGES
----------------------
   0 C :    0.069776
   1 N :    0.006475
   2 C :   -0.007532
   3 C :    0.064123
   4 H :    0.041496
   5 H :    0.030917
   6 C :    0.024288
   7 C :   -0.268143
   8 N :    0.214714
   9 C :    0.154321
  10 H :   -0.100310
  11 H :   -0.109743
  12 H :    0.006825
  13 H :   -0.082447
  14 H :    0.011899
  15 H :    0.022830
  16 H :    0.022896
  17 H :    0.032744
  18 H :    0.029185
  19 F :   -0.009089
  20 O :   -0.155225

-------------------------------
LOEWDIN REDUCED ORBITAL CHARGES
-------------------------------
  0 C s       :     2.666998  s :     2.666998
      pz      :     0.907345  p :     2.583785
      px      :     0.797883
      py      :     0.878557
      dz2     :     0.075837  d :     0.679442
      dxz     :     0.144143
      dyz     :     0.143355
      dx2y2   :     0.148897
      dxy     :     0.167211
  1 N s       :     2.917318  s :     2.917318
      pz      :     1.139991  p :     3.460337
      px      :     1.042787
      py      :     1.277560
      dz2     :     0.130479  d :     0.615870
      dxz     :     0.180797
      dyz     :     0.093522
      dx2y2   :     0.101916
      dxy     :     0.109156
  2 C s       :     2.687525  s :     2.687525
      pz      :     0.885172  p :     2.680552
      px      :     0.915768
      py      :     0.879613
      dz2     :     0.102865  d :     0.639454
      dxz     :     0.131663
      dyz     :     0.158392
      dx2y2   :     0.156240
      dxy     :     0.090294
  3 C s       :     2.685041  s :     2.685041
      pz      :     0.890833  p :     2.686053
      px      :     0.882308
      py      :     0.912911
      dz2     :     0.109096  d :     0.564783
      dxz     :     0.154145
      dyz     :     0.105621
      dx2y2   :     0.129544
      dxy     :     0.066378
  4 H s       :     0.711570  s :     0.711570
      pz      :     0.072335  p :     0.246934
      px      :     0.065940
      py      :     0.108659
  5 H s       :     0.719173  s :     0.719173
      pz      :     0.080798  p :     0.249910
      px      :     0.104800
      py      :     0.064313
  6 C s       :     2.639178  s :     2.639178
      pz      :     0.757827  p :     2.259087
      px      :     0.903254
      py      :     0.598006
      dz2     :     0.240377  d :     1.077447
      dxz     :     0.302304
      dyz     :     0.169950
      dx2y2   :     0.191690
      dxy     :     0.173127
  7 C s       :     2.627295  s :     2.627295
      pz      :     0.856832  p :     2.509584
      px      :     0.862591
      py      :     0.790160
      dz2     :     0.262320  d :     1.131265
      dxz     :     0.239072
      dyz     :     0.197811
      dx2y2   :     0.257907
      dxy     :     0.174156
  8 N s       :     2.937569  s :     2.937569
      pz      :     1.152733  p :     3.489420
      px      :     1.192081
      py      :     1.144606
      dz2     :     0.067121  d :     0.358297
      dxz     :     0.077838
      dyz     :     0.026718
      dx2y2   :     0.099587
      dxy     :     0.087034
  9 C s       :     2.743015  s :     2.743015
      pz      :     0.925185  p :     2.782080
      px      :     0.921006
      py      :     0.935889
      dz2     :     0.095481  d :     0.320584
      dxz     :     0.056833
      dyz     :     0.052796
      dx2y2   :     0.056184
      dxy     :     0.059290
 10 H s       :     0.764576  s :     0.764576
      pz      :     0.129237  p :     0.335734
      px      :     0.092285
      py      :     0.114212
 11 H s       :     0.759272  s :     0.759272
      pz      :     0.096024  p :     0.350471
      px      :     0.134362
      py      :     0.120084
 12 H s       :     0.626720  s :     0.626720
      pz      :     0.106419  p :     0.366454
      px      :     0.113413
      py      :     0.146623
 13 H s       :     0.615055  s :     0.615055
      pz      :     0.116829  p :     0.467392
      px      :     0.108553
      py      :     0.242009
 14 H s       :     0.652058  s :     0.652058
      pz      :     0.155393  p :     0.336044
      px      :     0.096909
      py      :     0.083742
 15 H s       :     0.705921  s :     0.705921
      pz      :     0.126129  p :     0.271249
      px      :     0.070250
      py      :     0.074870
 16 H s       :     0.741130  s :     0.741130
      pz      :     0.093280  p :     0.235974
      px      :     0.060771
      py      :     0.081923
 17 H s       :     0.713900  s :     0.713900
      pz      :     0.087039  p :     0.253356
      px      :     0.105118
      py      :     0.061199
 18 H s       :     0.722159  s :     0.722159
      pz      :     0.074269  p :     0.248657
      px      :     0.113729
      py      :     0.060659
 19 F s       :     3.603202  s :     3.603202
      pz      :     1.609770  p :     5.178478
      px      :     1.838159
      py      :     1.730550
      dz2     :     0.068735  d :     0.227410
      dxz     :     0.063292
      dyz     :     0.056761
      dx2y2   :     0.019080
      dxy     :     0.019541
 20 O s       :     3.441110  s :     3.441110
      pz      :     1.586600  p :     4.460131
      px      :     1.458758
      py      :     1.414773
      dz2     :     0.036337  d :     0.253984
      dxz     :     0.057631
      dyz     :     0.026319
      dx2y2   :     0.079613
      dxy     :     0.054084


                      *****************************
                      * MAYER POPULATION ANALYSIS *
                      *****************************

  NA   - Mulliken gross atomic population
  ZA   - Total nuclear charge
  QA   - Mulliken gross atomic charge
  VA   - Mayer's total valence
  BVA  - Mayer's bonded valence
  FA   - Mayer's free valence

  ATOM       NA         ZA         QA         VA         BVA        FA
  0 C      5.2775     6.0000     0.7225     3.9693     3.9693     0.0000
  1 N      7.4171     7.0000    -0.4171     3.7398     3.7398     0.0000
  2 C      5.9851     6.0000     0.0149     4.6469     4.6469    -0.0000
  3 C      5.8899     6.0000     0.1101     4.3233     4.3233    -0.0000
  4 H      1.0046     1.0000    -0.0046     1.1126     1.1126    -0.0000
  5 H      0.9279     1.0000     0.0721     1.0399     1.0399    -0.0000
  6 C      5.0914     6.0000     0.9086     3.7252     3.7252    -0.0000
  7 C      5.7827     6.0000     0.2173     4.6871     4.6871    -0.0000
  8 N      6.9834     7.0000     0.0166     3.0858     3.0858     0.0000
  9 C      5.6625     6.0000     0.3375     3.8491     3.8491    -0.0000
 10 H      1.3421     1.0000    -0.3421     1.2333     1.2333    -0.0000
 11 H      1.0926     1.0000    -0.0926     1.1308     1.1308    -0.0000
 12 H      1.1798     1.0000    -0.1798     0.9891     0.9891     0.0000
 13 H      1.0835     1.0000    -0.0835     1.1192     1.1192     0.0000
 14 H      0.9432     1.0000     0.0568     0.8300     0.8300    -0.0000
 15 H      0.9406     1.0000     0.0594     1.0144     1.0144     0.0000
 16 H      1.3485     1.0000    -0.3485     0.9142     0.9142     0.0000
 17 H      0.9006     1.0000     0.0994     0.9579     0.9579     0.0000
 18 H      1.0764     1.0000    -0.0764     1.0855     1.0855    -0.0000
 19 F      9.4227     9.0000    -0.4227     0.7867     0.7867    -0.0000
 20 O      8.6479     8.0000    -0.6479     1.8673     1.8673     0.0000

  Mayer bond orders larger than 0.100000
B(  0-C ,  1-N ) :   0.8060 B(  0-C ,  2-C ) :   1.1600 B(  0-C , 15-H ) :   0.7723 
B(  0-C , 16-H ) :   0.9528 B(  0-C , 18-H ) :   0.1725 B(  1-N ,  2-C ) :   0.1486 
B(  1-N ,  7-C ) :   1.0966 B(  1-N ,  9-C ) :   0.2298 B(  1-N , 12-H ) :   1.0308 
B(  1-N , 15-H ) :   0.1432 B(  2-C ,  3-C ) :   1.2206 B(  2-C ,  4-H ) :   0.1623 
B(  2-C ,  5-H ) :   0.1042 B(  2-C , 17-H ) :   0.8457 B(  2-C , 18-H ) :   0.9386 
B(  3-C ,  4-H ) :   0.8342 B(  3-C ,  5-H ) :   0.8694 B(  3-C ,  6-C ) :   1.1263 
B(  4-H ,  6-C ) :   0.1215 B(  5-H ,  6-C ) :   0.1238 B(  6-C , 19-F ) :   0.6104 
B(  6-C , 20-O ) :   1.5387 B(  7-C ,  8-N ) :   0.9252 B(  7-C ,  9-C ) :   1.9063 
B(  7-C , 10-H ) :   0.1917 B(  7-C , 11-H ) :   0.3032 B(  7-C , 12-H ) :  -0.1749 
B(  7-C , 13-H ) :   0.1107 B(  8-N ,  9-C ) :   0.1407 B(  8-N , 13-H ) :   0.8445 
B(  8-N , 14-H ) :   0.9063 B(  9-C , 10-H ) :   0.8917 B(  9-C , 11-H ) :   0.5882 
B( 10-H , 11-H ) :   0.1836 

-------
TIMINGS
-------

Total SCF time: 0 days 0 hours 1 min 3 sec 

Total time                  ....      63.230 sec
Sum of individual times     ....      62.910 sec  ( 99.5%)

Fock matrix formation       ....      60.269 sec  ( 95.3%)
  Split-RI-J                ....       4.302 sec  (  7.1% of F)
  Chain of spheres X        ....      45.658 sec  ( 75.8% of F)
  XC integration            ....      10.214 sec  ( 16.9% of F)
    Basis function eval.    ....       2.897 sec  ( 28.4% of XC)
    Density eval.           ....       2.911 sec  ( 28.5% of XC)
    XC-Functional eval.     ....       0.334 sec  (  3.3% of XC)
    XC-Potential eval.      ....       3.511 sec  ( 34.4% of XC)
Diagonalization             ....       0.163 sec  (  0.3%)
Density matrix formation    ....       0.014 sec  (  0.0%)
Population analysis         ....       0.020 sec  (  0.0%)
Initial guess               ....       0.438 sec  (  0.7%)
Orbital Transformation      ....       0.000 sec  (  0.0%)
Orbital Orthonormalization  ....       0.000 sec  (  0.0%)
DIIS solution               ....       0.089 sec  (  0.1%)
SOSCF solution              ....       0.116 sec  (  0.2%)
Grid generation             ....       1.801 sec  (  2.8%)

Maximum memory used throughout the entire SCF-calculation: 66.7 MB


-------------------------------------------------------------------------------
                          DFT DISPERSION CORRECTION                            
                                                                               
                              DFTD3 V3.1  Rev 1                                
                          USING Becke-Johnson damping                          
-------------------------------------------------------------------------------
The PBE0 functional is recognized
Active option DFTDOPT                   ...         4   

molecular C6(AA) [au] = 3733.593162 


            DFT-D V3
 parameters
 s6 scaling factor         :     1.0000 
 a1 scaling factor         :     0.4145 
 s8 scaling factor         :     1.2177 
 a2 scaling factor         :     4.8593 
 ad hoc parameters k1-k3   :    16.0000     1.3333    -4.0000 

 Edisp/kcal,au: -12.270232313545  -0.019553857769 
 E6   /kcal   :  -7.898584772 
 E8   /kcal   :  -4.371647542 
 % E8         :  35.628074760 

-------------------------   ----------------
Dispersion correction           -0.019553858
-------------------------   ----------------


-------------------------   --------------------
FINAL SINGLE POINT ENERGY      -518.868077897721
-------------------------   --------------------


                            ***************************************
                            *     ORCA property calculations      *
                            ***************************************

                                    ---------------------
                                    Active property flags
                                    ---------------------
   (+) Dipole Moment


------------------------------------------------------------------------------
                       ORCA ELECTRIC PROPERTIES CALCULATION
------------------------------------------------------------------------------

Dipole Moment Calculation                       ... on
Quadrupole Moment Calculation                   ... off
Polarizability Calculation                      ... off
GBWName                                         ... 28Oct_SVPD_PBE0_D3_wb97.gbw
Electron density file                           ... 28Oct_SVPD_PBE0_D3_wb97.scfp
The origin for moment calculation is the CENTER OF MASS  = ( 9.609515,  3.855000 -9.371929)

-------------
DIPOLE MOMENT
-------------
                                X             Y             Z
Electronic contribution:      3.57066      -4.84517      -4.86495
Nuclear contribution   :     -4.64021       3.37029       5.31478
                        -----------------------------------------
Total Dipole Moment    :     -1.06955      -1.47489       0.44983
                        -----------------------------------------
Magnitude (a.u.)       :      1.87658
Magnitude (Debye)      :      4.76990



--------------------
Rotational spectrum 
--------------------
 
Rotational constants in cm-1:     0.061077     0.043622     0.034103 
Rotational constants in MHz :  1831.041375  1307.759852  1022.388536 

 Dipole components along the rotational axes: 
x,y,z [a.u.] :    -1.829688    -0.014620    -0.416644 
x,y,z [Debye]:    -4.650698    -0.037161    -1.059024 

 

Timings for individual modules:

Sum of individual times         ...       64.204 sec (=   1.070 min)
GTO integral calculation        ...        0.620 sec (=   0.010 min)   1.0 %
SCF iterations                  ...       63.584 sec (=   1.060 min)  99.0 %
                             ****ORCA TERMINATED NORMALLY****
TOTAL RUN TIME: 0 days 0 hours 1 minutes 4 seconds 785 msec
