
                                        *****************
                                        * O   R   C   A *
                                        *****************

                                            #,                                       
                                            ###                                      
                                            ####                                     
                                            #####                                    
                                            ######                                   
                                           ########,                                 
                                     ,,################,,,,,                         
                               ,,#################################,,                 
                          ,,##########################################,,             
                       ,#########################################, ''#####,          
                    ,#############################################,,   '####,        
                  ,##################################################,,,,####,       
                ,###########''''           ''''###############################       
              ,#####''   ,,,,##########,,,,          '''####'''          '####       
            ,##' ,,,,###########################,,,                        '##       
           ' ,,###''''                  '''############,,,                           
         ,,##''                                '''############,,,,        ,,,,,,###''
      ,#''                                            '''#######################'''  
     '                                                          ''''####''''         
             ,#######,   #######,   ,#######,      ##                                
            ,#'     '#,  ##    ##  ,#'     '#,    #''#        ######   ,####,        
            ##       ##  ##   ,#'  ##            #'  '#       #        #'  '#        
            ##       ##  #######   ##           ,######,      #####,   #    #        
            '#,     ,#'  ##    ##  '#,     ,#' ,#      #,         ##   #,  ,#        
             '#######'   ##     ##  '#######'  #'      '#     #####' # '####'        



                  #######################################################
                  #                        -***-                        #
                  #          Department of theory and spectroscopy      #
                  #    Directorship and core code : Frank Neese         #
                  #        Max Planck Institute fuer Kohlenforschung    #
                  #                Kaiser Wilhelm Platz 1               #
                  #                 D-45470 Muelheim/Ruhr               #
                  #                      Germany                        #
                  #                                                     #
                  #                  All rights reserved                #
                  #                        -***-                        #
                  #######################################################


                         Program Version 5.0.0 -  RELEASE  -
                                (SVN: $Rev: 19529$)
                ($Date: 2021-06-28 11:36:33 +0200 (Mo, 28 Jun 2021) $)


 With contributions from (in alphabetic order):
   Daniel Aravena         : Magnetic Suceptibility
   Michael Atanasov       : Ab Initio Ligand Field Theory (pilot matlab implementation)
   Alexander A. Auer      : GIAO ZORA, VPT2 properties, NMR spectrum
   Ute Becker             : Parallelization
   Giovanni Bistoni       : ED, misc. LED, open-shell LED, HFLD
   Martin Brehm           : Molecular dynamics
   Dmytro Bykov           : SCF Hessian
   Vijay G. Chilkuri      : MRCI spin determinant printing, contributions to CSF-ICE
   Dipayan Datta          : RHF DLPNO-CCSD density
   Achintya Kumar Dutta   : EOM-CC, STEOM-CC
   Dmitry Ganyushin       : Spin-Orbit,Spin-Spin,Magnetic field MRCI
   Miquel Garcia          : C-PCM Hessian, Gaussian charge scheme
   Yang Guo               : DLPNO-NEVPT2, F12-NEVPT2, CIM, IAO-localization
   Andreas Hansen         : Spin unrestricted coupled pair/coupled cluster methods
   Benjamin Helmich-Paris : MC-RPA, TRAH-SCF, COSX integrals
   Lee Huntington         : MR-EOM, pCC
   Robert Izsak           : Overlap fitted RIJCOSX, COSX-SCS-MP3, EOM
   Marcus Kettner         : VPT2
   Christian Kollmar      : KDIIS, OOCD, Brueckner-CCSD(T), CCSD density, CASPT2, CASPT2-K
   Simone Kossmann        : Meta GGA functionals, TD-DFT gradient, OOMP2, MP2 Hessian
   Martin Krupicka        : Initial AUTO-CI
   Lucas Lang             : DCDCAS
   Marvin Lechner         : AUTO-CI (C++ implementation), FIC-MRCC
   Dagmar Lenk            : GEPOL surface, SMD
   Dimitrios Liakos       : Extrapolation schemes; Compound Job, initial MDCI parallelization
   Dimitrios Manganas     : Further ROCIS development; embedding schemes
   Dimitrios Pantazis     : SARC Basis sets
   Anastasios Papadopoulos: AUTO-CI, single reference methods and gradients
   Taras Petrenko         : DFT Hessian,TD-DFT gradient, ASA, ECA, R-Raman, ABS, FL, XAS/XES, NRVS
   Peter Pinski           : DLPNO-MP2, DLPNO-MP2 Gradient
   Christoph Reimann      : Effective Core Potentials
   Marius Retegan         : Local ZFS, SOC
   Christoph Riplinger    : Optimizer, TS searches, QM/MM, DLPNO-CCSD(T), (RO)-DLPNO pert. Triples
   Tobias Risthaus        : Range-separated hybrids, TD-DFT gradient, RPA, STAB
   Michael Roemelt        : Original ROCIS implementation
   Masaaki Saitow         : Open-shell DLPNO-CCSD energy and density
   Barbara Sandhoefer     : DKH picture change effects
   Avijit Sen             : IP-ROCIS
   Kantharuban Sivalingam : CASSCF convergence, NEVPT2, FIC-MRCI
   Bernardo de Souza      : ESD, SOC TD-DFT
   Georgi Stoychev        : AutoAux, RI-MP2 NMR
   Willem Van den Heuvel  : Paramagnetic NMR
   Boris Wezisla          : Elementary symmetry handling
   Frank Wennmohs         : Technical directorship


 We gratefully acknowledge several colleagues who have allowed us to
 interface, adapt or use parts of their codes:
   Stefan Grimme, W. Hujo, H. Kruse, P. Pracht,  : VdW corrections, initial TS optimization,
                  C. Bannwarth, S. Ehlert          DFT functionals, gCP, sTDA/sTD-DF
   Ed Valeev, F. Pavosevic, A. Kumar             : LibInt (2-el integral package), F12 methods
   Garnet Chan, S. Sharma, J. Yang, R. Olivares  : DMRG
   Ulf Ekstrom                                   : XCFun DFT Library
   Mihaly Kallay                                 : mrcc  (arbitrary order and MRCC methods)
   Jiri Pittner, Ondrej Demel                    : Mk-CCSD
   Frank Weinhold                                : gennbo (NPA and NBO analysis)
   Christopher J. Cramer and Donald G. Truhlar   : smd solvation model
   Lars Goerigk                                  : TD-DFT with DH, B97 family of functionals
   V. Asgeirsson, H. Jonsson                     : NEB implementation
   FAccTs GmbH                                   : IRC, NEB, NEB-TS, DLPNO-Multilevel, CI-OPT
                                                   MM, QMMM, 2- and 3-layer-ONIOM, Crystal-QMMM,
                                                   LR-CPCM, SF, NACMEs, symmetry and pop. for TD-DFT,
                                                   nearIR, NL-DFT gradient (VV10), updates on ESD,
                                                   ML-optimized integration grids
   S Lehtola, MJT Oliveira, MAL Marques          : LibXC Library
   Liviu Ungur et al                             : ANISO software


 Your calculation uses the libint2 library for the computation of 2-el integrals
 For citations please refer to: http://libint.valeyev.net

 Your ORCA version has been built with support for libXC version: 5.1.0
 For citations please refer to: https://tddft.org/programs/libxc/

 This ORCA versions uses:
   CBLAS   interface :  Fast vector & matrix operations
   LAPACKE interface :  Fast linear algebra routines
   SCALAPACK package :  Parallel linear algebra routines
   Shared memory     :  Shared parallel matrices
   BLAS/LAPACK       :  OpenBLAS 0.3.15  USE64BITINT DYNAMIC_ARCH NO_AFFINITY Haswell SINGLE_THREADED
        Core in use  :  Haswell
   Copyright (c) 2011-2014, The OpenBLAS Project


Your calculation utilizes the atom-pairwise dispersion correction
with the Becke-Johnson damping scheme (D3BJ)
Cite in your paper:
S.Grimme, S.Ehrlich, L.Goerigk, J Comput Chem, (2011), 32, 1456–1465 
S.Grimme, J.Antony, S.Ehrlich and H.Krieg, J.Chem.Phys., 132, (2010), 154104 
   

================================================================================

----- Orbital basis set information -----
Your calculation utilizes the basis: def2-TZVPD
   F. Weigend and R. Ahlrichs, Phys. Chem. Chem. Phys. 7, 3297 (2005).
   D. Rappoport and F. Furche, J. Chem. Phys. 133 134105 (2010).

----- AuxJ basis set information -----
Your calculation utilizes the auxiliary basis: def2/J
   F. Weigend, Phys. Chem. Chem. Phys. 8, 1057 (2006).

================================================================================
                                        WARNINGS
                       Please study these warnings very carefully!
================================================================================


INFO   : the flag for use of the SHARK integral package has been found!

================================================================================
                                       INPUT FILE
================================================================================
NAME = TZVPD_B3LYP_C1_wt_dlpno_neg.com
|  1> !B3LYP D3BJ RIJCOSX def2-TZVPD def2/J TightSCF
|  2> 
|  3> *xyz 0 1
|  4> C          2.95263        1.86308       -3.57485
|  5> C          4.12921        0.89839       -3.41895
|  6> H          3.73369       -0.10060       -3.23763
|  7> H          4.71910        0.86256       -4.33901
|  8> C          5.01734        1.31521       -2.22130
|  9> F          4.73706        0.85411       -1.12283
| 10> O          5.92815        2.16811       -2.49136
| 11> H          2.35067        1.56005       -4.40594
| 12> H          3.32277        2.85258       -3.74453
| 13> H          2.36134        1.85149       -2.68315
| 14> *
| 15> %MaxCore 64000
| 16> 
| 17> %pal nprocs 4
| 18> end  
| 19> 
| 20> %scf
| 21>   MaxIter 150
| 22> end
| 23> 
| 24> 
| 25>                          ****END OF INPUT****
================================================================================

                       ****************************
                       * Single Point Calculation *
                       ****************************

---------------------------------
CARTESIAN COORDINATES (ANGSTROEM)
---------------------------------
  C      2.952630    1.863080   -3.574850
  C      4.129210    0.898390   -3.418950
  H      3.733690   -0.100600   -3.237630
  H      4.719100    0.862560   -4.339010
  C      5.017340    1.315210   -2.221300
  F      4.737060    0.854110   -1.122830
  O      5.928150    2.168110   -2.491360
  H      2.350670    1.560050   -4.405940
  H      3.322770    2.852580   -3.744530
  H      2.361340    1.851490   -2.683150

----------------------------
CARTESIAN COORDINATES (A.U.)
----------------------------
  NO LB      ZA    FRAG     MASS         X           Y           Z
   0 C     6.0000    0    12.011    5.579662    3.520711   -6.755487
   1 C     6.0000    0    12.011    7.803076    1.697711   -6.460879
   2 H     1.0000    0     1.008    7.055652   -0.190106   -6.118234
   3 H     1.0000    0     1.008    8.917807    1.630002   -8.199541
   4 C     6.0000    0    12.011    9.481399    2.485387   -4.197649
   5 F     9.0000    0    18.998    8.951746    1.614034   -2.121841
   6 O     8.0000    0    15.999   11.202580    4.097134   -4.707988
   7 H     1.0000    0     1.008    4.442123    2.948067   -8.326020
   8 H     1.0000    0     1.008    6.279125    5.390595   -7.076136
   9 H     1.0000    0     1.008    4.462286    3.498809   -5.070419

--------------------------------
INTERNAL COORDINATES (ANGSTROEM)
--------------------------------
 C      0   0   0     0.000000000000     0.00000000     0.00000000
 C      1   0   0     1.529467914832     0.00000000     0.00000000
 H      2   1   0     1.089630227600   108.42087877     0.00000000
 H      2   1   3     1.093510130086   110.48033880   117.93289825
 C      2   1   3     1.548185819532   110.50804192   240.54004833
 F      5   2   1     1.223849022265   117.48519234    89.39746455
 O      5   2   1     1.276693255915   115.18105086   272.92000304
 H      1   2   3     1.069997014295   109.47056396   299.46024459
 H      1   2   3     1.070002416820   109.47133540   179.46023983
 H      1   2   3     1.069993963628   109.47107416    59.46025929

---------------------------
INTERNAL COORDINATES (A.U.)
---------------------------
 C      0   0   0     0.000000000000     0.00000000     0.00000000
 C      1   0   0     2.890275489652     0.00000000     0.00000000
 H      2   1   0     2.059102717407   108.42087877     0.00000000
 H      2   1   3     2.066434670531   110.48033880   117.93289825
 C      2   1   3     2.925647203336   110.50804192   240.54004833
 F      5   2   1     2.312739481349   117.48519234    89.39746455
 O      5   2   1     2.412600610704   115.18105086   272.92000304
 H      1   2   3     2.022001321131   109.47056396   299.46024459
 H      1   2   3     2.022011530423   109.47133540   179.46023983
 H      1   2   3     2.021995556206   109.47107416    59.46025929

---------------------
BASIS SET INFORMATION
---------------------
There are 4 groups of distinct atoms

 Group   1 Type C   : 12s6p3d1f contracted to 6s3p3d1f pattern {621111/411/111/1}
 Group   2 Type H   : 5s2p contracted to 3s2p pattern {311/11}
 Group   3 Type F   : 12s7p3d1f contracted to 6s4p3d1f pattern {621111/4111/111/1}
 Group   4 Type O   : 12s7p3d1f contracted to 6s4p3d1f pattern {621111/4111/111/1}

Atom   0C    basis set group =>   1
Atom   1C    basis set group =>   1
Atom   2H    basis set group =>   2
Atom   3H    basis set group =>   2
Atom   4C    basis set group =>   1
Atom   5F    basis set group =>   3
Atom   6O    basis set group =>   4
Atom   7H    basis set group =>   2
Atom   8H    basis set group =>   2
Atom   9H    basis set group =>   2
---------------------------------
AUXILIARY/J BASIS SET INFORMATION
---------------------------------
There are 4 groups of distinct atoms

 Group   1 Type C   : 12s5p4d2f1g contracted to 6s4p3d1f1g pattern {711111/2111/211/2/1}
 Group   2 Type H   : 5s2p1d contracted to 3s1p1d pattern {311/2/1}
 Group   3 Type F   : 12s5p4d2f1g contracted to 6s4p3d1f1g pattern {711111/2111/211/2/1}
 Group   4 Type O   : 12s5p4d2f1g contracted to 6s4p3d1f1g pattern {711111/2111/211/2/1}

Atom   0C    basis set group =>   1
Atom   1C    basis set group =>   1
Atom   2H    basis set group =>   2
Atom   3H    basis set group =>   2
Atom   4C    basis set group =>   1
Atom   5F    basis set group =>   3
Atom   6O    basis set group =>   4
Atom   7H    basis set group =>   2
Atom   8H    basis set group =>   2
Atom   9H    basis set group =>   2


           ************************************************************
           *        Program running with 4 parallel MPI-processes     *
           *              working on a common directory               *
           ************************************************************
------------------------------------------------------------------------------
                           ORCA GTO INTEGRAL CALCULATION
                           -- RI-GTO INTEGRALS CHOSEN --
------------------------------------------------------------------------------
------------------------------------------------------------------------------
                   ___                                                        
                  /   \      - P O W E R E D   B Y -                         
                 /     \                                                     
                 |  |  |   _    _      __       _____    __    __             
                 |  |  |  | |  | |    /  \     |  _  \  |  |  /  |          
                  \  \/   | |  | |   /    \    | | | |  |  | /  /          
                 / \  \   | |__| |  /  /\  \   | |_| |  |  |/  /          
                |  |  |   |  __  | /  /__\  \  |    /   |      \           
                |  |  |   | |  | | |   __   |  |    \   |  |\   \          
                \     /   | |  | | |  |  |  |  | |\  \  |  | \   \       
                 \___/    |_|  |_| |__|  |__|  |_| \__\ |__|  \__/        
                                                                              
                      - O R C A' S   B I G   F R I E N D -                    
                                      &                                       
                       - I N T E G R A L  F E E D E R -                       
                                                                              
 v1 FN, 2020, v2 2021                                                         
------------------------------------------------------------------------------


Reading SHARK input file TZVPD_B3LYP_C1_wt_dlpno_neg.SHARKINP.tmp ... ok
----------------------
SHARK INTEGRAL PACKAGE
----------------------

Number of atoms                             ...     10
Number of basis functions                   ...    236
Number of shells                            ...     92
Maximum angular momentum                    ...      3
Integral batch strategy                     ... SHARK/LIBINT Hybrid
RI-J (if used) integral strategy            ... SPLIT-RIJ (Revised 2003 algorithm where possible)
Printlevel                                  ...      1
Contraction scheme used                     ... SEGMENTED contraction
Coulomb Range Separation                    ... NOT USED
Exchange Range Separation                   ... NOT USED
Finite Nucleus Model                        ... NOT USED
Auxiliary Coulomb fitting basis             ... AVAILABLE
   # of basis functions in Aux-J            ...    300
   # of shells in Aux-J                     ...    100
   Maximum angular momentum in Aux-J        ...      4
Auxiliary J/K fitting basis                 ... NOT available
Auxiliary Correlation fitting basis         ... NOT available
Auxiliary 'external' fitting basis          ... NOT available
Integral threshold                          ...     2.500000e-11
Primitive cut-off                           ...     2.500000e-12
Primitive pair pre-selection threshold      ...     2.500000e-12

Calculating pre-screening integrals         ... done (  0.1 sec) Dimension = 92
Organizing shell pair data                  ... done (  0.0 sec)
Shell pair information
Total number of shell pairs                 ...      4278
Shell pairs after pre-screening             ...      4160
Total number of primitive shell pairs       ...     11003
Primitive shell pairs kept                  ...      8932
          la=0 lb=0:    975 shell pairs
          la=1 lb=0:   1190 shell pairs
          la=1 lb=1:    376 shell pairs
          la=2 lb=0:    656 shell pairs
          la=2 lb=1:    403 shell pairs
          la=2 lb=2:    120 shell pairs
          la=3 lb=0:    216 shell pairs
          la=3 lb=1:    134 shell pairs
          la=3 lb=2:     75 shell pairs
          la=3 lb=3:     15 shell pairs

Calculating one electron integrals          ... done (  0.0 sec)
Calculating RI/J V-Matrix + Cholesky decomp.... done (  0.0 sec)
Calculating Nuclear repulsion               ... done (  0.0 sec) ENN=    176.836321449611 Eh

SHARK setup successfully completed in   0.2 seconds

Maximum memory used throughout the entire GTOINT-calculation: 13.9 MB


           ************************************************************
           *        Program running with 4 parallel MPI-processes     *
           *              working on a common directory               *
           ************************************************************
-------------------------------------------------------------------------------
                                 ORCA SCF
-------------------------------------------------------------------------------

------------
SCF SETTINGS
------------
Hamiltonian:
 Density Functional     Method          .... DFT(GTOs)
 Exchange Functional    Exchange        .... B88
   X-Alpha parameter    XAlpha          ....  0.666667
   Becke's b parameter  XBeta           ....  0.004200
 Correlation Functional Correlation     .... LYP
 LDA part of GGA corr.  LDAOpt          .... VWN-5
 Gradients option       PostSCFGGA      .... off
 Hybrid DFT is turned on
   Fraction HF Exchange ScalHFX         ....  0.200000
   Scaling of DF-GGA-X  ScalDFX         ....  0.720000
   Scaling of DF-GGA-C  ScalDFC         ....  0.810000
   Scaling of DF-LDA-C  ScalLDAC        ....  1.000000
   Perturbative correction              ....  0.000000
   Density functional embedding theory  .... OFF
   NL short-range parameter             ....  4.800000
 RI-approximation to the Coulomb term is turned on
   Number of AuxJ basis functions       .... 300
   RIJ-COSX (HFX calculated with COS-X)).... on


General Settings:
 Integral files         IntName         .... TZVPD_B3LYP_C1_wt_dlpno_neg
 Hartree-Fock type      HFTyp           .... RHF
 Total Charge           Charge          ....    0
 Multiplicity           Mult            ....    1
 Number of Electrons    NEL             ....   40
 Basis Dimension        Dim             ....  236
 Nuclear Repulsion      ENuc            ....    176.8363214496 Eh

Convergence Acceleration:
 DIIS                   CNVDIIS         .... on
   Start iteration      DIISMaxIt       ....    12
   Startup error        DIISStart       ....  0.200000
   # of expansion vecs  DIISMaxEq       ....     5
   Bias factor          DIISBfac        ....   1.050
   Max. coefficient     DIISMaxC        ....  10.000
 Trust-Rad. Augm. Hess. CNVTRAH         .... auto
   Auto Start mean grad. ratio tolernc. ....  1.125000
   Auto Start start iteration           ....    20
   Auto Start num. interpolation iter.  ....    10
   Max. Number of Micro iterations      ....    16
   Max. Number of Macro iterations      .... Maxiter - #DIIS iter
   Number of Davidson start vectors     ....     2
   Converg. threshold I  (grad. norm)   ....   1.000e-05
   Converg. threshold II (energy diff.) ....   1.000e-08
   Grad. Scal. Fac. for Micro threshold ....   0.100
   Minimum threshold for Micro iter.    ....   0.010
   NR start threshold (gradient norm)   ....   0.001
   Initial trust radius                 ....   0.400
   Minimum AH scaling param. (alpha)    ....   1.000
   Maximum AH scaling param. (alpha)    .... 1000.000
   Orbital update algorithm             .... Taylor
   White noise on init. David. guess    .... on
   Maximum white noise                  ....   0.010
   Quad. conv. algorithm                .... NR
 SOSCF                  CNVSOSCF        .... on
   Start iteration      SOSCFMaxIt      ....   150
   Startup grad/error   SOSCFStart      ....  0.003300
 Level Shifting         CNVShift        .... on
   Level shift para.    LevelShift      ....    0.2500
   Turn off err/grad.   ShiftErr        ....    0.0010
 Zerner damping         CNVZerner       .... off
 Static damping         CNVDamp         .... on
   Fraction old density DampFac         ....    0.7000
   Max. Damping (<1)    DampMax         ....    0.9800
   Min. Damping (>=0)   DampMin         ....    0.0000
   Turn off err/grad.   DampErr         ....    0.1000
 Fernandez-Rico         CNVRico         .... off

SCF Procedure:
 Maximum # iterations   MaxIter         ....   150
 SCF integral mode      SCFMode         .... Direct
   Integral package                     .... SHARK and LIBINT hybrid scheme
 Reset frequency        DirectResetFreq ....    20
 Integral Threshold     Thresh          ....  2.500e-11 Eh
 Primitive CutOff       TCut            ....  2.500e-12 Eh

Convergence Tolerance:
 Convergence Check Mode ConvCheckMode   .... Total+1el-Energy
 Convergence forced     ConvForced      .... 0
 Energy Change          TolE            ....  1.000e-08 Eh
 1-El. energy change                    ....  1.000e-05 Eh
 Orbital Gradient       TolG            ....  1.000e-05
 Orbital Rotation angle TolX            ....  1.000e-05
 DIIS Error             TolErr          ....  5.000e-07


Diagonalization of the overlap matrix:
Smallest eigenvalue                        ... 1.224e-05
Time for diagonalization                   ...    0.014 sec
Threshold for overlap eigenvalues          ... 1.000e-08
Number of eigenvalues below threshold      ... 0
Time for construction of square roots      ...    0.010 sec
Total time needed                          ...    0.025 sec

Time for model grid setup =    0.081 sec

------------------------------
INITIAL GUESS: MODEL POTENTIAL
------------------------------
Loading Hartree-Fock densities                     ... done
Calculating cut-offs                               ... done
Initializing the effective Hamiltonian             ... done
Setting up the integral package (SHARK)            ... done
Starting the Coulomb interaction                   ... done (   0.1 sec)
Reading the grid                                   ... done
Mapping shells                                     ... done
Starting the XC term evaluation                    ... done (   0.1 sec)
  promolecular density results
     # of electrons  =     39.997569933
     EX              =    -35.155729870
     EC              =     -1.376870522
     EX+EC           =    -36.532600392
Transforming the Hamiltonian                       ... done (   0.0 sec)
Diagonalizing the Hamiltonian                      ... done (   0.0 sec)
Back transforming the eigenvectors                 ... done (   0.0 sec)
Now organizing SCF variables                       ... done
                      ------------------
                      INITIAL GUESS DONE (   0.3 sec)
                      ------------------
-------------------
DFT GRID GENERATION
-------------------

General Integration Accuracy     IntAcc      ... 4.388
Radial Grid Type                 RadialGrid  ... OptM3 with GC (2021)
Angular Grid (max. ang.)         AngularGrid ... 4 (Lebedev-302)
Angular grid pruning method      GridPruning ... 4 (adaptive)
Weight generation scheme         WeightScheme... Becke
Basis function cutoff            BFCut       ... 1.0000e-11
Integration weight cutoff        WCut        ... 1.0000e-14
Angular grids for H and He will be reduced by one unit
Partially contracted basis set               ... off
Rotationally invariant grid construction     ... off

Total number of grid points                  ...    49047
Total number of batches                      ...      771
Average number of points per batch           ...       63
Average number of grid points per atom       ...     4905
Time for grid setup =    0.347 sec

--------------------
COSX GRID GENERATION
--------------------

GRIDX 1
-------
General Integration Accuracy     IntAcc      ... 3.816
Radial Grid Type                 RadialGrid  ... OptM3 with GC (2021)
Angular Grid (max. ang.)         AngularGrid ... 1 (Lebedev-50)
Angular grid pruning method      GridPruning ... 4 (adaptive)
Weight generation scheme         WeightScheme... Becke
Basis function cutoff            BFCut       ... 1.0000e-11
Integration weight cutoff        WCut        ... 1.0000e-14
Angular grids for H and He will be reduced by one unit
Partially contracted basis set               ... on
Rotationally invariant grid construction     ... off

Total number of grid points                  ...     6171
Total number of batches                      ...      101
Average number of points per batch           ...       61
Average number of grid points per atom       ...      617
UseSFitting                                  ... on

GRIDX 2
-------
General Integration Accuracy     IntAcc      ... 4.020
Radial Grid Type                 RadialGrid  ... OptM3 with GC (2021)
Angular Grid (max. ang.)         AngularGrid ... 2 (Lebedev-110)
Angular grid pruning method      GridPruning ... 4 (adaptive)
Weight generation scheme         WeightScheme... Becke
Basis function cutoff            BFCut       ... 1.0000e-11
Integration weight cutoff        WCut        ... 1.0000e-14
Angular grids for H and He will be reduced by one unit
Partially contracted basis set               ... on
Rotationally invariant grid construction     ... off

Total number of grid points                  ...    15329
Total number of batches                      ...      245
Average number of points per batch           ...       62
Average number of grid points per atom       ...     1533
UseSFitting                                  ... on

GRIDX 3
-------
General Integration Accuracy     IntAcc      ... 4.338
Radial Grid Type                 RadialGrid  ... OptM3 with GC (2021)
Angular Grid (max. ang.)         AngularGrid ... 3 (Lebedev-194)
Angular grid pruning method      GridPruning ... 4 (adaptive)
Weight generation scheme         WeightScheme... Becke
Basis function cutoff            BFCut       ... 1.0000e-11
Integration weight cutoff        WCut        ... 1.0000e-14
Angular grids for H and He will be reduced by one unit
Partially contracted basis set               ... on
Rotationally invariant grid construction     ... off

Total number of grid points                  ...    34166
Total number of batches                      ...      540
Average number of points per batch           ...       63
Average number of grid points per atom       ...     3417
UseSFitting                                  ... on

Time for X-Grid setup             =    0.381 sec

--------------
SCF ITERATIONS
--------------
ITER       Energy         Delta-E        Max-DP      RMS-DP      [F,P]     Damp
               ***  Starting incremental Fock matrix formation  ***
  0   -292.1194382063   0.000000000000 0.09487753  0.00168137  0.3156885 0.7000
  1   -292.2409543212  -0.121516114882 0.06471965  0.00105474  0.1045875 0.7000
                               ***Turning on DIIS***
  2   -292.2756971806  -0.034742859463 0.07315071  0.00162359  0.0394356 0.0000
  3   -292.3491288269  -0.073431646253 0.04886880  0.00066570  0.0581941 0.0000
  4   -292.3584099354  -0.009281108467 0.01084289  0.00021414  0.0351423 0.0000
                      *** Initiating the SOSCF procedure ***
                           *** Shutting down DIIS ***
                      *** Re-Reading the Fockian *** 
                      *** Removing any level shift *** 
ITER      Energy       Delta-E        Grad      Rot      Max-DP    RMS-DP
  5   -292.36056305  -0.0021531171  0.000668  0.000668  0.003920  0.000075
               *** Restarting incremental Fock matrix formation ***
  6   -292.36060793  -0.0000448802  0.000798  0.002570  0.002300  0.000056
  7   -292.36059669   0.0000112415  0.001720  0.001662  0.000990  0.000019
  8   -292.36061422  -0.0000175269  0.000125  0.000293  0.000473  0.000011
  9   -292.36061389   0.0000003260  0.000136  0.000157  0.000290  0.000006
 10   -292.36061472  -0.0000008308  0.000005  0.000011  0.000030  0.000001
 11   -292.36061473  -0.0000000036  0.000007  0.000007  0.000061  0.000001
                  ***Gradient check signals convergence***
              ***Rediagonalizing the Fockian in SOSCF/NRSCF***

               *****************************************************
               *                     SUCCESS                       *
               *           SCF CONVERGED AFTER  12 CYCLES          *
               *****************************************************

Old exchange energy                            =     -7.119655240 Eh
New exchange energy                            =     -7.119654669 Eh
Exchange energy change after final integration =      0.000000572 Eh
Total energy after final integration           =   -292.360614155 Eh
Final COS-X integration done in                =     3.202 sec

----------------
TOTAL SCF ENERGY
----------------

Total Energy       :         -292.36061415 Eh           -7955.53676 eV

Components:
Nuclear Repulsion  :          176.83632145 Eh            4811.96094 eV
Electronic Energy  :         -469.19693560 Eh          -12767.49770 eV
One Electron Energy:         -750.02134478 Eh          -20409.11837 eV
Two Electron Energy:          280.82440918 Eh            7641.62067 eV
Max COSX asymmetry :            0.00000173 Eh               0.00005 eV

Virial components:
Potential Energy   :         -583.59137399 Eh          -15880.32863 eV
Kinetic Energy     :          291.23075984 Eh            7924.79186 eV
Virial Ratio       :            2.00387958


DFT components:
N(Alpha)           :       19.999929381432 electrons
N(Beta)            :       19.999929381432 electrons
N(Total)           :       39.999858762864 electrons
E(X)               :      -28.330184959320 Eh       
E(C)               :       -1.626773364878 Eh       
E(XC)              :      -29.956958324198 Eh       
DFET-embed. en.    :        0.000000000000 Eh       

---------------
SCF CONVERGENCE
---------------

  Last Energy change         ...   -4.3087e-11  Tolerance :   1.0000e-08
  Last MAX-Density change    ...    1.6653e-15  Tolerance :   1.0000e-07
  Last RMS-Density change    ...    1.8520e-17  Tolerance :   5.0000e-09
  Last Orbital Gradient      ...    1.5929e-06  Tolerance :   1.0000e-05
  Last Orbital Rotation      ...    2.3658e-06  Tolerance :   1.0000e-05

             **** THE GBW FILE WAS UPDATED (TZVPD_B3LYP_C1_wt_dlpno_neg.gbw) ****
             **** DENSITY TZVPD_B3LYP_C1_wt_dlpno_neg.scfp WAS UPDATED ****
             **** ENERGY FILE WAS UPDATED (TZVPD_B3LYP_C1_wt_dlpno_neg.en.tmp) ****
             **** THE GBW FILE WAS UPDATED (TZVPD_B3LYP_C1_wt_dlpno_neg.gbw) ****
             **** DENSITY TZVPD_B3LYP_C1_wt_dlpno_neg.scfp WAS UPDATED ****
----------------
ORBITAL ENERGIES
----------------

  NO   OCC          E(Eh)            E(eV) 
   0   2.0000     -24.766253      -673.9240 
   1   2.0000     -19.128774      -520.5204 
   2   2.0000     -10.350970      -281.6642 
   3   2.0000     -10.199698      -277.5479 
   4   2.0000     -10.175797      -276.8975 
   5   2.0000      -1.345988       -36.6262 
   6   2.0000      -1.021322       -27.7916 
   7   2.0000      -0.800886       -21.7932 
   8   2.0000      -0.695159       -18.9162 
   9   2.0000      -0.649493       -17.6736 
  10   2.0000      -0.564538       -15.3619 
  11   2.0000      -0.550552       -14.9813 
  12   2.0000      -0.507827       -13.8187 
  13   2.0000      -0.465911       -12.6781 
  14   2.0000      -0.436619       -11.8810 
  15   2.0000      -0.400999       -10.9117 
  16   2.0000      -0.379894       -10.3375 
  17   2.0000      -0.374288       -10.1849 
  18   2.0000      -0.344822        -9.3831 
  19   2.0000      -0.286714        -7.8019 
  20   0.0000      -0.034079        -0.9273 
  21   0.0000       0.000879         0.0239 
  22   0.0000       0.027461         0.7473 
  23   0.0000       0.037608         1.0234 
  24   0.0000       0.047654         1.2967 
  25   0.0000       0.074803         2.0355 
  26   0.0000       0.076300         2.0762 
  27   0.0000       0.080973         2.2034 
  28   0.0000       0.094122         2.5612 
  29   0.0000       0.097177         2.6443 
  30   0.0000       0.118001         3.2110 
  31   0.0000       0.127343         3.4652 
  32   0.0000       0.130364         3.5474 
  33   0.0000       0.137276         3.7355 
  34   0.0000       0.149352         4.0641 
  35   0.0000       0.156591         4.2611 
  36   0.0000       0.170257         4.6329 
  37   0.0000       0.187956         5.1145 
  38   0.0000       0.209146         5.6912 
  39   0.0000       0.211208         5.7472 
  40   0.0000       0.216365         5.8876 
  41   0.0000       0.232394         6.3238 
  42   0.0000       0.237559         6.4643 
  43   0.0000       0.252353         6.8669 
  44   0.0000       0.255272         6.9463 
  45   0.0000       0.262320         7.1381 
  46   0.0000       0.274123         7.4593 
  47   0.0000       0.276415         7.5216 
  48   0.0000       0.283721         7.7204 
  49   0.0000       0.284541         7.7428 
  50   0.0000       0.291468         7.9313 
  51   0.0000       0.308635         8.3984 
  52   0.0000       0.319375         8.6906 
  53   0.0000       0.323652         8.8070 
  54   0.0000       0.325778         8.8649 
  55   0.0000       0.343211         9.3392 
  56   0.0000       0.349926         9.5220 
  57   0.0000       0.362023         9.8511 
  58   0.0000       0.369987        10.0679 
  59   0.0000       0.380724        10.3600 
  60   0.0000       0.388486        10.5712 
  61   0.0000       0.390690        10.6312 
  62   0.0000       0.402954        10.9649 
  63   0.0000       0.408882        11.1262 
  64   0.0000       0.431430        11.7398 
  65   0.0000       0.434361        11.8196 
  66   0.0000       0.440369        11.9831 
  67   0.0000       0.442951        12.0533 
  68   0.0000       0.453496        12.3403 
  69   0.0000       0.462398        12.5825 
  70   0.0000       0.476119        12.9559 
  71   0.0000       0.481938        13.1142 
  72   0.0000       0.498252        13.5581 
  73   0.0000       0.523760        14.2522 
  74   0.0000       0.528377        14.3779 
  75   0.0000       0.556094        15.1321 
  76   0.0000       0.569831        15.5059 
  77   0.0000       0.596027        16.2187 
  78   0.0000       0.600323        16.3356 
  79   0.0000       0.608362        16.5544 
  80   0.0000       0.624258        16.9869 
  81   0.0000       0.627294        17.0695 
  82   0.0000       0.649820        17.6825 
  83   0.0000       0.663025        18.0418 
  84   0.0000       0.674109        18.3434 
  85   0.0000       0.681302        18.5392 
  86   0.0000       0.682733        18.5781 
  87   0.0000       0.686663        18.6850 
  88   0.0000       0.693678        18.8759 
  89   0.0000       0.702907        19.1271 
  90   0.0000       0.716696        19.5023 
  91   0.0000       0.724209        19.7067 
  92   0.0000       0.750905        20.4332 
  93   0.0000       0.766786        20.8653 
  94   0.0000       0.794732        21.6257 
  95   0.0000       0.815442        22.1893 
  96   0.0000       0.826567        22.4920 
  97   0.0000       0.838974        22.8296 
  98   0.0000       0.893694        24.3186 
  99   0.0000       0.910340        24.7716 
 100   0.0000       0.925361        25.1804 
 101   0.0000       0.954201        25.9651 
 102   0.0000       0.969382        26.3782 
 103   0.0000       0.985178        26.8081 
 104   0.0000       0.995512        27.0893 
 105   0.0000       1.068293        29.0697 
 106   0.0000       1.083823        29.4923 
 107   0.0000       1.122953        30.5571 
 108   0.0000       1.140332        31.0300 
 109   0.0000       1.152987        31.3744 
 110   0.0000       1.176106        32.0035 
 111   0.0000       1.204707        32.7817 
 112   0.0000       1.229197        33.4481 
 113   0.0000       1.248775        33.9809 
 114   0.0000       1.253667        34.1140 
 115   0.0000       1.296761        35.2867 
 116   0.0000       1.334242        36.3066 
 117   0.0000       1.348480        36.6940 
 118   0.0000       1.393523        37.9197 
 119   0.0000       1.459328        39.7103 
 120   0.0000       1.492539        40.6140 
 121   0.0000       1.638291        44.5802 
 122   0.0000       1.698094        46.2075 
 123   0.0000       1.715244        46.6742 
 124   0.0000       1.752172        47.6790 
 125   0.0000       1.791398        48.7464 
 126   0.0000       1.801487        49.0210 
 127   0.0000       1.818404        49.4813 
 128   0.0000       1.822996        49.6063 
 129   0.0000       1.854012        50.4502 
 130   0.0000       1.868437        50.8428 
 131   0.0000       1.874088        50.9965 
 132   0.0000       1.911070        52.0029 
 133   0.0000       1.972554        53.6759 
 134   0.0000       2.002437        54.4891 
 135   0.0000       2.017346        54.8948 
 136   0.0000       2.036051        55.4038 
 137   0.0000       2.080845        56.6227 
 138   0.0000       2.139538        58.2198 
 139   0.0000       2.177454        59.2515 
 140   0.0000       2.223218        60.4968 
 141   0.0000       2.268072        61.7174 
 142   0.0000       2.299805        62.5809 
 143   0.0000       2.320494        63.1439 
 144   0.0000       2.348113        63.8954 
 145   0.0000       2.380187        64.7682 
 146   0.0000       2.407109        65.5008 
 147   0.0000       2.432830        66.2007 
 148   0.0000       2.479680        67.4755 
 149   0.0000       2.492971        67.8372 
 150   0.0000       2.503813        68.1322 
 151   0.0000       2.525151        68.7129 
 152   0.0000       2.612999        71.1033 
 153   0.0000       2.641309        71.8737 
 154   0.0000       2.652783        72.1859 
 155   0.0000       2.691687        73.2445 
 156   0.0000       2.705234        73.6132 
 157   0.0000       2.708289        73.6963 
 158   0.0000       2.727854        74.2287 
 159   0.0000       2.777775        75.5871 
 160   0.0000       2.791275        75.9544 
 161   0.0000       2.871953        78.1498 
 162   0.0000       2.903179        78.9995 
 163   0.0000       2.954262        80.3896 
 164   0.0000       2.978497        81.0490 
 165   0.0000       3.095649        84.2369 
 166   0.0000       3.108834        84.5957 
 167   0.0000       3.124303        85.0166 
 168   0.0000       3.150667        85.7340 
 169   0.0000       3.187115        86.7258 
 170   0.0000       3.223714        87.7217 
 171   0.0000       3.240119        88.1681 
 172   0.0000       3.262741        88.7837 
 173   0.0000       3.283563        89.3503 
 174   0.0000       3.306791        89.9824 
 175   0.0000       3.357841        91.3715 
 176   0.0000       3.368695        91.6668 
 177   0.0000       3.378595        91.9362 
 178   0.0000       3.430150        93.3391 
 179   0.0000       3.457728        94.0896 
 180   0.0000       3.485241        94.8382 
 181   0.0000       3.501351        95.2766 
 182   0.0000       3.520049        95.7854 
 183   0.0000       3.556097        96.7663 
 184   0.0000       3.582525        97.4855 
 185   0.0000       3.587573        97.6228 
 186   0.0000       3.664938        99.7280 
 187   0.0000       3.768245       102.5392 
 188   0.0000       3.812584       103.7457 
 189   0.0000       3.859559       105.0239 
 190   0.0000       3.919265       106.6486 
 191   0.0000       3.960933       107.7825 
 192   0.0000       3.978140       108.2507 
 193   0.0000       4.027288       109.5881 
 194   0.0000       4.105778       111.7239 
 195   0.0000       4.157153       113.1219 
 196   0.0000       4.216913       114.7480 
 197   0.0000       4.335295       117.9694 
 198   0.0000       4.415114       120.1414 
 199   0.0000       4.493922       122.2858 
 200   0.0000       4.557388       124.0128 
 201   0.0000       4.608451       125.4023 
 202   0.0000       4.696194       127.7899 
 203   0.0000       4.710372       128.1757 
 204   0.0000       4.863769       132.3499 
 205   0.0000       4.943403       134.5168 
 206   0.0000       5.170328       140.6918 
 207   0.0000       5.191273       141.2617 
 208   0.0000       5.402475       147.0088 
 209   0.0000       5.480986       149.1452 
 210   0.0000       5.599348       152.3660 
 211   0.0000       5.944330       161.7534 
 212   0.0000       6.167374       167.8228 
 213   0.0000       6.227052       169.4467 
 214   0.0000       6.485714       176.4853 
 215   0.0000       6.546892       178.1500 
 216   0.0000       6.748042       183.6236 
 217   0.0000       6.798025       184.9837 
 218   0.0000       6.848189       186.3487 
 219   0.0000       6.894874       187.6191 
 220   0.0000       7.090331       192.9377 
 221   0.0000       7.108119       193.4218 
 222   0.0000       7.205562       196.0733 
 223   0.0000       7.421505       201.9494 
 224   0.0000       7.600022       206.8071 
 225   0.0000       7.862459       213.9484 
 226   0.0000       8.473568       230.5775 
 227   0.0000       8.520275       231.8485 
 228   0.0000       8.816498       239.9091 
 229   0.0000       9.016257       245.3448 
 230   0.0000       9.198436       250.3022 
 231   0.0000      22.554765       613.7463 
 232   0.0000      22.583239       614.5212 
 233   0.0000      23.393482       636.5690 
 234   0.0000      44.116526      1200.4717 
 235   0.0000      57.455441      1563.4420 

                    ********************************
                    * MULLIKEN POPULATION ANALYSIS *
                    ********************************

-----------------------
MULLIKEN ATOMIC CHARGES
-----------------------
   0 C :   -1.142497
   1 C :   -0.061289
   2 H :    0.231408
   3 H :    0.223357
   4 C :    0.554869
   5 F :   -0.197869
   6 O :   -0.515141
   7 H :    0.263783
   8 H :    0.320801
   9 H :    0.322576
Sum of atomic charges:   -0.0000000

--------------------------------
MULLIKEN REDUCED ORBITAL CHARGES
--------------------------------
  0 C s       :     3.492303  s :     3.492303
      pz      :     1.305031  p :     3.579635
      px      :     1.122660
      py      :     1.151944
      dz2     :     0.027668  d :     0.066952
      dxz     :     0.033962
      dyz     :    -0.003065
      dx2y2   :     0.002530
      dxy     :     0.005856
      f0      :     0.000295  f :     0.003607
      f+1     :     0.001045
      f-1     :     0.000074
      f+2     :    -0.000020
      f-2     :     0.000641
      f+3     :     0.000953
      f-3     :     0.000621
  1 C s       :     3.100417  s :     3.100417
      pz      :     1.003268  p :     2.981072
      px      :     0.980913
      py      :     0.996890
      dz2     :     0.018068  d :    -0.025855
      dxz     :    -0.005990
      dyz     :    -0.014287
      dx2y2   :    -0.022881
      dxy     :    -0.000765
      f0      :     0.000723  f :     0.005656
      f+1     :     0.001482
      f-1     :     0.000252
      f+2     :     0.000290
      f-2     :     0.001006
      f+3     :     0.001177
      f-3     :     0.000725
  2 H s       :     0.723325  s :     0.723325
      pz      :     0.000660  p :     0.045267
      px      :     0.013915
      py      :     0.030693
  3 H s       :     0.724855  s :     0.724855
      pz      :     0.031868  p :     0.051788
      px      :     0.018418
      py      :     0.001502
  4 C s       :     3.164979  s :     3.164979
      pz      :     0.608530  p :     1.974719
      px      :     0.705393
      py      :     0.660797
      dz2     :     0.046266  d :     0.276793
      dxz     :     0.094332
      dyz     :     0.064315
      dx2y2   :     0.053051
      dxy     :     0.018828
      f0      :     0.007432  f :     0.028639
      f+1     :     0.004823
      f-1     :     0.004047
      f+2     :     0.002695
      f-2     :     0.004943
      f+3     :     0.002481
      f-3     :     0.002218
  5 F s       :     3.996356  s :     3.996356
      pz      :     1.545126  p :     5.177075
      px      :     1.843830
      py      :     1.788118
      dz2     :     0.008141  d :     0.023451
      dxz     :     0.005768
      dyz     :     0.006301
      dx2y2   :     0.001919
      dxy     :     0.001322
      f0      :     0.000261  f :     0.000988
      f+1     :     0.000203
      f-1     :     0.000271
      f+2     :     0.000116
      f-2     :     0.000117
      f+3     :     0.000010
      f-3     :     0.000010
  6 O s       :     3.989046  s :     3.989046
      pz      :     1.789712  p :     4.492893
      px      :     1.370601
      py      :     1.332581
      dz2     :     0.004177  d :     0.031611
      dxz     :     0.003522
      dyz     :     0.002398
      dx2y2   :     0.014639
      dxy     :     0.006875
      f0      :     0.000195  f :     0.001591
      f+1     :     0.000178
      f-1     :     0.000169
      f+2     :     0.000080
      f-2     :     0.000282
      f+3     :     0.000364
      f-3     :     0.000323
  7 H s       :     0.665923  s :     0.665923
      pz      :     0.032637  p :     0.070294
      px      :     0.025493
      py      :     0.012164
  8 H s       :     0.614929  s :     0.614929
      pz      :     0.020193  p :     0.064269
      px      :     0.008679
      py      :     0.035397
  9 H s       :     0.620523  s :     0.620523
      pz      :     0.025187  p :     0.056901
      px      :     0.019207
      py      :     0.012508


                     *******************************
                     * LOEWDIN POPULATION ANALYSIS *
                     *******************************

----------------------
LOEWDIN ATOMIC CHARGES
----------------------
   0 C :   -0.086285
   1 C :   -0.152490
   2 H :    0.103999
   3 H :    0.115501
   4 C :   -0.498703
   5 F :    0.247683
   6 O :    0.057485
   7 H :    0.067773
   8 H :    0.074007
   9 H :    0.071031

-------------------------------
LOEWDIN REDUCED ORBITAL CHARGES
-------------------------------
  0 C s       :     2.725488  s :     2.725488
      pz      :     0.971040  p :     2.880051
      px      :     0.944575
      py      :     0.964436
      dz2     :     0.058690  d :     0.452882
      dxz     :     0.137126
      dyz     :     0.037122
      dx2y2   :     0.129253
      dxy     :     0.090690
      f0      :     0.002356  f :     0.027865
      f+1     :     0.005112
      f-1     :     0.003085
      f+2     :     0.002042
      f-2     :     0.004326
      f+3     :     0.006741
      f-3     :     0.004203
  1 C s       :     2.685036  s :     2.685036
      pz      :     0.898261  p :     2.752836
      px      :     0.919951
      py      :     0.934624
      dz2     :     0.123366  d :     0.676933
      dxz     :     0.181255
      dyz     :     0.070798
      dx2y2   :     0.160977
      dxy     :     0.140537
      f0      :     0.004447  f :     0.037685
      f+1     :     0.007112
      f-1     :     0.004060
      f+2     :     0.003795
      f-2     :     0.006073
      f+3     :     0.007594
      f-3     :     0.004604
  2 H s       :     0.689116  s :     0.689116
      pz      :     0.055480  p :     0.206885
      px      :     0.058579
      py      :     0.092825
  3 H s       :     0.681651  s :     0.681651
      pz      :     0.084113  p :     0.202848
      px      :     0.066583
      py      :     0.052151
  4 C s       :     2.647371  s :     2.647371
      pz      :     0.809962  p :     2.330928
      px      :     0.788599
      py      :     0.732367
      dz2     :     0.309110  d :     1.337660
      dxz     :     0.323520
      dyz     :     0.295552
      dx2y2   :     0.204171
      dxy     :     0.205306
      f0      :     0.047825  f :     0.182745
      f+1     :     0.030746
      f-1     :     0.029243
      f+2     :     0.015960
      f-2     :     0.031494
      f+3     :     0.013596
      f-3     :     0.013881
  5 F s       :     3.488978  s :     3.488978
      pz      :     1.632868  p :     5.035603
      px      :     1.714836
      py      :     1.687899
      dz2     :     0.082506  d :     0.225256
      dxz     :     0.054800
      dyz     :     0.054379
      dx2y2   :     0.014660
      dxy     :     0.018910
      f0      :     0.000752  f :     0.002480
      f+1     :     0.000457
      f-1     :     0.000596
      f+2     :     0.000270
      f-2     :     0.000339
      f+3     :     0.000035
      f-3     :     0.000031
  6 O s       :     3.399357  s :     3.399357
      pz      :     1.603611  p :     4.340120
      px      :     1.392305
      py      :     1.344204
      dz2     :     0.026133  d :     0.198167
      dxz     :     0.036346
      dyz     :     0.033739
      dx2y2   :     0.034661
      dxy     :     0.067289
      f0      :     0.000573  f :     0.004871
      f+1     :     0.000567
      f-1     :     0.000504
      f+2     :     0.000148
      f-2     :     0.001084
      f+3     :     0.000942
      f-3     :     0.001054
  7 H s       :     0.709452  s :     0.709452
      pz      :     0.089787  p :     0.222775
      px      :     0.071615
      py      :     0.061373
  8 H s       :     0.701378  s :     0.701378
      pz      :     0.059820  p :     0.224615
      px      :     0.065835
      py      :     0.098960
  9 H s       :     0.705662  s :     0.705662
      pz      :     0.096721  p :     0.223308
      px      :     0.070245
      py      :     0.056342


                      *****************************
                      * MAYER POPULATION ANALYSIS *
                      *****************************

  NA   - Mulliken gross atomic population
  ZA   - Total nuclear charge
  QA   - Mulliken gross atomic charge
  VA   - Mayer's total valence
  BVA  - Mayer's bonded valence
  FA   - Mayer's free valence

  ATOM       NA         ZA         QA         VA         BVA        FA
  0 C      7.1425     6.0000    -1.1425     3.7077     3.7077     0.0000
  1 C      6.0613     6.0000    -0.0613     3.2579     3.2579    -0.0000
  2 H      0.7686     1.0000     0.2314     0.9993     0.9993    -0.0000
  3 H      0.7766     1.0000     0.2234     1.0407     1.0407    -0.0000
  4 C      5.4451     6.0000     0.5549     3.7603     3.7603    -0.0000
  5 F      9.1979     9.0000    -0.1979     1.1342     1.1342     0.0000
  6 O      8.5151     8.0000    -0.5151     1.8277     1.8277    -0.0000
  7 H      0.7362     1.0000     0.2638     1.0658     1.0658     0.0000
  8 H      0.6792     1.0000     0.3208     1.0010     1.0010     0.0000
  9 H      0.6774     1.0000     0.3226     0.9824     0.9824     0.0000

  Mayer bond orders larger than 0.100000
B(  0-C ,  1-C ) :   0.5915 B(  0-C ,  4-C ) :   0.1481 B(  0-C ,  7-H ) :   0.9779 
B(  0-C ,  8-H ) :   0.9784 B(  0-C ,  9-H ) :   0.9361 B(  1-C ,  2-H ) :   0.9679 
B(  1-C ,  3-H ) :   0.9776 B(  1-C ,  4-C ) :   0.8540 B(  4-C ,  5-F ) :   1.0375 
B(  4-C ,  6-O ) :   1.7119 

-------
TIMINGS
-------

Total SCF time: 0 days 0 hours 0 min 24 sec 

Total time                  ....      24.129 sec
Sum of individual times     ....      23.906 sec  ( 99.1%)

Fock matrix formation       ....      22.687 sec  ( 94.0%)
  Split-RI-J                ....       1.443 sec  (  6.4% of F)
  Chain of spheres X        ....      17.208 sec  ( 75.8% of F)
  XC integration            ....       3.978 sec  ( 17.5% of F)
    Basis function eval.    ....       1.116 sec  ( 28.1% of XC)
    Density eval.           ....       0.991 sec  ( 24.9% of XC)
    XC-Functional eval.     ....       0.165 sec  (  4.2% of XC)
    XC-Potential eval.      ....       1.527 sec  ( 38.4% of XC)
Diagonalization             ....       0.081 sec  (  0.3%)
Density matrix formation    ....       0.008 sec  (  0.0%)
Population analysis         ....       0.012 sec  (  0.1%)
Initial guess               ....       0.195 sec  (  0.8%)
Orbital Transformation      ....       0.000 sec  (  0.0%)
Orbital Orthonormalization  ....       0.000 sec  (  0.0%)
DIIS solution               ....       0.044 sec  (  0.2%)
SOSCF solution              ....       0.070 sec  (  0.3%)
Grid generation             ....       0.809 sec  (  3.4%)

Maximum memory used throughout the entire SCF-calculation: 70.8 MB


-------------------------------------------------------------------------------
                          DFT DISPERSION CORRECTION                            
                                                                               
                              DFTD3 V3.1  Rev 1                                
                          USING Becke-Johnson damping                          
-------------------------------------------------------------------------------
The B3LYP functional is recognized
Active option DFTDOPT                   ...         4   

molecular C6(AA) [au] = 808.430984 


            DFT-D V3
 parameters
 s6 scaling factor         :     1.0000 
 a1 scaling factor         :     0.3981 
 s8 scaling factor         :     1.9889 
 a2 scaling factor         :     4.4211 
 ad hoc parameters k1-k3   :    16.0000     1.3333    -4.0000 

 Edisp/kcal,au: -6.520980432190  -0.010391842683 
 E6   /kcal   :  -3.183233073 
 E8   /kcal   :  -3.337747359 
 % E8         :  51.184747358 

-------------------------   ----------------
Dispersion correction           -0.010391843
-------------------------   ----------------


-------------------------   --------------------
FINAL SINGLE POINT ENERGY      -292.371005997477
-------------------------   --------------------


                            ***************************************
                            *     ORCA property calculations      *
                            ***************************************

                                    ---------------------
                                    Active property flags
                                    ---------------------
   (+) Dipole Moment


------------------------------------------------------------------------------
                       ORCA ELECTRIC PROPERTIES CALCULATION
------------------------------------------------------------------------------

Dipole Moment Calculation                       ... on
Quadrupole Moment Calculation                   ... off
Polarizability Calculation                      ... off
GBWName                                         ... TZVPD_B3LYP_C1_wt_dlpno_neg.gbw
Electron density file                           ... TZVPD_B3LYP_C1_wt_dlpno_neg.scfp
The origin for moment calculation is the CENTER OF MASS  = ( 8.614733,  2.657125 -4.730672)

-------------
DIPOLE MOMENT
-------------
                                X             Y             Z
Electronic contribution:      5.04881      -1.18043       6.51756
Nuclear contribution   :     -6.06116       0.51860      -6.80802
                        -----------------------------------------
Total Dipole Moment    :     -1.01234      -0.66183      -0.29046
                        -----------------------------------------
Magnitude (a.u.)       :      1.24388
Magnitude (Debye)      :      3.16168



--------------------
Rotational spectrum 
--------------------
 
Rotational constants in cm-1:     0.276196     0.132056     0.105465 
Rotational constants in MHz :  8280.156449  3958.940601  3161.775929 

 Dipole components along the rotational axes: 
x,y,z [a.u.] :     0.896519    -0.804294     0.310789 
x,y,z [Debye]:     2.278770    -2.044353     0.789963 

 

Timings for individual modules:

Sum of individual times         ...       27.253 sec (=   0.454 min)
GTO integral calculation        ...        2.008 sec (=   0.033 min)   7.4 %
SCF iterations                  ...       25.244 sec (=   0.421 min)  92.6 %
                             ****ORCA TERMINATED NORMALLY****
TOTAL RUN TIME: 0 days 0 hours 0 minutes 27 seconds 773 msec
