
                                        *****************
                                        * O   R   C   A *
                                        *****************

                                            #,                                       
                                            ###                                      
                                            ####                                     
                                            #####                                    
                                            ######                                   
                                           ########,                                 
                                     ,,################,,,,,                         
                               ,,#################################,,                 
                          ,,##########################################,,             
                       ,#########################################, ''#####,          
                    ,#############################################,,   '####,        
                  ,##################################################,,,,####,       
                ,###########''''           ''''###############################       
              ,#####''   ,,,,##########,,,,          '''####'''          '####       
            ,##' ,,,,###########################,,,                        '##       
           ' ,,###''''                  '''############,,,                           
         ,,##''                                '''############,,,,        ,,,,,,###''
      ,#''                                            '''#######################'''  
     '                                                          ''''####''''         
             ,#######,   #######,   ,#######,      ##                                
            ,#'     '#,  ##    ##  ,#'     '#,    #''#        ######   ,####,        
            ##       ##  ##   ,#'  ##            #'  '#       #        #'  '#        
            ##       ##  #######   ##           ,######,      #####,   #    #        
            '#,     ,#'  ##    ##  '#,     ,#' ,#      #,         ##   #,  ,#        
             '#######'   ##     ##  '#######'  #'      '#     #####' # '####'        



                  #######################################################
                  #                        -***-                        #
                  #          Department of theory and spectroscopy      #
                  #    Directorship and core code : Frank Neese         #
                  #        Max Planck Institute fuer Kohlenforschung    #
                  #                Kaiser Wilhelm Platz 1               #
                  #                 D-45470 Muelheim/Ruhr               #
                  #                      Germany                        #
                  #                                                     #
                  #                  All rights reserved                #
                  #                        -***-                        #
                  #######################################################


                         Program Version 5.0.0 -  RELEASE  -
                                (SVN: $Rev: 19529$)
                ($Date: 2021-06-28 11:36:33 +0200 (Mo, 28 Jun 2021) $)


 With contributions from (in alphabetic order):
   Daniel Aravena         : Magnetic Suceptibility
   Michael Atanasov       : Ab Initio Ligand Field Theory (pilot matlab implementation)
   Alexander A. Auer      : GIAO ZORA, VPT2 properties, NMR spectrum
   Ute Becker             : Parallelization
   Giovanni Bistoni       : ED, misc. LED, open-shell LED, HFLD
   Martin Brehm           : Molecular dynamics
   Dmytro Bykov           : SCF Hessian
   Vijay G. Chilkuri      : MRCI spin determinant printing, contributions to CSF-ICE
   Dipayan Datta          : RHF DLPNO-CCSD density
   Achintya Kumar Dutta   : EOM-CC, STEOM-CC
   Dmitry Ganyushin       : Spin-Orbit,Spin-Spin,Magnetic field MRCI
   Miquel Garcia          : C-PCM Hessian, Gaussian charge scheme
   Yang Guo               : DLPNO-NEVPT2, F12-NEVPT2, CIM, IAO-localization
   Andreas Hansen         : Spin unrestricted coupled pair/coupled cluster methods
   Benjamin Helmich-Paris : MC-RPA, TRAH-SCF, COSX integrals
   Lee Huntington         : MR-EOM, pCC
   Robert Izsak           : Overlap fitted RIJCOSX, COSX-SCS-MP3, EOM
   Marcus Kettner         : VPT2
   Christian Kollmar      : KDIIS, OOCD, Brueckner-CCSD(T), CCSD density, CASPT2, CASPT2-K
   Simone Kossmann        : Meta GGA functionals, TD-DFT gradient, OOMP2, MP2 Hessian
   Martin Krupicka        : Initial AUTO-CI
   Lucas Lang             : DCDCAS
   Marvin Lechner         : AUTO-CI (C++ implementation), FIC-MRCC
   Dagmar Lenk            : GEPOL surface, SMD
   Dimitrios Liakos       : Extrapolation schemes; Compound Job, initial MDCI parallelization
   Dimitrios Manganas     : Further ROCIS development; embedding schemes
   Dimitrios Pantazis     : SARC Basis sets
   Anastasios Papadopoulos: AUTO-CI, single reference methods and gradients
   Taras Petrenko         : DFT Hessian,TD-DFT gradient, ASA, ECA, R-Raman, ABS, FL, XAS/XES, NRVS
   Peter Pinski           : DLPNO-MP2, DLPNO-MP2 Gradient
   Christoph Reimann      : Effective Core Potentials
   Marius Retegan         : Local ZFS, SOC
   Christoph Riplinger    : Optimizer, TS searches, QM/MM, DLPNO-CCSD(T), (RO)-DLPNO pert. Triples
   Tobias Risthaus        : Range-separated hybrids, TD-DFT gradient, RPA, STAB
   Michael Roemelt        : Original ROCIS implementation
   Masaaki Saitow         : Open-shell DLPNO-CCSD energy and density
   Barbara Sandhoefer     : DKH picture change effects
   Avijit Sen             : IP-ROCIS
   Kantharuban Sivalingam : CASSCF convergence, NEVPT2, FIC-MRCI
   Bernardo de Souza      : ESD, SOC TD-DFT
   Georgi Stoychev        : AutoAux, RI-MP2 NMR
   Willem Van den Heuvel  : Paramagnetic NMR
   Boris Wezisla          : Elementary symmetry handling
   Frank Wennmohs         : Technical directorship


 We gratefully acknowledge several colleagues who have allowed us to
 interface, adapt or use parts of their codes:
   Stefan Grimme, W. Hujo, H. Kruse, P. Pracht,  : VdW corrections, initial TS optimization,
                  C. Bannwarth, S. Ehlert          DFT functionals, gCP, sTDA/sTD-DF
   Ed Valeev, F. Pavosevic, A. Kumar             : LibInt (2-el integral package), F12 methods
   Garnet Chan, S. Sharma, J. Yang, R. Olivares  : DMRG
   Ulf Ekstrom                                   : XCFun DFT Library
   Mihaly Kallay                                 : mrcc  (arbitrary order and MRCC methods)
   Jiri Pittner, Ondrej Demel                    : Mk-CCSD
   Frank Weinhold                                : gennbo (NPA and NBO analysis)
   Christopher J. Cramer and Donald G. Truhlar   : smd solvation model
   Lars Goerigk                                  : TD-DFT with DH, B97 family of functionals
   V. Asgeirsson, H. Jonsson                     : NEB implementation
   FAccTs GmbH                                   : IRC, NEB, NEB-TS, DLPNO-Multilevel, CI-OPT
                                                   MM, QMMM, 2- and 3-layer-ONIOM, Crystal-QMMM,
                                                   LR-CPCM, SF, NACMEs, symmetry and pop. for TD-DFT,
                                                   nearIR, NL-DFT gradient (VV10), updates on ESD,
                                                   ML-optimized integration grids
   S Lehtola, MJT Oliveira, MAL Marques          : LibXC Library
   Liviu Ungur et al                             : ANISO software


 Your calculation uses the libint2 library for the computation of 2-el integrals
 For citations please refer to: http://libint.valeyev.net

 Your ORCA version has been built with support for libXC version: 5.1.0
 For citations please refer to: https://tddft.org/programs/libxc/

 This ORCA versions uses:
   CBLAS   interface :  Fast vector & matrix operations
   LAPACKE interface :  Fast linear algebra routines
   SCALAPACK package :  Parallel linear algebra routines
   Shared memory     :  Shared parallel matrices
   BLAS/LAPACK       :  OpenBLAS 0.3.15  USE64BITINT DYNAMIC_ARCH NO_AFFINITY Haswell SINGLE_THREADED
        Core in use  :  Haswell
   Copyright (c) 2011-2014, The OpenBLAS Project


Your calculation utilizes the atom-pairwise dispersion correction
with the Becke-Johnson damping scheme (D3BJ)
Cite in your paper:
S.Grimme, S.Ehrlich, L.Goerigk, J Comput Chem, (2011), 32, 1456–1465 
S.Grimme, J.Antony, S.Ehrlich and H.Krieg, J.Chem.Phys., 132, (2010), 154104 
   

================================================================================

----- Orbital basis set information -----
Your calculation utilizes the basis: def2-SVPD
   F. Weigend and R. Ahlrichs, Phys. Chem. Chem. Phys. 7, 3297 (2005).
   D. Rappoport and F. Furche, J. Chem. Phys. 133 134105 (2010).

----- AuxJ basis set information -----
Your calculation utilizes the auxiliary basis: def2/J
   F. Weigend, Phys. Chem. Chem. Phys. 8, 1057 (2006).

================================================================================
                                        WARNINGS
                       Please study these warnings very carefully!
================================================================================



WARNING: Found flag for RIJCOSX approximation but no HF exchange needed!
  ===> : RIJCOSX  will be disabled and Split-RI-J is turned on

INFO   : the flag for use of the SHARK integral package has been found!

================================================================================
                                       INPUT FILE
================================================================================
NAME = SVPD_PBE_A_wt_dlpno_neg.com
|  1> !PBE D3BJ RIJCOSX def2-SVPD def2/J TightSCF
|  2> *xyz -1 1 
|  3> C         -0.05517        1.61942       -3.78858
|  4> C          1.22302        2.46987       -3.75691
|  5> H          1.11470        3.25807       -4.53300
|  6> H          1.23773        3.01124       -2.79216
|  7> O          2.35381        1.71203       -3.93448
|  8> H         -0.10198        1.08015       -4.71156
|  9> H         -0.91014        2.25726       -3.70441
| 10> H         -0.04403        0.92826       -2.97183
| 11> *
| 12> 
| 13> %MaxCore 64000
| 14> 
| 15> %pal nprocs 4
| 16> end  
| 17> 
| 18> %scf
| 19>   MaxIter 150
| 20> end
| 21> 
| 22> 
| 23>                          ****END OF INPUT****
================================================================================

                       ****************************
                       * Single Point Calculation *
                       ****************************

---------------------------------
CARTESIAN COORDINATES (ANGSTROEM)
---------------------------------
  C     -0.055170    1.619420   -3.788580
  C      1.223020    2.469870   -3.756910
  H      1.114700    3.258070   -4.533000
  H      1.237730    3.011240   -2.792160
  O      2.353810    1.712030   -3.934480
  H     -0.101980    1.080150   -4.711560
  H     -0.910140    2.257260   -3.704410
  H     -0.044030    0.928260   -2.971830

----------------------------
CARTESIAN COORDINATES (A.U.)
----------------------------
  NO LB      ZA    FRAG     MASS         X           Y           Z
   0 C     6.0000    0    12.011   -0.104256    3.060260   -7.159379
   1 C     6.0000    0    12.011    2.311173    4.667378   -7.099531
   2 H     1.0000    0     1.008    2.106478    6.156860   -8.566129
   3 H     1.0000    0     1.008    2.338971    5.690419   -5.276418
   4 O     8.0000    0    15.999    4.448056    3.235268   -7.435090
   5 H     1.0000    0     1.008   -0.192714    2.041188   -8.903558
   6 H     1.0000    0     1.008   -1.719915    4.265603   -7.000320
   7 H     1.0000    0     1.008   -0.083205    1.754157   -5.615945

--------------------------------
INTERNAL COORDINATES (ANGSTROEM)
--------------------------------
 C      0   0   0     0.000000000000     0.00000000     0.00000000
 C      1   0   0     1.535590397046     0.00000000     0.00000000
 H      2   1   0     1.111444173362   107.29141528     0.00000000
 H      2   1   3     1.106363603658   107.46069748   112.75963027
 O      2   1   3     1.372784977555   112.16284146   236.06985532
 H      1   2   3     1.069997845512   109.47093275    67.24057344
 H      1   2   3     1.069999138037   109.47136656   307.24054334
 H      1   2   3     1.070003181163   109.47107181   187.24094478

---------------------------
INTERNAL COORDINATES (A.U.)
---------------------------
 C      0   0   0     0.000000000000     0.00000000     0.00000000
 C      1   0   0     2.901845304296     0.00000000     0.00000000
 H      2   1   0     2.100325100796   107.29141528     0.00000000
 H      2   1   3     2.090724215453   107.46069748   112.75963027
 O      2   1   3     2.594187648340   112.16284146   236.06985532
 H      1   2   3     2.022002891903   109.47093275    67.24057344
 H      1   2   3     2.022005334422   109.47136656   307.24054334
 H      1   2   3     2.022012974824   109.47107181   187.24094478

---------------------
BASIS SET INFORMATION
---------------------
There are 3 groups of distinct atoms

 Group   1 Type C   : 8s4p2d contracted to 4s2p2d pattern {5111/31/11}
 Group   2 Type H   : 4s2p contracted to 2s2p pattern {31/11}
 Group   3 Type O   : 8s5p2d contracted to 4s3p2d pattern {5111/311/11}

Atom   0C    basis set group =>   1
Atom   1C    basis set group =>   1
Atom   2H    basis set group =>   2
Atom   3H    basis set group =>   2
Atom   4O    basis set group =>   3
Atom   5H    basis set group =>   2
Atom   6H    basis set group =>   2
Atom   7H    basis set group =>   2
---------------------------------
AUXILIARY/J BASIS SET INFORMATION
---------------------------------
There are 3 groups of distinct atoms

 Group   1 Type C   : 12s5p4d2f1g contracted to 6s4p3d1f1g pattern {711111/2111/211/2/1}
 Group   2 Type H   : 5s2p1d contracted to 3s1p1d pattern {311/2/1}
 Group   3 Type O   : 12s5p4d2f1g contracted to 6s4p3d1f1g pattern {711111/2111/211/2/1}

Atom   0C    basis set group =>   1
Atom   1C    basis set group =>   1
Atom   2H    basis set group =>   2
Atom   3H    basis set group =>   2
Atom   4O    basis set group =>   3
Atom   5H    basis set group =>   2
Atom   6H    basis set group =>   2
Atom   7H    basis set group =>   2


           ************************************************************
           *        Program running with 4 parallel MPI-processes     *
           *              working on a common directory               *
           ************************************************************
------------------------------------------------------------------------------
                           ORCA GTO INTEGRAL CALCULATION
                           -- RI-GTO INTEGRALS CHOSEN --
------------------------------------------------------------------------------
------------------------------------------------------------------------------
                   ___                                                        
                  /   \      - P O W E R E D   B Y -                         
                 /     \                                                     
                 |  |  |   _    _      __       _____    __    __             
                 |  |  |  | |  | |    /  \     |  _  \  |  |  /  |          
                  \  \/   | |  | |   /    \    | | | |  |  | /  /          
                 / \  \   | |__| |  /  /\  \   | |_| |  |  |/  /          
                |  |  |   |  __  | /  /__\  \  |    /   |      \           
                |  |  |   | |  | | |   __   |  |    \   |  |\   \          
                \     /   | |  | | |  |  |  |  | |\  \  |  | \   \       
                 \___/    |_|  |_| |__|  |__|  |_| \__\ |__|  \__/        
                                                                              
                      - O R C A' S   B I G   F R I E N D -                    
                                      &                                       
                       - I N T E G R A L  F E E D E R -                       
                                                                              
 v1 FN, 2020, v2 2021                                                         
------------------------------------------------------------------------------


Reading SHARK input file SVPD_PBE_A_wt_dlpno_neg.SHARKINP.tmp ... ok
----------------------
SHARK INTEGRAL PACKAGE
----------------------

Number of atoms                             ...      8
Number of basis functions                   ...    103
Number of shells                            ...     45
Maximum angular momentum                    ...      2
Integral batch strategy                     ... SHARK/LIBINT Hybrid
RI-J (if used) integral strategy            ... SPLIT-RIJ (Revised 2003 algorithm where possible)
Printlevel                                  ...      1
Contraction scheme used                     ... SEGMENTED contraction
Coulomb Range Separation                    ... NOT USED
Exchange Range Separation                   ... NOT USED
Finite Nucleus Model                        ... NOT USED
Auxiliary Coulomb fitting basis             ... AVAILABLE
   # of basis functions in Aux-J            ...    202
   # of shells in Aux-J                     ...     70
   Maximum angular momentum in Aux-J        ...      4
Auxiliary J/K fitting basis                 ... NOT available
Auxiliary Correlation fitting basis         ... NOT available
Auxiliary 'external' fitting basis          ... NOT available
Integral threshold                          ...     2.500000e-11
Primitive cut-off                           ...     2.500000e-12
Primitive pair pre-selection threshold      ...     2.500000e-12

Calculating pre-screening integrals         ... done (  0.0 sec) Dimension = 45
Organizing shell pair data                  ... done (  0.0 sec)
Shell pair information
Total number of shell pairs                 ...      1035
Shell pairs after pre-screening             ...      1033
Total number of primitive shell pairs       ...      2755
Primitive shell pairs kept                  ...      2492
          la=0 lb=0:    252 shell pairs
          la=1 lb=0:    373 shell pairs
          la=1 lb=1:    153 shell pairs
          la=2 lb=0:    132 shell pairs
          la=2 lb=1:    102 shell pairs
          la=2 lb=2:     21 shell pairs

Calculating one electron integrals          ... done (  0.0 sec)
Calculating RI/J V-Matrix + Cholesky decomp.... done (  0.0 sec)
Calculating Nuclear repulsion               ... done (  0.0 sec) ENN=     74.418249709235 Eh

SHARK setup successfully completed in   0.1 seconds

Maximum memory used throughout the entire GTOINT-calculation: 8.8 MB


           ************************************************************
           *        Program running with 4 parallel MPI-processes     *
           *              working on a common directory               *
           ************************************************************
-------------------------------------------------------------------------------
                                 ORCA SCF
-------------------------------------------------------------------------------

------------
SCF SETTINGS
------------
Hamiltonian:
 Density Functional     Method          .... DFT(GTOs)
 Exchange Functional    Exchange        .... PBE
   PBE kappa parameter   XKappa         ....  0.804000
   PBE mue parameter    XMuePBE         ....  0.219520
 Correlation Functional Correlation     .... PBE
   PBE beta parameter  CBetaPBE         ....  0.066725
 LDA part of GGA corr.  LDAOpt          .... PW91-LDA
 Gradients option       PostSCFGGA      .... off
   Density functional embedding theory  .... OFF
   NL short-range parameter             ....  6.400000
 RI-approximation to the Coulomb term is turned on
   Number of AuxJ basis functions       .... 202


General Settings:
 Integral files         IntName         .... SVPD_PBE_A_wt_dlpno_neg
 Hartree-Fock type      HFTyp           .... RHF
 Total Charge           Charge          ....   -1
 Multiplicity           Mult            ....    1
 Number of Electrons    NEL             ....   26
 Basis Dimension        Dim             ....  103
 Nuclear Repulsion      ENuc            ....     74.4182497092 Eh

Convergence Acceleration:
 DIIS                   CNVDIIS         .... on
   Start iteration      DIISMaxIt       ....    12
   Startup error        DIISStart       ....  0.200000
   # of expansion vecs  DIISMaxEq       ....     5
   Bias factor          DIISBfac        ....   1.050
   Max. coefficient     DIISMaxC        ....  10.000
 Trust-Rad. Augm. Hess. CNVTRAH         .... auto
   Auto Start mean grad. ratio tolernc. ....  1.125000
   Auto Start start iteration           ....    20
   Auto Start num. interpolation iter.  ....    10
   Max. Number of Micro iterations      ....    16
   Max. Number of Macro iterations      .... Maxiter - #DIIS iter
   Number of Davidson start vectors     ....     2
   Converg. threshold I  (grad. norm)   ....   1.000e-05
   Converg. threshold II (energy diff.) ....   1.000e-08
   Grad. Scal. Fac. for Micro threshold ....   0.100
   Minimum threshold for Micro iter.    ....   0.010
   NR start threshold (gradient norm)   ....   0.001
   Initial trust radius                 ....   0.400
   Minimum AH scaling param. (alpha)    ....   1.000
   Maximum AH scaling param. (alpha)    .... 1000.000
   Orbital update algorithm             .... Taylor
   White noise on init. David. guess    .... on
   Maximum white noise                  ....   0.010
   Quad. conv. algorithm                .... NR
 SOSCF                  CNVSOSCF        .... on
   Start iteration      SOSCFMaxIt      ....   150
   Startup grad/error   SOSCFStart      ....  0.003300
 Level Shifting         CNVShift        .... on
   Level shift para.    LevelShift      ....    0.2500
   Turn off err/grad.   ShiftErr        ....    0.0010
 Zerner damping         CNVZerner       .... off
 Static damping         CNVDamp         .... on
   Fraction old density DampFac         ....    0.7000
   Max. Damping (<1)    DampMax         ....    0.9800
   Min. Damping (>=0)   DampMin         ....    0.0000
   Turn off err/grad.   DampErr         ....    0.1000
 Fernandez-Rico         CNVRico         .... off

SCF Procedure:
 Maximum # iterations   MaxIter         ....   150
 SCF integral mode      SCFMode         .... Direct
   Integral package                     .... SHARK and LIBINT hybrid scheme
 Reset frequency        DirectResetFreq ....    20
 Integral Threshold     Thresh          ....  2.500e-11 Eh
 Primitive CutOff       TCut            ....  2.500e-12 Eh

Convergence Tolerance:
 Convergence Check Mode ConvCheckMode   .... Total+1el-Energy
 Convergence forced     ConvForced      .... 0
 Energy Change          TolE            ....  1.000e-08 Eh
 1-El. energy change                    ....  1.000e-05 Eh
 Orbital Gradient       TolG            ....  1.000e-05
 Orbital Rotation angle TolX            ....  1.000e-05
 DIIS Error             TolErr          ....  5.000e-07


Diagonalization of the overlap matrix:
Smallest eigenvalue                        ... 3.363e-04
Time for diagonalization                   ...    0.004 sec
Threshold for overlap eigenvalues          ... 1.000e-08
Number of eigenvalues below threshold      ... 0
Time for construction of square roots      ...    0.003 sec
Total time needed                          ...    0.007 sec

Time for model grid setup =    0.040 sec

------------------------------
INITIAL GUESS: MODEL POTENTIAL
------------------------------
Loading Hartree-Fock densities                     ... done
Calculating cut-offs                               ... done
Initializing the effective Hamiltonian             ... done
Setting up the integral package (SHARK)            ... done
Starting the Coulomb interaction                   ... done (   0.0 sec)
Reading the grid                                   ... done
Mapping shells                                     ... done
Starting the XC term evaluation                    ... done (   0.0 sec)
  promolecular density results
     # of electrons  =     24.997286552
     EX              =    -19.794058640
     EC              =     -0.801387917
     EX+EC           =    -20.595446557
Transforming the Hamiltonian                       ... done (   0.0 sec)
Diagonalizing the Hamiltonian                      ... done (   0.0 sec)
Back transforming the eigenvectors                 ... done (   0.0 sec)
Now organizing SCF variables                       ... done
                      ------------------
                      INITIAL GUESS DONE (   0.1 sec)
                      ------------------
-------------------
DFT GRID GENERATION
-------------------

General Integration Accuracy     IntAcc      ... 4.388
Radial Grid Type                 RadialGrid  ... OptM3 with GC (2021)
Angular Grid (max. ang.)         AngularGrid ... 4 (Lebedev-302)
Angular grid pruning method      GridPruning ... 4 (adaptive)
Weight generation scheme         WeightScheme... Becke
Basis function cutoff            BFCut       ... 1.0000e-11
Integration weight cutoff        WCut        ... 1.0000e-14
Angular grids for H and He will be reduced by one unit
Partially contracted basis set               ... off
Rotationally invariant grid construction     ... off

Total number of grid points                  ...    35881
Total number of batches                      ...      565
Average number of points per batch           ...       63
Average number of grid points per atom       ...     4485
Time for grid setup =    0.228 sec

--------------
SCF ITERATIONS
--------------
ITER       Energy         Delta-E        Max-DP      RMS-DP      [F,P]     Damp
               ***  Starting incremental Fock matrix formation  ***
  0   -153.8550861678   0.000000000000 0.96040035  0.02710222  0.3605041 0.7000
  1   -154.0052826270  -0.150196459194 0.62736274  0.01974991  0.0901305 0.7000
                               ***Turning on DIIS***
  2   -154.0267064852  -0.021423858272 0.32318076  0.01108900  0.0616314 0.0000
  3   -154.1114679834  -0.084761498200 0.67410751  0.02062803  0.0635857 0.0000
  4   -154.1224911131  -0.011023129690 0.24485397  0.00823872  0.0718387 0.0000
  5   -154.1283561315  -0.005865018408 0.11591250  0.00382791  0.0287613 0.0000
  6   -154.1296875293  -0.001331397736 0.05927033  0.00188222  0.0140891 0.0000
  7   -154.1300579960  -0.000370466787 0.03363915  0.00101286  0.0035348 0.0000
                      *** Initiating the SOSCF procedure ***
                           *** Shutting down DIIS ***
                      *** Re-Reading the Fockian *** 
                      *** Removing any level shift *** 
ITER      Energy       Delta-E        Grad      Rot      Max-DP    RMS-DP
  8   -154.13011476  -0.0000567685  0.000756  0.000756  0.020455  0.000629
               *** Restarting incremental Fock matrix formation ***
  9   -154.13012894  -0.0000141753  0.000481  0.004943  0.036883  0.001167
 10   -154.13013531  -0.0000063678  0.000225  0.002595  0.016029  0.000543
 11   -154.13013183   0.0000034750  0.000501  0.002589  0.015106  0.000509
 12   -154.13013630  -0.0000044640  0.000053  0.000126  0.000634  0.000019
 13   -154.13013617   0.0000001260  0.000090  0.000082  0.000499  0.000020
 14   -154.13013639  -0.0000002171  0.000005  0.000010  0.000049  0.000002
 15   -154.13013639  -0.0000000001  0.000005  0.000005  0.000028  0.000001
                 **** Energy Check signals convergence ****
              ***Rediagonalizing the Fockian in SOSCF/NRSCF***

               *****************************************************
               *                     SUCCESS                       *
               *           SCF CONVERGED AFTER  16 CYCLES          *
               *****************************************************


----------------
TOTAL SCF ENERGY
----------------

Total Energy       :         -154.13013639 Eh           -4194.09423 eV

Components:
Nuclear Repulsion  :           74.41824971 Eh            2025.02352 eV
Electronic Energy  :         -228.54838610 Eh           -6219.11776 eV
One Electron Energy:         -362.36605013 Eh           -9860.48152 eV
Two Electron Energy:          133.81766403 Eh            3641.36376 eV

Virial components:
Potential Energy   :         -306.88700417 Eh           -8350.81993 eV
Kinetic Energy     :          152.75686779 Eh            4156.72570 eV
Virial Ratio       :            2.00898990


DFT components:
N(Alpha)           :       13.000251586292 electrons
N(Beta)            :       13.000251586292 electrons
N(Total)           :       26.000503172584 electrons
E(X)               :      -20.437119687058 Eh       
E(C)               :       -0.837083883844 Eh       
E(XC)              :      -21.274203570902 Eh       
DFET-embed. en.    :        0.000000000000 Eh       

---------------
SCF CONVERGENCE
---------------

  Last Energy change         ...   -5.1176e-10  Tolerance :   1.0000e-08
  Last MAX-Density change    ...    1.7306e-05  Tolerance :   1.0000e-07
  Last RMS-Density change    ...    6.3056e-07  Tolerance :   5.0000e-09
  Last Orbital Gradient      ...    2.1506e-06  Tolerance :   1.0000e-05
  Last Orbital Rotation      ...    4.3556e-06  Tolerance :   1.0000e-05

             **** THE GBW FILE WAS UPDATED (SVPD_PBE_A_wt_dlpno_neg.gbw) ****
             **** DENSITY SVPD_PBE_A_wt_dlpno_neg.scfp WAS UPDATED ****
             **** ENERGY FILE WAS UPDATED (SVPD_PBE_A_wt_dlpno_neg.en.tmp) ****
             **** THE GBW FILE WAS UPDATED (SVPD_PBE_A_wt_dlpno_neg.gbw) ****
             **** DENSITY SVPD_PBE_A_wt_dlpno_neg.scfp WAS UPDATED ****
----------------
ORBITAL ENERGIES
----------------

  NO   OCC          E(Eh)            E(eV) 
   0   2.0000     -18.443375      -501.8698 
   1   2.0000      -9.710781      -264.2438 
   2   2.0000      -9.688082      -263.6261 
   3   2.0000      -0.593200       -16.1418 
   4   2.0000      -0.451369       -12.2824 
   5   2.0000      -0.309711        -8.4277 
   6   2.0000      -0.203645        -5.5415 
   7   2.0000      -0.181324        -4.9341 
   8   2.0000      -0.133019        -3.6196 
   9   2.0000      -0.114579        -3.1178 
  10   2.0000      -0.072203        -1.9647 
  11   2.0000       0.066375         1.8062 
  12   2.0000       0.069797         1.8993 
  13   0.0000       0.163379         4.4458 
  14   0.0000       0.193064         5.2535 
  15   0.0000       0.223930         6.0934 
  16   0.0000       0.236884         6.4459 
  17   0.0000       0.255262         6.9460 
  18   0.0000       0.271233         7.3806 
  19   0.0000       0.273069         7.4306 
  20   0.0000       0.288274         7.8443 
  21   0.0000       0.290338         7.9005 
  22   0.0000       0.323193         8.7945 
  23   0.0000       0.330699         8.9988 
  24   0.0000       0.340619         9.2687 
  25   0.0000       0.365878         9.9560 
  26   0.0000       0.381471        10.3804 
  27   0.0000       0.429751        11.6941 
  28   0.0000       0.441863        12.0237 
  29   0.0000       0.448114        12.1938 
  30   0.0000       0.472861        12.8672 
  31   0.0000       0.479586        13.0502 
  32   0.0000       0.489298        13.3145 
  33   0.0000       0.499193        13.5837 
  34   0.0000       0.500853        13.6289 
  35   0.0000       0.512318        13.9409 
  36   0.0000       0.522362        14.2142 
  37   0.0000       0.530854        14.4453 
  38   0.0000       0.540064        14.6959 
  39   0.0000       0.550128        14.9697 
  40   0.0000       0.576661        15.6917 
  41   0.0000       0.611706        16.6454 
  42   0.0000       0.614733        16.7277 
  43   0.0000       0.628186        17.0938 
  44   0.0000       0.637139        17.3374 
  45   0.0000       0.642321        17.4784 
  46   0.0000       0.647627        17.6228 
  47   0.0000       0.665814        18.1177 
  48   0.0000       0.714094        19.4315 
  49   0.0000       0.714923        19.4540 
  50   0.0000       0.728813        19.8320 
  51   0.0000       0.816140        22.2083 
  52   0.0000       0.819296        22.2942 
  53   0.0000       0.842947        22.9378 
  54   0.0000       0.899912        24.4879 
  55   0.0000       0.901725        24.5372 
  56   0.0000       0.964723        26.2515 
  57   0.0000       1.004813        27.3423 
  58   0.0000       1.056550        28.7502 
  59   0.0000       1.069462        29.1015 
  60   0.0000       1.093961        29.7682 
  61   0.0000       1.118604        30.4388 
  62   0.0000       1.153673        31.3930 
  63   0.0000       1.163573        31.6624 
  64   0.0000       1.231406        33.5083 
  65   0.0000       1.242025        33.7972 
  66   0.0000       1.327858        36.1328 
  67   0.0000       1.380888        37.5759 
  68   0.0000       1.420071        38.6421 
  69   0.0000       1.636245        44.5245 
  70   0.0000       1.685010        45.8515 
  71   0.0000       1.704232        46.3745 
  72   0.0000       1.709394        46.5150 
  73   0.0000       1.743526        47.4437 
  74   0.0000       1.753398        47.7124 
  75   0.0000       1.797469        48.9116 
  76   0.0000       1.929065        52.4925 
  77   0.0000       1.994576        54.2752 
  78   0.0000       1.999332        54.4046 
  79   0.0000       2.085802        56.7576 
  80   0.0000       2.113876        57.5215 
  81   0.0000       2.125677        57.8426 
  82   0.0000       2.136644        58.1410 
  83   0.0000       2.172280        59.1107 
  84   0.0000       2.184869        59.4533 
  85   0.0000       2.277794        61.9819 
  86   0.0000       2.335722        63.5582 
  87   0.0000       2.450755        66.6884 
  88   0.0000       2.489116        67.7323 
  89   0.0000       2.590265        70.4847 
  90   0.0000       2.630262        71.5731 
  91   0.0000       2.765830        75.2621 
  92   0.0000       2.770010        75.3758 
  93   0.0000       2.952367        80.3380 
  94   0.0000       3.037002        82.6410 
  95   0.0000       3.078816        83.7788 
  96   0.0000       3.103745        84.4572 
  97   0.0000       3.187288        86.7305 
  98   0.0000       3.236111        88.0590 
  99   0.0000       3.243281        88.2542 
 100   0.0000       3.359845        91.4260 
 101   0.0000       3.372281        91.7644 
 102   0.0000       3.723970       101.3344 

                    ********************************
                    * MULLIKEN POPULATION ANALYSIS *
                    ********************************

-----------------------
MULLIKEN ATOMIC CHARGES
-----------------------
   0 C :    0.207927
   1 C :    0.125055
   2 H :   -0.146120
   3 H :   -0.162415
   4 O :   -0.865120
   5 H :   -0.067239
   6 H :   -0.028624
   7 H :   -0.063465
Sum of atomic charges:   -1.0000000

--------------------------------
MULLIKEN REDUCED ORBITAL CHARGES
--------------------------------
  0 C s       :     2.748378  s :     2.748378
      pz      :     0.877837  p :     2.843756
      px      :     0.980134
      py      :     0.985785
      dz2     :    -0.012136  d :     0.199939
      dxz     :     0.064083
      dyz     :     0.040939
      dx2y2   :     0.056033
      dxy     :     0.051021
  1 C s       :     2.953722  s :     2.953722
      pz      :     0.871922  p :     2.628289
      px      :     0.869229
      py      :     0.887138
      dz2     :     0.009978  d :     0.292934
      dxz     :     0.054653
      dyz     :     0.074555
      dx2y2   :     0.076543
      dxy     :     0.077205
  2 H s       :     1.051162  s :     1.051162
      pz      :     0.041634  p :     0.094958
      px      :    -0.001554
      py      :     0.054877
  3 H s       :     1.067077  s :     1.067077
      pz      :     0.076945  p :     0.095338
      px      :    -0.003911
      py      :     0.022303
  4 O s       :     3.879974  s :     3.879974
      pz      :     1.868260  p :     4.949581
      px      :     1.424454
      py      :     1.656868
      dz2     :     0.002278  d :     0.035565
      dxz     :     0.004306
      dyz     :     0.011970
      dx2y2   :     0.005217
      dxy     :     0.011793
  5 H s       :     0.981563  s :     0.981563
      pz      :     0.058087  p :     0.085675
      px      :     0.005035
      py      :     0.022553
  6 H s       :     0.951003  s :     0.951003
      pz      :    -0.019579  p :     0.077621
      px      :     0.036276
      py      :     0.060924
  7 H s       :     0.981696  s :     0.981696
      pz      :     0.039091  p :     0.081768
      px      :     0.006901
      py      :     0.035777


                     *******************************
                     * LOEWDIN POPULATION ANALYSIS *
                     *******************************

----------------------
LOEWDIN ATOMIC CHARGES
----------------------
   0 C :    0.055138
   1 C :   -0.270463
   2 H :   -0.037791
   3 H :   -0.039142
   4 O :   -0.549741
   5 H :   -0.044715
   6 H :   -0.067436
   7 H :   -0.045849

-------------------------------
LOEWDIN REDUCED ORBITAL CHARGES
-------------------------------
  0 C s       :     2.756883  s :     2.756883
      pz      :     0.926927  p :     2.753934
      px      :     0.906039
      py      :     0.920968
      dz2     :     0.058189  d :     0.434045
      dxz     :     0.062689
      dyz     :     0.120896
      dx2y2   :     0.080319
      dxy     :     0.111952
  1 C s       :     2.721192  s :     2.721192
      pz      :     0.881189  p :     2.584206
      px      :     0.845432
      py      :     0.857586
      dz2     :     0.097952  d :     0.965065
      dxz     :     0.167342
      dyz     :     0.219369
      dx2y2   :     0.248756
      dxy     :     0.231647
  2 H s       :     0.756911  s :     0.756911
      pz      :     0.108163  p :     0.280881
      px      :     0.067515
      py      :     0.105203
  3 H s       :     0.756575  s :     0.756575
      pz      :     0.132805  p :     0.282567
      px      :     0.064683
      py      :     0.085079
  4 O s       :     3.538000  s :     3.538000
      pz      :     1.689836  p :     4.754917
      px      :     1.501615
      py      :     1.563466
      dz2     :     0.025450  d :     0.256824
      dxz     :     0.050748
      dyz     :     0.037274
      dx2y2   :     0.076643
      dxy     :     0.066709
  5 H s       :     0.746244  s :     0.746244
      pz      :     0.124323  p :     0.298471
      px      :     0.079854
      py      :     0.094295
  6 H s       :     0.755970  s :     0.755970
      pz      :     0.084198  p :     0.311466
      px      :     0.125493
      py      :     0.101775
  7 H s       :     0.747485  s :     0.747485
      pz      :     0.113709  p :     0.298364
      px      :     0.079480
      py      :     0.105175


                      *****************************
                      * MAYER POPULATION ANALYSIS *
                      *****************************

  NA   - Mulliken gross atomic population
  ZA   - Total nuclear charge
  QA   - Mulliken gross atomic charge
  VA   - Mayer's total valence
  BVA  - Mayer's bonded valence
  FA   - Mayer's free valence

  ATOM       NA         ZA         QA         VA         BVA        FA
  0 C      5.7921     6.0000     0.2079     4.6005     4.6005    -0.0000
  1 C      5.8749     6.0000     0.1251     4.7666     4.7666    -0.0000
  2 H      1.1461     1.0000    -0.1461     1.1912     1.1912     0.0000
  3 H      1.1624     1.0000    -0.1624     1.1964     1.1964    -0.0000
  4 O      8.8651     8.0000    -0.8651     1.2736     1.2736    -0.0000
  5 H      1.0672     1.0000    -0.0672     1.0862     1.0862     0.0000
  6 H      1.0286     1.0000    -0.0286     1.0940     1.0940     0.0000
  7 H      1.0635     1.0000    -0.0635     1.0668     1.0668     0.0000

  Mayer bond orders larger than 0.100000
B(  0-C ,  1-C ) :   1.2171 B(  0-C ,  2-H ) :   0.1557 B(  0-C ,  3-H ) :   0.1551 
B(  0-C ,  4-O ) :   0.3098 B(  0-C ,  5-H ) :   0.9149 B(  0-C ,  6-H ) :   0.9336 
B(  0-C ,  7-H ) :   0.9144 B(  1-C ,  2-H ) :   0.9708 B(  1-C ,  3-H ) :   0.9799 
B(  1-C ,  4-O ) :   1.0925 B(  1-C ,  5-H ) :   0.1901 B(  1-C ,  6-H ) :   0.1366 
B(  1-C ,  7-H ) :   0.1798 

-------
TIMINGS
-------

Total SCF time: 0 days 0 hours 0 min 2 sec 

Total time                  ....       2.397 sec
Sum of individual times     ....       2.260 sec  ( 94.3%)

Fock matrix formation       ....       1.872 sec  ( 78.1%)
  Split-RI-J                ....       0.316 sec  ( 16.9% of F)
  XC integration            ....       1.529 sec  ( 81.7% of F)
    Basis function eval.    ....       0.541 sec  ( 35.4% of XC)
    Density eval.           ....       0.311 sec  ( 20.3% of XC)
    XC-Functional eval.     ....       0.151 sec  (  9.9% of XC)
    XC-Potential eval.      ....       0.419 sec  ( 27.4% of XC)
Diagonalization             ....       0.028 sec  (  1.2%)
Density matrix formation    ....       0.002 sec  (  0.1%)
Population analysis         ....       0.003 sec  (  0.1%)
Initial guess               ....       0.044 sec  (  1.9%)
Orbital Transformation      ....       0.000 sec  (  0.0%)
Orbital Orthonormalization  ....       0.000 sec  (  0.0%)
DIIS solution               ....       0.023 sec  (  1.0%)
SOSCF solution              ....       0.019 sec  (  0.8%)
Grid generation             ....       0.268 sec  ( 11.2%)

Maximum memory used throughout the entire SCF-calculation: 12.3 MB


-------------------------------------------------------------------------------
                          DFT DISPERSION CORRECTION                            
                                                                               
                              DFTD3 V3.1  Rev 1                                
                          USING Becke-Johnson damping                          
-------------------------------------------------------------------------------
The PBE functional is recognized
Active option DFTDOPT                   ...         4   

molecular C6(AA) [au] = 434.676054 


            DFT-D V3
 parameters
 s6 scaling factor         :     1.0000 
 a1 scaling factor         :     0.4289 
 s8 scaling factor         :     0.7875 
 a2 scaling factor         :     4.4407 
 ad hoc parameters k1-k3   :    16.0000     1.3333    -4.0000 

 Edisp/kcal,au: -2.362186507318  -0.003764383412 
 E6   /kcal   :  -1.722274135 
 E8   /kcal   :  -0.639912372 
 % E8         :  27.089832667 

-------------------------   ----------------
Dispersion correction           -0.003764383
-------------------------   ----------------


-------------------------   --------------------
FINAL SINGLE POINT ENERGY      -154.133900771820
-------------------------   --------------------


                            ***************************************
                            *     ORCA property calculations      *
                            ***************************************

                                    ---------------------
                                    Active property flags
                                    ---------------------
   (+) Dipole Moment


------------------------------------------------------------------------------
                       ORCA ELECTRIC PROPERTIES CALCULATION
------------------------------------------------------------------------------

Dipole Moment Calculation                       ... on
Quadrupole Moment Calculation                   ... off
Polarizability Calculation                      ... off
GBWName                                         ... SVPD_PBE_A_wt_dlpno_neg.gbw
Electron density file                           ... SVPD_PBE_A_wt_dlpno_neg.scfp
The origin for moment calculation is the CENTER OF MASS  = ( 2.222342,  3.653829 -7.231598)

-------------
DIPOLE MOMENT
-------------
                                X             Y             Z
Electronic contribution:      2.90337      -0.54376      -0.26168
Nuclear contribution   :     -4.28298       0.81046       0.39340
                        -----------------------------------------
Total Dipole Moment    :     -1.37961       0.26670       0.13172
                        -----------------------------------------
Magnitude (a.u.)       :      1.41131
Magnitude (Debye)      :      3.58727



--------------------
Rotational spectrum 
--------------------
 
Rotational constants in cm-1:     1.266793     0.328147     0.288309 
Rotational constants in MHz : 37977.512300  9837.594308  8643.275638 

 Dipole components along the rotational axes: 
x,y,z [a.u.] :    -1.365671     0.355976    -0.005167 
x,y,z [Debye]:    -3.471260     0.904819    -0.013132 

 

Timings for individual modules:

Sum of individual times         ...        6.632 sec (=   0.111 min)
GTO integral calculation        ...        2.343 sec (=   0.039 min)  35.3 %
SCF iterations                  ...        4.288 sec (=   0.071 min)  64.7 %
                             ****ORCA TERMINATED NORMALLY****
TOTAL RUN TIME: 0 days 0 hours 0 minutes 7 seconds 215 msec
