
                                        *****************
                                        * O   R   C   A *
                                        *****************

                                            #,                                       
                                            ###                                      
                                            ####                                     
                                            #####                                    
                                            ######                                   
                                           ########,                                 
                                     ,,################,,,,,                         
                               ,,#################################,,                 
                          ,,##########################################,,             
                       ,#########################################, ''#####,          
                    ,#############################################,,   '####,        
                  ,##################################################,,,,####,       
                ,###########''''           ''''###############################       
              ,#####''   ,,,,##########,,,,          '''####'''          '####       
            ,##' ,,,,###########################,,,                        '##       
           ' ,,###''''                  '''############,,,                           
         ,,##''                                '''############,,,,        ,,,,,,###''
      ,#''                                            '''#######################'''  
     '                                                          ''''####''''         
             ,#######,   #######,   ,#######,      ##                                
            ,#'     '#,  ##    ##  ,#'     '#,    #''#        ######   ,####,        
            ##       ##  ##   ,#'  ##            #'  '#       #        #'  '#        
            ##       ##  #######   ##           ,######,      #####,   #    #        
            '#,     ,#'  ##    ##  '#,     ,#' ,#      #,         ##   #,  ,#        
             '#######'   ##     ##  '#######'  #'      '#     #####' # '####'        



                  #######################################################
                  #                        -***-                        #
                  #          Department of theory and spectroscopy      #
                  #    Directorship and core code : Frank Neese         #
                  #        Max Planck Institute fuer Kohlenforschung    #
                  #                Kaiser Wilhelm Platz 1               #
                  #                 D-45470 Muelheim/Ruhr               #
                  #                      Germany                        #
                  #                                                     #
                  #                  All rights reserved                #
                  #                        -***-                        #
                  #######################################################


                         Program Version 5.0.0 -  RELEASE  -
                                (SVN: $Rev: 19529$)
                ($Date: 2021-06-28 11:36:33 +0200 (Mo, 28 Jun 2021) $)


 With contributions from (in alphabetic order):
   Daniel Aravena         : Magnetic Suceptibility
   Michael Atanasov       : Ab Initio Ligand Field Theory (pilot matlab implementation)
   Alexander A. Auer      : GIAO ZORA, VPT2 properties, NMR spectrum
   Ute Becker             : Parallelization
   Giovanni Bistoni       : ED, misc. LED, open-shell LED, HFLD
   Martin Brehm           : Molecular dynamics
   Dmytro Bykov           : SCF Hessian
   Vijay G. Chilkuri      : MRCI spin determinant printing, contributions to CSF-ICE
   Dipayan Datta          : RHF DLPNO-CCSD density
   Achintya Kumar Dutta   : EOM-CC, STEOM-CC
   Dmitry Ganyushin       : Spin-Orbit,Spin-Spin,Magnetic field MRCI
   Miquel Garcia          : C-PCM Hessian, Gaussian charge scheme
   Yang Guo               : DLPNO-NEVPT2, F12-NEVPT2, CIM, IAO-localization
   Andreas Hansen         : Spin unrestricted coupled pair/coupled cluster methods
   Benjamin Helmich-Paris : MC-RPA, TRAH-SCF, COSX integrals
   Lee Huntington         : MR-EOM, pCC
   Robert Izsak           : Overlap fitted RIJCOSX, COSX-SCS-MP3, EOM
   Marcus Kettner         : VPT2
   Christian Kollmar      : KDIIS, OOCD, Brueckner-CCSD(T), CCSD density, CASPT2, CASPT2-K
   Simone Kossmann        : Meta GGA functionals, TD-DFT gradient, OOMP2, MP2 Hessian
   Martin Krupicka        : Initial AUTO-CI
   Lucas Lang             : DCDCAS
   Marvin Lechner         : AUTO-CI (C++ implementation), FIC-MRCC
   Dagmar Lenk            : GEPOL surface, SMD
   Dimitrios Liakos       : Extrapolation schemes; Compound Job, initial MDCI parallelization
   Dimitrios Manganas     : Further ROCIS development; embedding schemes
   Dimitrios Pantazis     : SARC Basis sets
   Anastasios Papadopoulos: AUTO-CI, single reference methods and gradients
   Taras Petrenko         : DFT Hessian,TD-DFT gradient, ASA, ECA, R-Raman, ABS, FL, XAS/XES, NRVS
   Peter Pinski           : DLPNO-MP2, DLPNO-MP2 Gradient
   Christoph Reimann      : Effective Core Potentials
   Marius Retegan         : Local ZFS, SOC
   Christoph Riplinger    : Optimizer, TS searches, QM/MM, DLPNO-CCSD(T), (RO)-DLPNO pert. Triples
   Tobias Risthaus        : Range-separated hybrids, TD-DFT gradient, RPA, STAB
   Michael Roemelt        : Original ROCIS implementation
   Masaaki Saitow         : Open-shell DLPNO-CCSD energy and density
   Barbara Sandhoefer     : DKH picture change effects
   Avijit Sen             : IP-ROCIS
   Kantharuban Sivalingam : CASSCF convergence, NEVPT2, FIC-MRCI
   Bernardo de Souza      : ESD, SOC TD-DFT
   Georgi Stoychev        : AutoAux, RI-MP2 NMR
   Willem Van den Heuvel  : Paramagnetic NMR
   Boris Wezisla          : Elementary symmetry handling
   Frank Wennmohs         : Technical directorship


 We gratefully acknowledge several colleagues who have allowed us to
 interface, adapt or use parts of their codes:
   Stefan Grimme, W. Hujo, H. Kruse, P. Pracht,  : VdW corrections, initial TS optimization,
                  C. Bannwarth, S. Ehlert          DFT functionals, gCP, sTDA/sTD-DF
   Ed Valeev, F. Pavosevic, A. Kumar             : LibInt (2-el integral package), F12 methods
   Garnet Chan, S. Sharma, J. Yang, R. Olivares  : DMRG
   Ulf Ekstrom                                   : XCFun DFT Library
   Mihaly Kallay                                 : mrcc  (arbitrary order and MRCC methods)
   Jiri Pittner, Ondrej Demel                    : Mk-CCSD
   Frank Weinhold                                : gennbo (NPA and NBO analysis)
   Christopher J. Cramer and Donald G. Truhlar   : smd solvation model
   Lars Goerigk                                  : TD-DFT with DH, B97 family of functionals
   V. Asgeirsson, H. Jonsson                     : NEB implementation
   FAccTs GmbH                                   : IRC, NEB, NEB-TS, DLPNO-Multilevel, CI-OPT
                                                   MM, QMMM, 2- and 3-layer-ONIOM, Crystal-QMMM,
                                                   LR-CPCM, SF, NACMEs, symmetry and pop. for TD-DFT,
                                                   nearIR, NL-DFT gradient (VV10), updates on ESD,
                                                   ML-optimized integration grids
   S Lehtola, MJT Oliveira, MAL Marques          : LibXC Library
   Liviu Ungur et al                             : ANISO software


 Your calculation uses the libint2 library for the computation of 2-el integrals
 For citations please refer to: http://libint.valeyev.net

 Your ORCA version has been built with support for libXC version: 5.1.0
 For citations please refer to: https://tddft.org/programs/libxc/

 This ORCA versions uses:
   CBLAS   interface :  Fast vector & matrix operations
   LAPACKE interface :  Fast linear algebra routines
   SCALAPACK package :  Parallel linear algebra routines
   Shared memory     :  Shared parallel matrices
   BLAS/LAPACK       :  OpenBLAS 0.3.15  USE64BITINT DYNAMIC_ARCH NO_AFFINITY Haswell SINGLE_THREADED
        Core in use  :  Haswell
   Copyright (c) 2011-2014, The OpenBLAS Project


Your calculation utilizes the atom-pairwise dispersion correction
with the Becke-Johnson damping scheme (D3BJ)
Cite in your paper:
S.Grimme, S.Ehrlich, L.Goerigk, J Comput Chem, (2011), 32, 1456–1465 
S.Grimme, J.Antony, S.Ehrlich and H.Krieg, J.Chem.Phys., 132, (2010), 154104 
   

================================================================================

----- Orbital basis set information -----
Your calculation utilizes the basis: def2-SVPD
   F. Weigend and R. Ahlrichs, Phys. Chem. Chem. Phys. 7, 3297 (2005).
   D. Rappoport and F. Furche, J. Chem. Phys. 133 134105 (2010).

----- AuxJ basis set information -----
Your calculation utilizes the auxiliary basis: def2/J
   F. Weigend, Phys. Chem. Chem. Phys. 8, 1057 (2006).

================================================================================
                                        WARNINGS
                       Please study these warnings very carefully!
================================================================================



WARNING: Found flag for RIJCOSX approximation but no HF exchange needed!
  ===> : RIJCOSX  will be disabled and Split-RI-J is turned on

INFO   : the flag for use of the SHARK integral package has been found!

================================================================================
                                       INPUT FILE
================================================================================
NAME = 14Feb_SVPD_TPSS_C1_wt_wb97_typ1_pos.com
|  1> !TPSS D3BJ RIJCOSX def2-SVPD def2/J TightSCF 
|  2> *xyz 0 1
|  3> C          1.64703       -2.34528       -5.02041
|  4> C          0.21763       -1.81402       -4.92439
|  5> C          2.20996       -2.81239       -3.66571
|  6> H          2.30838       -1.58870       -5.45713
|  7> H          1.67429       -3.20348       -5.69739
|  8> C          2.48901       -1.66851       -2.73754
|  9> C          3.59631       -0.94761       -2.95225
| 10> N          1.66394       -1.41369       -1.77781
| 11> H          0.81164       -1.96318       -1.70275
| 12> H          1.84550       -0.63508       -1.15875
| 13> H          4.20535       -1.17600       -3.73383
| 14> H          3.81723       -0.12585       -2.40604
| 15> H          3.14311       -3.36280       -3.81152
| 16> H          1.48768       -3.45893       -3.16521
| 17> H         -0.11459       -1.50684       -5.89401
| 18> H          0.19193       -0.97796       -4.25713
| 19> H         -0.42543       -2.58523       -4.55479
| 20> *
| 21> 
| 22> %MaxCore 64000
| 23> %pal nprocs 4
| 24> end  
| 25> 
| 26> %scf
| 27>   MaxIter 150
| 28> end
| 29> 
| 30> 
| 31>                          ****END OF INPUT****
================================================================================

                       ****************************
                       * Single Point Calculation *
                       ****************************

---------------------------------
CARTESIAN COORDINATES (ANGSTROEM)
---------------------------------
  C      1.647030   -2.345280   -5.020410
  C      0.217630   -1.814020   -4.924390
  C      2.209960   -2.812390   -3.665710
  H      2.308380   -1.588700   -5.457130
  H      1.674290   -3.203480   -5.697390
  C      2.489010   -1.668510   -2.737540
  C      3.596310   -0.947610   -2.952250
  N      1.663940   -1.413690   -1.777810
  H      0.811640   -1.963180   -1.702750
  H      1.845500   -0.635080   -1.158750
  H      4.205350   -1.176000   -3.733830
  H      3.817230   -0.125850   -2.406040
  H      3.143110   -3.362800   -3.811520
  H      1.487680   -3.458930   -3.165210
  H     -0.114590   -1.506840   -5.894010
  H      0.191930   -0.977960   -4.257130
  H     -0.425430   -2.585230   -4.554790

----------------------------
CARTESIAN COORDINATES (A.U.)
----------------------------
  NO LB      ZA    FRAG     MASS         X           Y           Z
   0 C     6.0000    0    12.011    3.112436   -4.431937   -9.487200
   1 C     6.0000    0    12.011    0.411261   -3.428001   -9.305748
   2 C     6.0000    0    12.011    4.176219   -5.314647   -6.927188
   3 H     1.0000    0     1.008    4.362206   -3.002208  -10.312481
   4 H     1.0000    0     1.008    3.163950   -6.053700  -10.766507
   5 C     6.0000    0    12.011    4.703547   -3.153027   -5.173201
   6 C     6.0000    0    12.011    6.796041   -1.790723   -5.578944
   7 N     7.0000    0    14.007    3.144391   -2.671487   -3.359574
   8 H     1.0000    0     1.008    1.533777   -3.709873   -3.217731
   9 H     1.0000    0     1.008    3.487490   -1.200127   -2.189720
  10 H     1.0000    0     1.008    7.946960   -2.222318   -7.055916
  11 H     1.0000    0     1.008    7.213519   -0.237822   -4.546757
  12 H     1.0000    0     1.008    5.939617   -6.354771   -7.202729
  13 H     1.0000    0     1.008    2.811308   -6.536430   -5.981380
  14 H     1.0000    0     1.008   -0.216544   -2.847515  -11.138065
  15 H     1.0000    0     1.008    0.362695   -1.848077   -8.044810
  16 H     1.0000    0     1.008   -0.803946   -4.885377   -8.607306

--------------------------------
INTERNAL COORDINATES (ANGSTROEM)
--------------------------------
 C      0   0   0     0.000000000000     0.00000000     0.00000000
 C      1   0   0     1.527953333057     0.00000000     0.00000000
 C      1   2   0     1.539575924403   113.09461973     0.00000000
 H      1   2   3     1.095683109891   110.46442509   236.42011604
 H      1   2   3     1.093413127779   109.58044295   119.66984717
 C      3   1   2     1.499276460764   112.41487602   289.19821313
 C      6   3   1     1.338622607048   117.74534069   282.67999189
 N      6   3   1     1.291028818501   119.46262227   102.41240062
 H      8   6   3     1.016852277226   118.93875800   356.56161909
 H      8   6   3     1.011154216378   119.49556415   180.77765573
 H      7   6   3     1.016837750135   119.85311119     0.99564669
 H      7   6   3     1.011158003529   122.12376033   175.86157171
 H      3   1   2     1.093151703425   110.33565258   168.66659392
 H      3   1   2     1.090964078235   109.96279536    48.22030027
 H      2   1   3     1.069996553826   109.47109185   179.99986978
 H      2   1   3     1.069996598686   109.47132587    59.99996316
 H      2   1   3     1.069997751259   109.47111115   299.99992829

---------------------------
INTERNAL COORDINATES (A.U.)
---------------------------
 C      0   0   0     0.000000000000     0.00000000     0.00000000
 C      1   0   0     2.887413344890     0.00000000     0.00000000
 C      1   2   0     2.909376859499   113.09461973     0.00000000
 H      1   2   3     2.070541007257   110.46442509   236.42011604
 H      1   2   3     2.066251362737   109.58044295   119.66984717
 C      3   1   2     2.833221909878   112.41487602   289.19821313
 C      6   3   1     2.529630123996   117.74534069   282.67999189
 N      6   3   1     2.439690897967   119.46262227   102.41240062
 H      8   6   3     1.921572322612   118.93875800   356.56161909
 H      8   6   3     1.910804548115   119.49556415   180.77765573
 H      7   6   3     1.921544870388   119.85311119     0.99564669
 H      7   6   3     1.910811704792   122.12376033   175.86157171
 H      3   1   2     2.065757342302   110.33565258   168.66659392
 H      3   1   2     2.061623329811   109.96279536    48.22030027
 H      2   1   3     2.022000450971   109.47109185   179.99986978
 H      2   1   3     2.022000535744   109.47132587    59.99996316
 H      2   1   3     2.022002713792   109.47111115   299.99992829

---------------------
BASIS SET INFORMATION
---------------------
There are 3 groups of distinct atoms

 Group   1 Type C   : 8s4p2d contracted to 4s2p2d pattern {5111/31/11}
 Group   2 Type H   : 4s2p contracted to 2s2p pattern {31/11}
 Group   3 Type N   : 8s4p2d contracted to 4s2p2d pattern {5111/31/11}

Atom   0C    basis set group =>   1
Atom   1C    basis set group =>   1
Atom   2C    basis set group =>   1
Atom   3H    basis set group =>   2
Atom   4H    basis set group =>   2
Atom   5C    basis set group =>   1
Atom   6C    basis set group =>   1
Atom   7N    basis set group =>   3
Atom   8H    basis set group =>   2
Atom   9H    basis set group =>   2
Atom  10H    basis set group =>   2
Atom  11H    basis set group =>   2
Atom  12H    basis set group =>   2
Atom  13H    basis set group =>   2
Atom  14H    basis set group =>   2
Atom  15H    basis set group =>   2
Atom  16H    basis set group =>   2
---------------------------------
AUXILIARY/J BASIS SET INFORMATION
---------------------------------
There are 3 groups of distinct atoms

 Group   1 Type C   : 12s5p4d2f1g contracted to 6s4p3d1f1g pattern {711111/2111/211/2/1}
 Group   2 Type H   : 5s2p1d contracted to 3s1p1d pattern {311/2/1}
 Group   3 Type N   : 12s5p4d2f1g contracted to 6s4p3d1f1g pattern {711111/2111/211/2/1}

Atom   0C    basis set group =>   1
Atom   1C    basis set group =>   1
Atom   2C    basis set group =>   1
Atom   3H    basis set group =>   2
Atom   4H    basis set group =>   2
Atom   5C    basis set group =>   1
Atom   6C    basis set group =>   1
Atom   7N    basis set group =>   3
Atom   8H    basis set group =>   2
Atom   9H    basis set group =>   2
Atom  10H    basis set group =>   2
Atom  11H    basis set group =>   2
Atom  12H    basis set group =>   2
Atom  13H    basis set group =>   2
Atom  14H    basis set group =>   2
Atom  15H    basis set group =>   2
Atom  16H    basis set group =>   2


           ************************************************************
           *        Program running with 4 parallel MPI-processes     *
           *              working on a common directory               *
           ************************************************************
------------------------------------------------------------------------------
                           ORCA GTO INTEGRAL CALCULATION
                           -- RI-GTO INTEGRALS CHOSEN --
------------------------------------------------------------------------------
------------------------------------------------------------------------------
                   ___                                                        
                  /   \      - P O W E R E D   B Y -                         
                 /     \                                                     
                 |  |  |   _    _      __       _____    __    __             
                 |  |  |  | |  | |    /  \     |  _  \  |  |  /  |          
                  \  \/   | |  | |   /    \    | | | |  |  | /  /          
                 / \  \   | |__| |  /  /\  \   | |_| |  |  |/  /          
                |  |  |   |  __  | /  /__\  \  |    /   |      \           
                |  |  |   | |  | | |   __   |  |    \   |  |\   \          
                \     /   | |  | | |  |  |  |  | |\  \  |  | \   \       
                 \___/    |_|  |_| |__|  |__|  |_| \__\ |__|  \__/        
                                                                              
                      - O R C A' S   B I G   F R I E N D -                    
                                      &                                       
                       - I N T E G R A L  F E E D E R -                       
                                                                              
 v1 FN, 2020, v2 2021                                                         
------------------------------------------------------------------------------


Reading SHARK input file 14Feb_SVPD_TPSS_C1_wt_wb97_typ1_pos.SHARKINP.tmp ... ok
----------------------
SHARK INTEGRAL PACKAGE
----------------------

Number of atoms                             ...     17
Number of basis functions                   ...    208
Number of shells                            ...     92
Maximum angular momentum                    ...      2
Integral batch strategy                     ... SHARK/LIBINT Hybrid
RI-J (if used) integral strategy            ... SPLIT-RIJ (Revised 2003 algorithm where possible)
Printlevel                                  ...      1
Contraction scheme used                     ... SEGMENTED contraction
Coulomb Range Separation                    ... NOT USED
Exchange Range Separation                   ... NOT USED
Finite Nucleus Model                        ... NOT USED
Auxiliary Coulomb fitting basis             ... AVAILABLE
   # of basis functions in Aux-J            ...    415
   # of shells in Aux-J                     ...    145
   Maximum angular momentum in Aux-J        ...      4
Auxiliary J/K fitting basis                 ... NOT available
Auxiliary Correlation fitting basis         ... NOT available
Auxiliary 'external' fitting basis          ... NOT available
Integral threshold                          ...     2.500000e-11
Primitive cut-off                           ...     2.500000e-12
Primitive pair pre-selection threshold      ...     2.500000e-12

Calculating pre-screening integrals         ... done (  0.0 sec) Dimension = 92
Organizing shell pair data                  ... done (  0.0 sec)
Shell pair information
Total number of shell pairs                 ...      4278
Shell pairs after pre-screening             ...      4227
Total number of primitive shell pairs       ...     11436
Primitive shell pairs kept                  ...      9442
          la=0 lb=0:   1065 shell pairs
          la=1 lb=0:   1542 shell pairs
          la=1 lb=1:    588 shell pairs
          la=2 lb=0:    547 shell pairs
          la=2 lb=1:    407 shell pairs
          la=2 lb=2:     78 shell pairs

Calculating one electron integrals          ... done (  0.0 sec)
Calculating RI/J V-Matrix + Cholesky decomp.... done (  0.0 sec)
Calculating Nuclear repulsion               ... done (  0.0 sec) ENN=    246.546109910948 Eh

SHARK setup successfully completed in   0.2 seconds

Maximum memory used throughout the entire GTOINT-calculation: 9.0 MB


           ************************************************************
           *        Program running with 4 parallel MPI-processes     *
           *              working on a common directory               *
           ************************************************************
-------------------------------------------------------------------------------
                                 ORCA SCF
-------------------------------------------------------------------------------

------------
SCF SETTINGS
------------
Hamiltonian:
 Density Functional     Method          .... DFT(GTOs)
 Exchange Functional    Exchange        .... TPSS
 Correlation Functional Correlation     .... TPSS
 LDA part of GGA corr.  LDAOpt          .... PW91-LDA
 Gradients option       PostSCFGGA      .... off
   Density functional embedding theory  .... OFF
   NL short-range parameter             ....  5.000000
 RI-approximation to the Coulomb term is turned on
   Number of AuxJ basis functions       .... 415


General Settings:
 Integral files         IntName         .... 14Feb_SVPD_TPSS_C1_wt_wb97_typ1_pos
 Hartree-Fock type      HFTyp           .... RHF
 Total Charge           Charge          ....    0
 Multiplicity           Mult            ....    1
 Number of Electrons    NEL             ....   48
 Basis Dimension        Dim             ....  208
 Nuclear Repulsion      ENuc            ....    246.5461099109 Eh

Convergence Acceleration:
 DIIS                   CNVDIIS         .... on
   Start iteration      DIISMaxIt       ....    12
   Startup error        DIISStart       ....  0.200000
   # of expansion vecs  DIISMaxEq       ....     5
   Bias factor          DIISBfac        ....   1.050
   Max. coefficient     DIISMaxC        ....  10.000
 Trust-Rad. Augm. Hess. CNVTRAH         .... auto
   Auto Start mean grad. ratio tolernc. ....  1.125000
   Auto Start start iteration           ....    20
   Auto Start num. interpolation iter.  ....    10
   Max. Number of Micro iterations      ....    16
   Max. Number of Macro iterations      .... Maxiter - #DIIS iter
   Number of Davidson start vectors     ....     2
   Converg. threshold I  (grad. norm)   ....   1.000e-05
   Converg. threshold II (energy diff.) ....   1.000e-08
   Grad. Scal. Fac. for Micro threshold ....   0.100
   Minimum threshold for Micro iter.    ....   0.010
   NR start threshold (gradient norm)   ....   0.001
   Initial trust radius                 ....   0.400
   Minimum AH scaling param. (alpha)    ....   1.000
   Maximum AH scaling param. (alpha)    .... 1000.000
   Orbital update algorithm             .... Taylor
   White noise on init. David. guess    .... on
   Maximum white noise                  ....   0.010
   Quad. conv. algorithm                .... NR
 SOSCF                  CNVSOSCF        .... on
   Start iteration      SOSCFMaxIt      ....   150
   Startup grad/error   SOSCFStart      ....  0.003300
 Level Shifting         CNVShift        .... on
   Level shift para.    LevelShift      ....    0.2500
   Turn off err/grad.   ShiftErr        ....    0.0010
 Zerner damping         CNVZerner       .... off
 Static damping         CNVDamp         .... on
   Fraction old density DampFac         ....    0.7000
   Max. Damping (<1)    DampMax         ....    0.9800
   Min. Damping (>=0)   DampMin         ....    0.0000
   Turn off err/grad.   DampErr         ....    0.1000
 Fernandez-Rico         CNVRico         .... off

SCF Procedure:
 Maximum # iterations   MaxIter         ....   150
 SCF integral mode      SCFMode         .... Direct
   Integral package                     .... SHARK and LIBINT hybrid scheme
 Reset frequency        DirectResetFreq ....    20
 Integral Threshold     Thresh          ....  2.500e-11 Eh
 Primitive CutOff       TCut            ....  2.500e-12 Eh

Convergence Tolerance:
 Convergence Check Mode ConvCheckMode   .... Total+1el-Energy
 Convergence forced     ConvForced      .... 0
 Energy Change          TolE            ....  1.000e-08 Eh
 1-El. energy change                    ....  1.000e-05 Eh
 Orbital Gradient       TolG            ....  1.000e-05
 Orbital Rotation angle TolX            ....  1.000e-05
 DIIS Error             TolErr          ....  5.000e-07


Diagonalization of the overlap matrix:
Smallest eigenvalue                        ... 5.116e-05
Time for diagonalization                   ...    0.012 sec
Threshold for overlap eigenvalues          ... 1.000e-08
Number of eigenvalues below threshold      ... 0
Time for construction of square roots      ...    0.007 sec
Total time needed                          ...    0.020 sec

Time for model grid setup =    0.100 sec

------------------------------
INITIAL GUESS: MODEL POTENTIAL
------------------------------
Loading Hartree-Fock densities                     ... done
Calculating cut-offs                               ... done
Initializing the effective Hamiltonian             ... done
Setting up the integral package (SHARK)            ... done
Starting the Coulomb interaction                   ... done (   0.1 sec)
Reading the grid                                   ... done
Mapping shells                                     ... done
Starting the XC term evaluation                    ... done (   0.1 sec)
  promolecular density results
     # of electrons  =     48.001686212
     EX              =    -35.422434556
     EC              =     -1.563215659
     EX+EC           =    -36.985650215
Transforming the Hamiltonian                       ... done (   0.0 sec)
Diagonalizing the Hamiltonian                      ... done (   0.0 sec)
Back transforming the eigenvectors                 ... done (   0.0 sec)
Now organizing SCF variables                       ... done
                      ------------------
                      INITIAL GUESS DONE (   0.3 sec)
                      ------------------
-------------------
DFT GRID GENERATION
-------------------

General Integration Accuracy     IntAcc      ... 4.388
Radial Grid Type                 RadialGrid  ... OptM3 with GC (2021)
Angular Grid (max. ang.)         AngularGrid ... 4 (Lebedev-302)
Angular grid pruning method      GridPruning ... 4 (adaptive)
Weight generation scheme         WeightScheme... Becke
Basis function cutoff            BFCut       ... 1.0000e-11
Integration weight cutoff        WCut        ... 1.0000e-14
Angular grids for H and He will be reduced by one unit
Partially contracted basis set               ... off
Rotationally invariant grid construction     ... off

Total number of grid points                  ...    73486
Total number of batches                      ...     1158
Average number of points per batch           ...       63
Average number of grid points per atom       ...     4323
Time for grid setup =    0.451 sec

--------------
SCF ITERATIONS
--------------
ITER       Energy         Delta-E        Max-DP      RMS-DP      [F,P]     Damp
               ***  Starting incremental Fock matrix formation  ***
  0   -251.4953331928   0.000000000000 0.10309226  0.00311342  0.2050633 0.7000
  1   -251.6172762510  -0.121943058224 0.07439545  0.00235412  0.1006956 0.7000
                               ***Turning on DIIS***
  2   -251.6625441071  -0.045267856116 0.16157632  0.00461340  0.0301845 0.0000
  3   -251.7204333180  -0.057889210860 0.06768215  0.00153815  0.0658483 0.0000
  4   -251.7437800006  -0.023346682666 0.04426640  0.00079877  0.0138267 0.0000
  5   -251.7452144861  -0.001434485433 0.01850841  0.00032649  0.0042687 0.0000
                      *** Initiating the SOSCF procedure ***
                           *** Shutting down DIIS ***
                      *** Re-Reading the Fockian *** 
                      *** Removing any level shift *** 
ITER      Energy       Delta-E        Grad      Rot      Max-DP    RMS-DP
  6   -251.74533769  -0.0001232046  0.000787  0.000787  0.010364  0.000163
               *** Restarting incremental Fock matrix formation ***
  7   -251.74535450  -0.0000168047  0.000138  0.000720  0.007616  0.000133
  8   -251.74535512  -0.0000006198  0.000275  0.001053  0.002096  0.000039
  9   -251.74535677  -0.0000016568  0.000263  0.000989  0.003042  0.000050
 10   -251.74535697  -0.0000001946  0.000128  0.000202  0.000280  0.000010
 11   -251.74535735  -0.0000003838  0.000025  0.000161  0.000828  0.000014
 12   -251.74535738  -0.0000000321  0.000017  0.000047  0.000232  0.000004
 13   -251.74535740  -0.0000000171  0.000006  0.000037  0.000171  0.000003
 14   -251.74535740  -0.0000000025  0.000005  0.000018  0.000049  0.000001
                  ***Gradient check signals convergence***
              ***Rediagonalizing the Fockian in SOSCF/NRSCF***

               *****************************************************
               *                     SUCCESS                       *
               *           SCF CONVERGED AFTER  15 CYCLES          *
               *****************************************************


----------------
TOTAL SCF ENERGY
----------------

Total Energy       :         -251.74535740 Eh           -6850.33944 eV

Components:
Nuclear Repulsion  :          246.54610991 Eh            6708.86072 eV
Electronic Energy  :         -498.29146732 Eh          -13559.20016 eV
One Electron Energy:         -826.02844461 Eh          -22477.37671 eV
Two Electron Energy:          327.73697729 Eh            8918.17654 eV

Virial components:
Potential Energy   :         -501.14536639 Eh          -13636.85870 eV
Kinetic Energy     :          249.40000899 Eh            6786.51926 eV
Virial Ratio       :            2.00940396


DFT components:
N(Alpha)           :       23.999978611800 electrons
N(Beta)            :       23.999978611800 electrons
N(Total)           :       47.999957223601 electrons
E(X)               :      -36.744769090876 Eh       
E(C)               :       -1.573141156438 Eh       
E(XC)              :      -38.317910247314 Eh       
DFET-embed. en.    :        0.000000000000 Eh       

---------------
SCF CONVERGENCE
---------------

  Last Energy change         ...   -2.1128e-09  Tolerance :   1.0000e-08
  Last MAX-Density change    ...    1.9478e-05  Tolerance :   1.0000e-07
  Last RMS-Density change    ...    5.8349e-07  Tolerance :   5.0000e-09
  Last Orbital Gradient      ...    6.6334e-07  Tolerance :   1.0000e-05
  Last Orbital Rotation      ...    4.1314e-06  Tolerance :   1.0000e-05

             **** THE GBW FILE WAS UPDATED (14Feb_SVPD_TPSS_C1_wt_wb97_typ1_pos.gbw) ****
             **** DENSITY 14Feb_SVPD_TPSS_C1_wt_wb97_typ1_pos.scfp WAS UPDATED ****
             **** ENERGY FILE WAS UPDATED (14Feb_SVPD_TPSS_C1_wt_wb97_typ1_pos.en.tmp) ****
             **** THE GBW FILE WAS UPDATED (14Feb_SVPD_TPSS_C1_wt_wb97_typ1_pos.gbw) ****
             **** DENSITY 14Feb_SVPD_TPSS_C1_wt_wb97_typ1_pos.scfp WAS UPDATED ****
----------------
ORBITAL ENERGIES
----------------

  NO   OCC          E(Eh)            E(eV) 
   0   2.0000     -14.125135      -384.3645 
   1   2.0000     -10.012537      -272.4550 
   2   2.0000      -9.998624      -272.0764 
   3   2.0000      -9.995762      -271.9985 
   4   2.0000      -9.984740      -271.6986 
   5   2.0000      -9.930255      -270.2160 
   6   2.0000      -0.867581       -23.6081 
   7   2.0000      -0.728634       -19.8271 
   8   2.0000      -0.668066       -18.1790 
   9   2.0000      -0.619953       -16.8698 
  10   2.0000      -0.554898       -15.0995 
  11   2.0000      -0.513254       -13.9664 
  12   2.0000      -0.485980       -13.2242 
  13   2.0000      -0.439904       -11.9704 
  14   2.0000      -0.410341       -11.1659 
  15   2.0000      -0.389367       -10.5952 
  16   2.0000      -0.364945        -9.9307 
  17   2.0000      -0.350444        -9.5361 
  18   2.0000      -0.332878        -9.0581 
  19   2.0000      -0.320825        -8.7301 
  20   2.0000      -0.302988        -8.2447 
  21   2.0000      -0.289695        -7.8830 
  22   2.0000      -0.288493        -7.8503 
  23   2.0000      -0.153523        -4.1776 
  24   0.0000       0.003561         0.0969 
  25   0.0000       0.019572         0.5326 
  26   0.0000       0.033884         0.9220 
  27   0.0000       0.039944         1.0869 
  28   0.0000       0.052392         1.4257 
  29   0.0000       0.067152         1.8273 
  30   0.0000       0.073131         1.9900 
  31   0.0000       0.082923         2.2564 
  32   0.0000       0.100464         2.7338 
  33   0.0000       0.104878         2.8539 
  34   0.0000       0.111809         3.0425 
  35   0.0000       0.121927         3.3178 
  36   0.0000       0.132172         3.5966 
  37   0.0000       0.139643         3.7999 
  38   0.0000       0.153805         4.1853 
  39   0.0000       0.159730         4.3465 
  40   0.0000       0.168507         4.5853 
  41   0.0000       0.176297         4.7973 
  42   0.0000       0.178711         4.8630 
  43   0.0000       0.188488         5.1290 
  44   0.0000       0.205678         5.5968 
  45   0.0000       0.211444         5.7537 
  46   0.0000       0.226863         6.1733 
  47   0.0000       0.231695         6.3047 
  48   0.0000       0.239410         6.5147 
  49   0.0000       0.253213         6.8903 
  50   0.0000       0.262276         7.1369 
  51   0.0000       0.265499         7.2246 
  52   0.0000       0.284278         7.7356 
  53   0.0000       0.285910         7.7800 
  54   0.0000       0.298170         8.1136 
  55   0.0000       0.301142         8.1945 
  56   0.0000       0.317132         8.6296 
  57   0.0000       0.320872         8.7314 
  58   0.0000       0.327097         8.9008 
  59   0.0000       0.331149         9.0110 
  60   0.0000       0.340319         9.2606 
  61   0.0000       0.346653         9.4329 
  62   0.0000       0.349586         9.5127 
  63   0.0000       0.357270         9.7218 
  64   0.0000       0.362513         9.8645 
  65   0.0000       0.364740         9.9251 
  66   0.0000       0.369550        10.0560 
  67   0.0000       0.382467        10.4075 
  68   0.0000       0.386219        10.5095 
  69   0.0000       0.400790        10.9060 
  70   0.0000       0.403779        10.9874 
  71   0.0000       0.405884        11.0447 
  72   0.0000       0.415740        11.3129 
  73   0.0000       0.424389        11.5482 
  74   0.0000       0.432177        11.7601 
  75   0.0000       0.440039        11.9741 
  76   0.0000       0.446711        12.1556 
  77   0.0000       0.456844        12.4314 
  78   0.0000       0.458445        12.4749 
  79   0.0000       0.470742        12.8095 
  80   0.0000       0.477554        12.9949 
  81   0.0000       0.483499        13.1567 
  82   0.0000       0.495260        13.4767 
  83   0.0000       0.497475        13.5370 
  84   0.0000       0.506449        13.7812 
  85   0.0000       0.511610        13.9216 
  86   0.0000       0.521774        14.1982 
  87   0.0000       0.525581        14.3018 
  88   0.0000       0.529222        14.4009 
  89   0.0000       0.533911        14.5284 
  90   0.0000       0.536343        14.5946 
  91   0.0000       0.554558        15.0903 
  92   0.0000       0.560016        15.2388 
  93   0.0000       0.573140        15.5959 
  94   0.0000       0.578057        15.7297 
  95   0.0000       0.584711        15.9108 
  96   0.0000       0.585977        15.9452 
  97   0.0000       0.606885        16.5142 
  98   0.0000       0.615856        16.7583 
  99   0.0000       0.620708        16.8903 
 100   0.0000       0.643427        17.5085 
 101   0.0000       0.662058        18.0155 
 102   0.0000       0.679311        18.4850 
 103   0.0000       0.687009        18.6945 
 104   0.0000       0.696496        18.9526 
 105   0.0000       0.711048        19.3486 
 106   0.0000       0.728760        19.8306 
 107   0.0000       0.754110        20.5204 
 108   0.0000       0.766551        20.8589 
 109   0.0000       0.784641        21.3512 
 110   0.0000       0.859401        23.3855 
 111   0.0000       0.880280        23.9536 
 112   0.0000       0.909111        24.7382 
 113   0.0000       0.913168        24.8486 
 114   0.0000       0.949162        25.8280 
 115   0.0000       0.956220        26.0201 
 116   0.0000       0.976308        26.5667 
 117   0.0000       0.986006        26.8306 
 118   0.0000       0.988948        26.9107 
 119   0.0000       1.018597        27.7174 
 120   0.0000       1.022084        27.8123 
 121   0.0000       1.032847        28.1052 
 122   0.0000       1.040738        28.3199 
 123   0.0000       1.052849        28.6495 
 124   0.0000       1.063461        28.9382 
 125   0.0000       1.076986        29.3063 
 126   0.0000       1.108928        30.1755 
 127   0.0000       1.118002        30.4224 
 128   0.0000       1.151782        31.3416 
 129   0.0000       1.159147        31.5420 
 130   0.0000       1.178324        32.0638 
 131   0.0000       1.187059        32.3015 
 132   0.0000       1.198695        32.6181 
 133   0.0000       1.237696        33.6794 
 134   0.0000       1.257804        34.2266 
 135   0.0000       1.289488        35.0888 
 136   0.0000       1.313370        35.7386 
 137   0.0000       1.332135        36.2492 
 138   0.0000       1.386316        37.7236 
 139   0.0000       1.396019        37.9876 
 140   0.0000       1.443267        39.2733 
 141   0.0000       1.522003        41.4158 
 142   0.0000       1.538172        41.8558 
 143   0.0000       1.554519        42.3006 
 144   0.0000       1.590574        43.2817 
 145   0.0000       1.631187        44.3869 
 146   0.0000       1.655469        45.0476 
 147   0.0000       1.668221        45.3946 
 148   0.0000       1.675236        45.5855 
 149   0.0000       1.700345        46.2687 
 150   0.0000       1.734518        47.1986 
 151   0.0000       1.778082        48.3841 
 152   0.0000       1.787372        48.6369 
 153   0.0000       1.811692        49.2986 
 154   0.0000       1.830380        49.8072 
 155   0.0000       1.857100        50.5343 
 156   0.0000       1.876791        51.0701 
 157   0.0000       1.901079        51.7310 
 158   0.0000       1.909285        51.9543 
 159   0.0000       1.942434        52.8563 
 160   0.0000       1.946586        52.9693 
 161   0.0000       1.964353        53.4528 
 162   0.0000       1.987371        54.0791 
 163   0.0000       1.999623        54.4125 
 164   0.0000       2.026668        55.1484 
 165   0.0000       2.032279        55.3011 
 166   0.0000       2.051875        55.8343 
 167   0.0000       2.073501        56.4228 
 168   0.0000       2.082669        56.6723 
 169   0.0000       2.112061        57.4721 
 170   0.0000       2.129875        57.9568 
 171   0.0000       2.157456        58.7074 
 172   0.0000       2.189470        59.5785 
 173   0.0000       2.203449        59.9589 
 174   0.0000       2.266918        61.6860 
 175   0.0000       2.275361        61.9157 
 176   0.0000       2.322601        63.2012 
 177   0.0000       2.327008        63.3211 
 178   0.0000       2.389339        65.0172 
 179   0.0000       2.401672        65.3528 
 180   0.0000       2.414935        65.7137 
 181   0.0000       2.439479        66.3816 
 182   0.0000       2.462435        67.0063 
 183   0.0000       2.466660        67.1212 
 184   0.0000       2.509113        68.2764 
 185   0.0000       2.571214        69.9663 
 186   0.0000       2.594845        70.6093 
 187   0.0000       2.611444        71.0610 
 188   0.0000       2.632327        71.6293 
 189   0.0000       2.664812        72.5132 
 190   0.0000       2.689159        73.1757 
 191   0.0000       2.692566        73.2685 
 192   0.0000       2.729009        74.2601 
 193   0.0000       2.803047        76.2748 
 194   0.0000       2.821366        76.7733 
 195   0.0000       2.939683        79.9928 
 196   0.0000       2.998232        81.5860 
 197   0.0000       3.058234        83.2188 
 198   0.0000       3.080270        83.8184 
 199   0.0000       3.121190        84.9319 
 200   0.0000       3.170438        86.2720 
 201   0.0000       3.206006        87.2399 
 202   0.0000       3.232961        87.9733 
 203   0.0000       3.254149        88.5499 
 204   0.0000       3.296010        89.6890 
 205   0.0000       3.351874        91.2091 
 206   0.0000       3.557746        96.8112 
 207   0.0000       3.710909       100.9790 

                    ********************************
                    * MULLIKEN POPULATION ANALYSIS *
                    ********************************

-----------------------
MULLIKEN ATOMIC CHARGES
-----------------------
   0 C :   -0.388095
   1 C :    0.635899
   2 C :    0.246330
   3 H :   -0.009145
   4 H :   -0.066552
   5 C :   -0.033505
   6 C :    0.338837
   7 N :    0.121087
   8 H :   -0.038227
   9 H :   -0.140482
  10 H :   -0.094703
  11 H :   -0.447869
  12 H :    0.032134
  13 H :   -0.042505
  14 H :   -0.076721
  15 H :   -0.075019
  16 H :    0.038535
Sum of atomic charges:    0.0000000

--------------------------------
MULLIKEN REDUCED ORBITAL CHARGES
--------------------------------
  0 C s       :     2.948087  s :     2.948087
      pz      :     0.940155  p :     2.898457
      px      :     1.009052
      py      :     0.949250
      dz2     :     0.027798  d :     0.541551
      dxz     :     0.145573
      dyz     :     0.141787
      dx2y2   :     0.063957
      dxy     :     0.162435
  1 C s       :     2.481282  s :     2.481282
      pz      :     0.862675  p :     2.768356
      px      :     0.984832
      py      :     0.920849
      dz2     :    -0.020509  d :     0.114463
      dxz     :     0.061872
      dyz     :    -0.008634
      dx2y2   :     0.034704
      dxy     :     0.047030
  2 C s       :     2.677979  s :     2.677979
      pz      :     1.017825  p :     2.853492
      px      :     0.814879
      py      :     1.020788
      dz2     :     0.098254  d :     0.222199
      dxz     :     0.007660
      dyz     :     0.107749
      dx2y2   :     0.039544
      dxy     :    -0.031008
  3 H s       :     0.959726  s :     0.959726
      pz      :     0.012025  p :     0.049420
      px      :     0.024397
      py      :     0.012998
  4 H s       :     1.046943  s :     1.046943
      pz      :     0.018031  p :     0.019609
      px      :    -0.033429
      py      :     0.035007
  5 C s       :     2.845377  s :     2.845377
      pz      :     0.831948  p :     2.538123
      px      :     0.841038
      py      :     0.865137
      dz2     :     0.016298  d :     0.650004
      dxz     :     0.233544
      dyz     :     0.076615
      dx2y2   :     0.235313
      dxy     :     0.088234
  6 C s       :     3.050731  s :     3.050731
      pz      :     0.758664  p :     2.488860
      px      :     0.946986
      py      :     0.783210
      dz2     :     0.021617  d :     0.121572
      dxz     :     0.042898
      dyz     :     0.007905
      dx2y2   :     0.015901
      dxy     :     0.033251
  7 N s       :     3.202383  s :     3.202383
      pz      :     1.231682  p :     3.630158
      px      :     1.153926
      py      :     1.244549
      dz2     :     0.014486  d :     0.046372
      dxz     :     0.012122
      dyz     :     0.007717
      dx2y2   :     0.013703
      dxy     :    -0.001655
  8 H s       :     0.998132  s :     0.998132
      pz      :     0.009271  p :     0.040095
      px      :     0.025857
      py      :     0.004967
  9 H s       :     1.094701  s :     1.094701
      pz      :     0.039815  p :     0.045781
      px      :    -0.009968
      py      :     0.015934
 10 H s       :     1.103035  s :     1.103035
      pz      :    -0.012671  p :    -0.008332
      px      :     0.021878
      py      :    -0.017539
 11 H s       :     1.396156  s :     1.396156
      pz      :    -0.004949  p :     0.051713
      px      :     0.013488
      py      :     0.043174
 12 H s       :     0.957053  s :     0.957053
      pz      :    -0.021535  p :     0.010813
      px      :     0.015178
      py      :     0.017170
 13 H s       :     0.984362  s :     0.984362
      pz      :     0.035670  p :     0.058143
      px      :    -0.012102
      py      :     0.034575
 14 H s       :     1.052116  s :     1.052116
      pz      :     0.058898  p :     0.024605
      px      :    -0.011895
      py      :    -0.022398
 15 H s       :     0.972151  s :     0.972151
      pz      :     0.032545  p :     0.102867
      px      :     0.020171
      py      :     0.050151
 16 H s       :     0.925622  s :     0.925622
      pz      :    -0.029015  p :     0.035843
      px      :     0.018311
      py      :     0.046547


                     *******************************
                     * LOEWDIN POPULATION ANALYSIS *
                     *******************************

----------------------
LOEWDIN ATOMIC CHARGES
----------------------
   0 C :   -0.054646
   1 C :    0.129720
   2 C :    0.012987
   3 H :    0.016379
   4 H :    0.011605
   5 C :   -0.264822
   6 C :    0.178170
   7 N :    0.174755
   8 H :    0.007808
   9 H :    0.014888
  10 H :   -0.084275
  11 H :   -0.096266
  12 H :    0.022922
  13 H :    0.007518
  14 H :   -0.024046
  15 H :   -0.028964
  16 H :   -0.023733

-------------------------------
LOEWDIN REDUCED ORBITAL CHARGES
-------------------------------
  0 C s       :     2.698361  s :     2.698361
      pz      :     0.879765  p :     2.683984
      px      :     0.893755
      py      :     0.910463
      dz2     :     0.102419  d :     0.672301
      dxz     :     0.158884
      dyz     :     0.154332
      dx2y2   :     0.113361
      dxy     :     0.143305
  1 C s       :     2.706051  s :     2.706051
      pz      :     0.924383  p :     2.753496
      px      :     0.900969
      py      :     0.928144
      dz2     :     0.049750  d :     0.410734
      dxz     :     0.092979
      dyz     :     0.071174
      dx2y2   :     0.085844
      dxy     :     0.110986
  2 C s       :     2.687721  s :     2.687721
      pz      :     0.881760  p :     2.664840
      px      :     0.895156
      py      :     0.887924
      dz2     :     0.158349  d :     0.634452
      dxz     :     0.115058
      dyz     :     0.157114
      dx2y2   :     0.073224
      dxy     :     0.130707
  3 H s       :     0.730877  s :     0.730877
      pz      :     0.072012  p :     0.252744
      px      :     0.083888
      py      :     0.096843
  4 H s       :     0.739222  s :     0.739222
      pz      :     0.084614  p :     0.249174
      px      :     0.061066
      py      :     0.103493
  5 C s       :     2.659784  s :     2.659784
      pz      :     0.826201  p :     2.578125
      px      :     0.892695
      py      :     0.859230
      dz2     :     0.208232  d :     1.026913
      dxz     :     0.213997
      dyz     :     0.179340
      dx2y2   :     0.218229
      dxy     :     0.207114
  6 C s       :     2.732820  s :     2.732820
      pz      :     0.912026  p :     2.760863
      px      :     0.925719
      py      :     0.923118
      dz2     :     0.039460  d :     0.328147
      dxz     :     0.083687
      dyz     :     0.048394
      dx2y2   :     0.081976
      dxy     :     0.074631
  7 N s       :     2.925063  s :     2.925063
      pz      :     1.193671  p :     3.513573
      px      :     1.140256
      py      :     1.179645
      dz2     :     0.084630  d :     0.386610
      dxz     :     0.074586
      dyz     :     0.093433
      dx2y2   :     0.071106
      dxy     :     0.062854
  8 H s       :     0.654661  s :     0.654661
      pz      :     0.089950  p :     0.337531
      px      :     0.131154
      py      :     0.116427
  9 H s       :     0.657846  s :     0.657846
      pz      :     0.110837  p :     0.327266
      px      :     0.083994
      py      :     0.132435
 10 H s       :     0.766852  s :     0.766852
      pz      :     0.126619  p :     0.317423
      px      :     0.098634
      py      :     0.092170
 11 H s       :     0.782071  s :     0.782071
      pz      :     0.110124  p :     0.314195
      px      :     0.082645
      py      :     0.121426
 12 H s       :     0.726522  s :     0.726522
      pz      :     0.063029  p :     0.250556
      px      :     0.109183
      py      :     0.078345
 13 H s       :     0.731963  s :     0.731963
      pz      :     0.076373  p :     0.260519
      px      :     0.099869
      py      :     0.084277
 14 H s       :     0.750783  s :     0.750783
      pz      :     0.123411  p :     0.273263
      px      :     0.072289
      py      :     0.077563
 15 H s       :     0.742518  s :     0.742518
      pz      :     0.106536  p :     0.286446
      px      :     0.072119
      py      :     0.107790
 16 H s       :     0.748195  s :     0.748195
      pz      :     0.082926  p :     0.275538
      px      :     0.086231
      py      :     0.106381


                      *****************************
                      * MAYER POPULATION ANALYSIS *
                      *****************************

  NA   - Mulliken gross atomic population
  ZA   - Total nuclear charge
  QA   - Mulliken gross atomic charge
  VA   - Mayer's total valence
  BVA  - Mayer's bonded valence
  FA   - Mayer's free valence

  ATOM       NA         ZA         QA         VA         BVA        FA
  0 C      6.3881     6.0000    -0.3881     5.3409     5.3409     0.0000
  1 C      5.3641     6.0000     0.6359     3.9396     3.9396    -0.0000
  2 C      5.7537     6.0000     0.2463     4.3937     4.3937     0.0000
  3 H      1.0091     1.0000    -0.0091     1.0556     1.0556    -0.0000
  4 H      1.0666     1.0000    -0.0666     1.1163     1.1163     0.0000
  5 C      6.0335     6.0000    -0.0335     4.4221     4.4221     0.0000
  6 C      5.6612     6.0000     0.3388     3.8504     3.8504    -0.0000
  7 N      6.8789     7.0000     0.1211     4.0344     4.0344     0.0000
  8 H      1.0382     1.0000    -0.0382     0.9754     0.9754     0.0000
  9 H      1.1405     1.0000    -0.1405     1.0017     1.0017     0.0000
 10 H      1.0947     1.0000    -0.0947     0.9632     0.9632     0.0000
 11 H      1.4479     1.0000    -0.4479     1.0112     1.0112    -0.0000
 12 H      0.9679     1.0000     0.0321     0.9456     0.9456     0.0000
 13 H      1.0425     1.0000    -0.0425     1.1343     1.1343    -0.0000
 14 H      1.0767     1.0000    -0.0767     1.0292     1.0292     0.0000
 15 H      1.0750     1.0000    -0.0750     1.1913     1.1913    -0.0000
 16 H      0.9615     1.0000     0.0385     1.0207     1.0207    -0.0000

  Mayer bond orders larger than 0.100000
B(  0-C ,  1-C ) :   1.3210 B(  0-C ,  2-C ) :   1.1718 B(  0-C ,  3-H ) :   0.9452 
B(  0-C ,  4-H ) :   0.9801 B(  0-C , 13-H ) :   0.1394 B(  0-C , 14-H ) :   0.2095 
B(  0-C , 15-H ) :   0.2159 B(  0-C , 16-H ) :   0.1977 B(  1-C , 14-H ) :   0.7956 
B(  1-C , 15-H ) :   0.8479 B(  1-C , 16-H ) :   0.7909 B(  2-C ,  3-H ) :   0.1373 
B(  2-C ,  5-C ) :   1.0367 B(  2-C ,  6-C ) :   0.1808 B(  2-C ,  7-N ) :   0.1337 
B(  2-C , 12-H ) :   0.8535 B(  2-C , 13-H ) :   0.7622 B(  5-C ,  6-C ) :   1.6813 
B(  5-C ,  7-N ) :   1.1520 B(  5-C , 11-H ) :   0.1691 B(  5-C , 12-H ) :   0.1171 
B(  5-C , 13-H ) :   0.1727 B(  6-C ,  7-N ) :   0.2983 B(  6-C , 10-H ) :   0.8587 
B(  6-C , 11-H ) :   0.8066 B(  7-N ,  8-H ) :   1.0570 B(  7-N ,  9-H ) :   1.2653 
B(  8-H ,  9-H ) :  -0.1418 

-------
TIMINGS
-------

Total SCF time: 0 days 0 hours 0 min 13 sec 

Total time                  ....      13.001 sec
Sum of individual times     ....      12.808 sec  ( 98.5%)

Fock matrix formation       ....      11.901 sec  ( 91.5%)
  Split-RI-J                ....       1.461 sec  ( 12.3% of F)
  XC integration            ....      10.394 sec  ( 87.3% of F)
    Basis function eval.    ....       1.689 sec  ( 16.3% of XC)
    Density eval.           ....       3.458 sec  ( 33.3% of XC)
    XC-Functional eval.     ....       0.584 sec  (  5.6% of XC)
    XC-Potential eval.      ....       4.378 sec  ( 42.1% of XC)
Diagonalization             ....       0.064 sec  (  0.5%)
Density matrix formation    ....       0.005 sec  (  0.0%)
Population analysis         ....       0.008 sec  (  0.1%)
Initial guess               ....       0.176 sec  (  1.4%)
Orbital Transformation      ....       0.000 sec  (  0.0%)
Orbital Orthonormalization  ....       0.000 sec  (  0.0%)
DIIS solution               ....       0.039 sec  (  0.3%)
SOSCF solution              ....       0.061 sec  (  0.5%)
Grid generation             ....       0.552 sec  (  4.2%)

Maximum memory used throughout the entire SCF-calculation: 25.9 MB


-------------------------------------------------------------------------------
                          DFT DISPERSION CORRECTION                            
                                                                               
                              DFTD3 V3.1  Rev 1                                
                          USING Becke-Johnson damping                          
-------------------------------------------------------------------------------
The TPSS functional is recognized
Active option DFTDOPT                   ...         4   

molecular C6(AA) [au] = 2125.136176 


            DFT-D V3
 parameters
 s6 scaling factor         :     1.0000 
 a1 scaling factor         :     0.4535 
 s8 scaling factor         :     1.9435 
 a2 scaling factor         :     4.4752 
 ad hoc parameters k1-k3   :    16.0000     1.3333    -4.0000 

 Edisp/kcal,au: -10.952466153781  -0.017453863947 
 E6   /kcal   :  -5.732372895 
 E8   /kcal   :  -5.220093258 
 % E8         :  47.661350286 

-------------------------   ----------------
Dispersion correction           -0.017453864
-------------------------   ----------------


-------------------------   --------------------
FINAL SINGLE POINT ENERGY      -251.762811268078
-------------------------   --------------------


                            ***************************************
                            *     ORCA property calculations      *
                            ***************************************

                                    ---------------------
                                    Active property flags
                                    ---------------------
   (+) Dipole Moment


------------------------------------------------------------------------------
                       ORCA ELECTRIC PROPERTIES CALCULATION
------------------------------------------------------------------------------

Dipole Moment Calculation                       ... on
Quadrupole Moment Calculation                   ... off
Polarizability Calculation                      ... off
GBWName                                         ... 14Feb_SVPD_TPSS_C1_wt_wb97_typ1_pos.gbw
Electron density file                           ... 14Feb_SVPD_TPSS_C1_wt_wb97_typ1_pos.scfp
The origin for moment calculation is the CENTER OF MASS  = ( 3.649280, -3.455646 -6.633259)

-------------
DIPOLE MOMENT
-------------
                                X             Y             Z
Electronic contribution:      1.45274       0.29841       3.31395
Nuclear contribution   :     -2.15663      -0.43764      -3.01766
                        -----------------------------------------
Total Dipole Moment    :     -0.70389      -0.13922       0.29629
                        -----------------------------------------
Magnitude (a.u.)       :      0.77629
Magnitude (Debye)      :      1.97318



--------------------
Rotational spectrum 
--------------------
 
Rotational constants in cm-1:     0.184410     0.080989     0.069427 
Rotational constants in MHz :  5528.462717  2427.993314  2081.376031 

 Dipole components along the rotational axes: 
x,y,z [a.u.] :    -0.202816    -0.723499    -0.195057 
x,y,z [Debye]:    -0.515518    -1.838987    -0.495796 

 

Timings for individual modules:

Sum of individual times         ...       13.575 sec (=   0.226 min)
GTO integral calculation        ...        0.373 sec (=   0.006 min)   2.7 %
SCF iterations                  ...       13.202 sec (=   0.220 min)  97.3 %
                             ****ORCA TERMINATED NORMALLY****
TOTAL RUN TIME: 0 days 0 hours 0 minutes 13 seconds 951 msec
