
                                        *****************
                                        * O   R   C   A *
                                        *****************

                                            #,                                       
                                            ###                                      
                                            ####                                     
                                            #####                                    
                                            ######                                   
                                           ########,                                 
                                     ,,################,,,,,                         
                               ,,#################################,,                 
                          ,,##########################################,,             
                       ,#########################################, ''#####,          
                    ,#############################################,,   '####,        
                  ,##################################################,,,,####,       
                ,###########''''           ''''###############################       
              ,#####''   ,,,,##########,,,,          '''####'''          '####       
            ,##' ,,,,###########################,,,                        '##       
           ' ,,###''''                  '''############,,,                           
         ,,##''                                '''############,,,,        ,,,,,,###''
      ,#''                                            '''#######################'''  
     '                                                          ''''####''''         
             ,#######,   #######,   ,#######,      ##                                
            ,#'     '#,  ##    ##  ,#'     '#,    #''#        ######   ,####,        
            ##       ##  ##   ,#'  ##            #'  '#       #        #'  '#        
            ##       ##  #######   ##           ,######,      #####,   #    #        
            '#,     ,#'  ##    ##  '#,     ,#' ,#      #,         ##   #,  ,#        
             '#######'   ##     ##  '#######'  #'      '#     #####' # '####'        



                  #######################################################
                  #                        -***-                        #
                  #          Department of theory and spectroscopy      #
                  #    Directorship and core code : Frank Neese         #
                  #        Max Planck Institute fuer Kohlenforschung    #
                  #                Kaiser Wilhelm Platz 1               #
                  #                 D-45470 Muelheim/Ruhr               #
                  #                      Germany                        #
                  #                                                     #
                  #                  All rights reserved                #
                  #                        -***-                        #
                  #######################################################


                         Program Version 5.0.0 -  RELEASE  -
                                (SVN: $Rev: 19529$)
                ($Date: 2021-06-28 11:36:33 +0200 (Mo, 28 Jun 2021) $)


 With contributions from (in alphabetic order):
   Daniel Aravena         : Magnetic Suceptibility
   Michael Atanasov       : Ab Initio Ligand Field Theory (pilot matlab implementation)
   Alexander A. Auer      : GIAO ZORA, VPT2 properties, NMR spectrum
   Ute Becker             : Parallelization
   Giovanni Bistoni       : ED, misc. LED, open-shell LED, HFLD
   Martin Brehm           : Molecular dynamics
   Dmytro Bykov           : SCF Hessian
   Vijay G. Chilkuri      : MRCI spin determinant printing, contributions to CSF-ICE
   Dipayan Datta          : RHF DLPNO-CCSD density
   Achintya Kumar Dutta   : EOM-CC, STEOM-CC
   Dmitry Ganyushin       : Spin-Orbit,Spin-Spin,Magnetic field MRCI
   Miquel Garcia          : C-PCM Hessian, Gaussian charge scheme
   Yang Guo               : DLPNO-NEVPT2, F12-NEVPT2, CIM, IAO-localization
   Andreas Hansen         : Spin unrestricted coupled pair/coupled cluster methods
   Benjamin Helmich-Paris : MC-RPA, TRAH-SCF, COSX integrals
   Lee Huntington         : MR-EOM, pCC
   Robert Izsak           : Overlap fitted RIJCOSX, COSX-SCS-MP3, EOM
   Marcus Kettner         : VPT2
   Christian Kollmar      : KDIIS, OOCD, Brueckner-CCSD(T), CCSD density, CASPT2, CASPT2-K
   Simone Kossmann        : Meta GGA functionals, TD-DFT gradient, OOMP2, MP2 Hessian
   Martin Krupicka        : Initial AUTO-CI
   Lucas Lang             : DCDCAS
   Marvin Lechner         : AUTO-CI (C++ implementation), FIC-MRCC
   Dagmar Lenk            : GEPOL surface, SMD
   Dimitrios Liakos       : Extrapolation schemes; Compound Job, initial MDCI parallelization
   Dimitrios Manganas     : Further ROCIS development; embedding schemes
   Dimitrios Pantazis     : SARC Basis sets
   Anastasios Papadopoulos: AUTO-CI, single reference methods and gradients
   Taras Petrenko         : DFT Hessian,TD-DFT gradient, ASA, ECA, R-Raman, ABS, FL, XAS/XES, NRVS
   Peter Pinski           : DLPNO-MP2, DLPNO-MP2 Gradient
   Christoph Reimann      : Effective Core Potentials
   Marius Retegan         : Local ZFS, SOC
   Christoph Riplinger    : Optimizer, TS searches, QM/MM, DLPNO-CCSD(T), (RO)-DLPNO pert. Triples
   Tobias Risthaus        : Range-separated hybrids, TD-DFT gradient, RPA, STAB
   Michael Roemelt        : Original ROCIS implementation
   Masaaki Saitow         : Open-shell DLPNO-CCSD energy and density
   Barbara Sandhoefer     : DKH picture change effects
   Avijit Sen             : IP-ROCIS
   Kantharuban Sivalingam : CASSCF convergence, NEVPT2, FIC-MRCI
   Bernardo de Souza      : ESD, SOC TD-DFT
   Georgi Stoychev        : AutoAux, RI-MP2 NMR
   Willem Van den Heuvel  : Paramagnetic NMR
   Boris Wezisla          : Elementary symmetry handling
   Frank Wennmohs         : Technical directorship


 We gratefully acknowledge several colleagues who have allowed us to
 interface, adapt or use parts of their codes:
   Stefan Grimme, W. Hujo, H. Kruse, P. Pracht,  : VdW corrections, initial TS optimization,
                  C. Bannwarth, S. Ehlert          DFT functionals, gCP, sTDA/sTD-DF
   Ed Valeev, F. Pavosevic, A. Kumar             : LibInt (2-el integral package), F12 methods
   Garnet Chan, S. Sharma, J. Yang, R. Olivares  : DMRG
   Ulf Ekstrom                                   : XCFun DFT Library
   Mihaly Kallay                                 : mrcc  (arbitrary order and MRCC methods)
   Jiri Pittner, Ondrej Demel                    : Mk-CCSD
   Frank Weinhold                                : gennbo (NPA and NBO analysis)
   Christopher J. Cramer and Donald G. Truhlar   : smd solvation model
   Lars Goerigk                                  : TD-DFT with DH, B97 family of functionals
   V. Asgeirsson, H. Jonsson                     : NEB implementation
   FAccTs GmbH                                   : IRC, NEB, NEB-TS, DLPNO-Multilevel, CI-OPT
                                                   MM, QMMM, 2- and 3-layer-ONIOM, Crystal-QMMM,
                                                   LR-CPCM, SF, NACMEs, symmetry and pop. for TD-DFT,
                                                   nearIR, NL-DFT gradient (VV10), updates on ESD,
                                                   ML-optimized integration grids
   S Lehtola, MJT Oliveira, MAL Marques          : LibXC Library
   Liviu Ungur et al                             : ANISO software


 Your calculation uses the libint2 library for the computation of 2-el integrals
 For citations please refer to: http://libint.valeyev.net

 Your ORCA version has been built with support for libXC version: 5.1.0
 For citations please refer to: https://tddft.org/programs/libxc/

 This ORCA versions uses:
   CBLAS   interface :  Fast vector & matrix operations
   LAPACKE interface :  Fast linear algebra routines
   SCALAPACK package :  Parallel linear algebra routines
   Shared memory     :  Shared parallel matrices
   BLAS/LAPACK       :  OpenBLAS 0.3.15  USE64BITINT DYNAMIC_ARCH NO_AFFINITY Haswell SINGLE_THREADED
        Core in use  :  Haswell
   Copyright (c) 2011-2014, The OpenBLAS Project


Your calculation utilizes the atom-pairwise dispersion correction
with the Becke-Johnson damping scheme (D3BJ)
Cite in your paper:
S.Grimme, S.Ehrlich, L.Goerigk, J Comput Chem, (2011), 32, 1456–1465 
S.Grimme, J.Antony, S.Ehrlich and H.Krieg, J.Chem.Phys., 132, (2010), 154104 
   

================================================================================

----- Orbital basis set information -----
Your calculation utilizes the basis: def2-TZVPD
   F. Weigend and R. Ahlrichs, Phys. Chem. Chem. Phys. 7, 3297 (2005).
   D. Rappoport and F. Furche, J. Chem. Phys. 133 134105 (2010).

----- AuxJ basis set information -----
Your calculation utilizes the auxiliary basis: def2/J
   F. Weigend, Phys. Chem. Chem. Phys. 8, 1057 (2006).

================================================================================
                                        WARNINGS
                       Please study these warnings very carefully!
================================================================================


INFO   : the flag for use of the SHARK integral package has been found!

================================================================================
                                       INPUT FILE
================================================================================
NAME = TZVPD_PBE0_C1_wt_dlpno_neg.com
|  1> !PBE0 D3BJ RIJCOSX def2-TZVPD def2/J TightSCF
|  2> *xyz 0 1 
|  3> C         -1.10433        0.25137       -2.86006
|  4> C         -0.71189        0.84252       -4.21834
|  5> H          0.15463        1.49980       -4.13091
|  6> H         -1.53813        1.45922       -4.58267
|  7> C         -0.39762       -0.20587       -5.28802
|  8> F          0.61717       -0.00535       -5.99827
|  9> O         -1.13317       -1.22138       -5.34147
| 10> H         -1.95489       -0.38644       -2.98099
| 11> H         -1.34603        1.04362       -2.18269
| 12> H         -0.28606       -0.31581       -2.46809
| 13> *
| 14> 
| 15> %MaxCore 64000
| 16> 
| 17> %pal nprocs 4
| 18> end  
| 19> 
| 20> %scf
| 21>   MaxIter 150
| 22> end
| 23> 
| 24> 
| 25>                          ****END OF INPUT****
================================================================================

                       ****************************
                       * Single Point Calculation *
                       ****************************

---------------------------------
CARTESIAN COORDINATES (ANGSTROEM)
---------------------------------
  C     -1.104330    0.251370   -2.860060
  C     -0.711890    0.842520   -4.218340
  H      0.154630    1.499800   -4.130910
  H     -1.538130    1.459220   -4.582670
  C     -0.397620   -0.205870   -5.288020
  F      0.617170   -0.005350   -5.998270
  O     -1.133170   -1.221380   -5.341470
  H     -1.954890   -0.386440   -2.980990
  H     -1.346030    1.043620   -2.182690
  H     -0.286060   -0.315810   -2.468090

----------------------------
CARTESIAN COORDINATES (A.U.)
----------------------------
  NO LB      ZA    FRAG     MASS         X           Y           Z
   0 C     6.0000    0    12.011   -2.086881    0.475020   -5.404730
   1 C     6.0000    0    12.011   -1.345277    1.592132   -7.971507
   2 H     1.0000    0     1.008    0.292208    2.834211   -7.806289
   3 H     1.0000    0     1.008   -2.906644    2.757526   -8.659991
   4 C     6.0000    0    12.011   -0.751393   -0.389038   -9.992910
   5 F     9.0000    0    18.998    1.166282   -0.010110  -11.335088
   6 O     8.0000    0    15.999   -2.141381   -2.308074  -10.093915
   7 H     1.0000    0     1.008   -3.694207   -0.730266   -5.633255
   8 H     1.0000    0     1.008   -2.543628    1.972156   -4.124686
   9 H     1.0000    0     1.008   -0.540575   -0.596794   -4.664014

--------------------------------
INTERNAL COORDINATES (ANGSTROEM)
--------------------------------
 C      0   0   0     0.000000000000     0.00000000     0.00000000
 C      1   0   0     1.532446421413     0.00000000     0.00000000
 H      2   1   0     1.091108570996   111.39101663     0.00000000
 H      2   1   3     1.093493382010   108.62483049   242.78581503
 C      2   1   3     1.530392932354   114.06966130   122.30526750
 F      5   2   1     1.254775707846   116.88744745   223.97731069
 O      5   2   1     1.255050303813   117.62698629    40.66741348
 H      1   2   3     1.069989707708   109.47163010   180.00032036
 H      1   2   3     1.070004238029   109.47113029    59.99961782
 H      1   2   3     1.069999731869   109.47118987   300.00094368

---------------------------
INTERNAL COORDINATES (A.U.)
---------------------------
 C      0   0   0     0.000000000000     0.00000000     0.00000000
 C      1   0   0     2.895904051377     0.00000000     0.00000000
 H      2   1   0     2.061896381556   111.39101663     0.00000000
 H      2   1   3     2.066403021255   108.62483049   242.78581503
 C      2   1   3     2.892023519438   114.06966130   122.30526750
 F      5   2   1     2.371182447326   116.88744745   223.97731069
 O      5   2   1     2.371701358500   117.62698629    40.66741348
 H      1   2   3     2.021987513682   109.47163010   180.00032036
 H      1   2   3     2.022014972010   109.47113029    59.99961782
 H      1   2   3     2.022006456602   109.47118987   300.00094368

---------------------
BASIS SET INFORMATION
---------------------
There are 4 groups of distinct atoms

 Group   1 Type C   : 12s6p3d1f contracted to 6s3p3d1f pattern {621111/411/111/1}
 Group   2 Type H   : 5s2p contracted to 3s2p pattern {311/11}
 Group   3 Type F   : 12s7p3d1f contracted to 6s4p3d1f pattern {621111/4111/111/1}
 Group   4 Type O   : 12s7p3d1f contracted to 6s4p3d1f pattern {621111/4111/111/1}

Atom   0C    basis set group =>   1
Atom   1C    basis set group =>   1
Atom   2H    basis set group =>   2
Atom   3H    basis set group =>   2
Atom   4C    basis set group =>   1
Atom   5F    basis set group =>   3
Atom   6O    basis set group =>   4
Atom   7H    basis set group =>   2
Atom   8H    basis set group =>   2
Atom   9H    basis set group =>   2
---------------------------------
AUXILIARY/J BASIS SET INFORMATION
---------------------------------
There are 4 groups of distinct atoms

 Group   1 Type C   : 12s5p4d2f1g contracted to 6s4p3d1f1g pattern {711111/2111/211/2/1}
 Group   2 Type H   : 5s2p1d contracted to 3s1p1d pattern {311/2/1}
 Group   3 Type F   : 12s5p4d2f1g contracted to 6s4p3d1f1g pattern {711111/2111/211/2/1}
 Group   4 Type O   : 12s5p4d2f1g contracted to 6s4p3d1f1g pattern {711111/2111/211/2/1}

Atom   0C    basis set group =>   1
Atom   1C    basis set group =>   1
Atom   2H    basis set group =>   2
Atom   3H    basis set group =>   2
Atom   4C    basis set group =>   1
Atom   5F    basis set group =>   3
Atom   6O    basis set group =>   4
Atom   7H    basis set group =>   2
Atom   8H    basis set group =>   2
Atom   9H    basis set group =>   2


           ************************************************************
           *        Program running with 4 parallel MPI-processes     *
           *              working on a common directory               *
           ************************************************************
------------------------------------------------------------------------------
                           ORCA GTO INTEGRAL CALCULATION
                           -- RI-GTO INTEGRALS CHOSEN --
------------------------------------------------------------------------------
------------------------------------------------------------------------------
                   ___                                                        
                  /   \      - P O W E R E D   B Y -                         
                 /     \                                                     
                 |  |  |   _    _      __       _____    __    __             
                 |  |  |  | |  | |    /  \     |  _  \  |  |  /  |          
                  \  \/   | |  | |   /    \    | | | |  |  | /  /          
                 / \  \   | |__| |  /  /\  \   | |_| |  |  |/  /          
                |  |  |   |  __  | /  /__\  \  |    /   |      \           
                |  |  |   | |  | | |   __   |  |    \   |  |\   \          
                \     /   | |  | | |  |  |  |  | |\  \  |  | \   \       
                 \___/    |_|  |_| |__|  |__|  |_| \__\ |__|  \__/        
                                                                              
                      - O R C A' S   B I G   F R I E N D -                    
                                      &                                       
                       - I N T E G R A L  F E E D E R -                       
                                                                              
 v1 FN, 2020, v2 2021                                                         
------------------------------------------------------------------------------


Reading SHARK input file TZVPD_PBE0_C1_wt_dlpno_neg.SHARKINP.tmp ... ok
----------------------
SHARK INTEGRAL PACKAGE
----------------------

Number of atoms                             ...     10
Number of basis functions                   ...    236
Number of shells                            ...     92
Maximum angular momentum                    ...      3
Integral batch strategy                     ... SHARK/LIBINT Hybrid
RI-J (if used) integral strategy            ... SPLIT-RIJ (Revised 2003 algorithm where possible)
Printlevel                                  ...      1
Contraction scheme used                     ... SEGMENTED contraction
Coulomb Range Separation                    ... NOT USED
Exchange Range Separation                   ... NOT USED
Finite Nucleus Model                        ... NOT USED
Auxiliary Coulomb fitting basis             ... AVAILABLE
   # of basis functions in Aux-J            ...    300
   # of shells in Aux-J                     ...    100
   Maximum angular momentum in Aux-J        ...      4
Auxiliary J/K fitting basis                 ... NOT available
Auxiliary Correlation fitting basis         ... NOT available
Auxiliary 'external' fitting basis          ... NOT available
Integral threshold                          ...     2.500000e-11
Primitive cut-off                           ...     2.500000e-12
Primitive pair pre-selection threshold      ...     2.500000e-12

Calculating pre-screening integrals         ... done (  0.1 sec) Dimension = 92
Organizing shell pair data                  ... done (  0.0 sec)
Shell pair information
Total number of shell pairs                 ...      4278
Shell pairs after pre-screening             ...      4151
Total number of primitive shell pairs       ...     11003
Primitive shell pairs kept                  ...      8901
          la=0 lb=0:    974 shell pairs
          la=1 lb=0:   1188 shell pairs
          la=1 lb=1:    376 shell pairs
          la=2 lb=0:    655 shell pairs
          la=2 lb=1:    401 shell pairs
          la=2 lb=2:    119 shell pairs
          la=3 lb=0:    214 shell pairs
          la=3 lb=1:    134 shell pairs
          la=3 lb=2:     75 shell pairs
          la=3 lb=3:     15 shell pairs

Calculating one electron integrals          ... done (  0.0 sec)
Calculating RI/J V-Matrix + Cholesky decomp.... done (  0.0 sec)
Calculating Nuclear repulsion               ... done (  0.0 sec) ENN=    176.456334722981 Eh

SHARK setup successfully completed in   0.2 seconds

Maximum memory used throughout the entire GTOINT-calculation: 13.9 MB


           ************************************************************
           *        Program running with 4 parallel MPI-processes     *
           *              working on a common directory               *
           ************************************************************
-------------------------------------------------------------------------------
                                 ORCA SCF
-------------------------------------------------------------------------------

------------
SCF SETTINGS
------------
Hamiltonian:
 Density Functional     Method          .... DFT(GTOs)
 Exchange Functional    Exchange        .... PBE
   PBE kappa parameter   XKappa         ....  0.804000
   PBE mue parameter    XMuePBE         ....  0.219520
 Correlation Functional Correlation     .... PBE
   PBE beta parameter  CBetaPBE         ....  0.066725
 LDA part of GGA corr.  LDAOpt          .... PW91-LDA
 Gradients option       PostSCFGGA      .... off
 Hybrid DFT is turned on
   Fraction HF Exchange ScalHFX         ....  0.250000
   Scaling of DF-GGA-X  ScalDFX         ....  0.750000
   Scaling of DF-GGA-C  ScalDFC         ....  1.000000
   Scaling of DF-LDA-C  ScalLDAC        ....  1.000000
   Perturbative correction              ....  0.000000
   Density functional embedding theory  .... OFF
   NL short-range parameter             ....  6.900000
 RI-approximation to the Coulomb term is turned on
   Number of AuxJ basis functions       .... 300
   RIJ-COSX (HFX calculated with COS-X)).... on


General Settings:
 Integral files         IntName         .... TZVPD_PBE0_C1_wt_dlpno_neg
 Hartree-Fock type      HFTyp           .... RHF
 Total Charge           Charge          ....    0
 Multiplicity           Mult            ....    1
 Number of Electrons    NEL             ....   40
 Basis Dimension        Dim             ....  236
 Nuclear Repulsion      ENuc            ....    176.4563347230 Eh

Convergence Acceleration:
 DIIS                   CNVDIIS         .... on
   Start iteration      DIISMaxIt       ....    12
   Startup error        DIISStart       ....  0.200000
   # of expansion vecs  DIISMaxEq       ....     5
   Bias factor          DIISBfac        ....   1.050
   Max. coefficient     DIISMaxC        ....  10.000
 Trust-Rad. Augm. Hess. CNVTRAH         .... auto
   Auto Start mean grad. ratio tolernc. ....  1.125000
   Auto Start start iteration           ....    20
   Auto Start num. interpolation iter.  ....    10
   Max. Number of Micro iterations      ....    16
   Max. Number of Macro iterations      .... Maxiter - #DIIS iter
   Number of Davidson start vectors     ....     2
   Converg. threshold I  (grad. norm)   ....   1.000e-05
   Converg. threshold II (energy diff.) ....   1.000e-08
   Grad. Scal. Fac. for Micro threshold ....   0.100
   Minimum threshold for Micro iter.    ....   0.010
   NR start threshold (gradient norm)   ....   0.001
   Initial trust radius                 ....   0.400
   Minimum AH scaling param. (alpha)    ....   1.000
   Maximum AH scaling param. (alpha)    .... 1000.000
   Orbital update algorithm             .... Taylor
   White noise on init. David. guess    .... on
   Maximum white noise                  ....   0.010
   Quad. conv. algorithm                .... NR
 SOSCF                  CNVSOSCF        .... on
   Start iteration      SOSCFMaxIt      ....   150
   Startup grad/error   SOSCFStart      ....  0.003300
 Level Shifting         CNVShift        .... on
   Level shift para.    LevelShift      ....    0.2500
   Turn off err/grad.   ShiftErr        ....    0.0010
 Zerner damping         CNVZerner       .... off
 Static damping         CNVDamp         .... on
   Fraction old density DampFac         ....    0.7000
   Max. Damping (<1)    DampMax         ....    0.9800
   Min. Damping (>=0)   DampMin         ....    0.0000
   Turn off err/grad.   DampErr         ....    0.1000
 Fernandez-Rico         CNVRico         .... off

SCF Procedure:
 Maximum # iterations   MaxIter         ....   150
 SCF integral mode      SCFMode         .... Direct
   Integral package                     .... SHARK and LIBINT hybrid scheme
 Reset frequency        DirectResetFreq ....    20
 Integral Threshold     Thresh          ....  2.500e-11 Eh
 Primitive CutOff       TCut            ....  2.500e-12 Eh

Convergence Tolerance:
 Convergence Check Mode ConvCheckMode   .... Total+1el-Energy
 Convergence forced     ConvForced      .... 0
 Energy Change          TolE            ....  1.000e-08 Eh
 1-El. energy change                    ....  1.000e-05 Eh
 Orbital Gradient       TolG            ....  1.000e-05
 Orbital Rotation angle TolX            ....  1.000e-05
 DIIS Error             TolErr          ....  5.000e-07


Diagonalization of the overlap matrix:
Smallest eigenvalue                        ... 1.078e-05
Time for diagonalization                   ...    0.014 sec
Threshold for overlap eigenvalues          ... 1.000e-08
Number of eigenvalues below threshold      ... 0
Time for construction of square roots      ...    0.010 sec
Total time needed                          ...    0.025 sec

Time for model grid setup =    0.079 sec

------------------------------
INITIAL GUESS: MODEL POTENTIAL
------------------------------
Loading Hartree-Fock densities                     ... done
Calculating cut-offs                               ... done
Initializing the effective Hamiltonian             ... done
Setting up the integral package (SHARK)            ... done
Starting the Coulomb interaction                   ... done (   0.1 sec)
Reading the grid                                   ... done
Mapping shells                                     ... done
Starting the XC term evaluation                    ... done (   0.1 sec)
  promolecular density results
     # of electrons  =     39.998203193
     EX              =    -34.958310720
     EC              =     -1.330131537
     EX+EC           =    -36.288442256
Transforming the Hamiltonian                       ... done (   0.0 sec)
Diagonalizing the Hamiltonian                      ... done (   0.0 sec)
Back transforming the eigenvectors                 ... done (   0.0 sec)
Now organizing SCF variables                       ... done
                      ------------------
                      INITIAL GUESS DONE (   0.3 sec)
                      ------------------
-------------------
DFT GRID GENERATION
-------------------

General Integration Accuracy     IntAcc      ... 4.388
Radial Grid Type                 RadialGrid  ... OptM3 with GC (2021)
Angular Grid (max. ang.)         AngularGrid ... 4 (Lebedev-302)
Angular grid pruning method      GridPruning ... 4 (adaptive)
Weight generation scheme         WeightScheme... Becke
Basis function cutoff            BFCut       ... 1.0000e-11
Integration weight cutoff        WCut        ... 1.0000e-14
Angular grids for H and He will be reduced by one unit
Partially contracted basis set               ... off
Rotationally invariant grid construction     ... off

Total number of grid points                  ...    49089
Total number of batches                      ...      771
Average number of points per batch           ...       63
Average number of grid points per atom       ...     4909
Time for grid setup =    0.342 sec

--------------------
COSX GRID GENERATION
--------------------

GRIDX 1
-------
General Integration Accuracy     IntAcc      ... 3.816
Radial Grid Type                 RadialGrid  ... OptM3 with GC (2021)
Angular Grid (max. ang.)         AngularGrid ... 1 (Lebedev-50)
Angular grid pruning method      GridPruning ... 4 (adaptive)
Weight generation scheme         WeightScheme... Becke
Basis function cutoff            BFCut       ... 1.0000e-11
Integration weight cutoff        WCut        ... 1.0000e-14
Angular grids for H and He will be reduced by one unit
Partially contracted basis set               ... on
Rotationally invariant grid construction     ... off

Total number of grid points                  ...     6179
Total number of batches                      ...      101
Average number of points per batch           ...       61
Average number of grid points per atom       ...      618
UseSFitting                                  ... on

GRIDX 2
-------
General Integration Accuracy     IntAcc      ... 4.020
Radial Grid Type                 RadialGrid  ... OptM3 with GC (2021)
Angular Grid (max. ang.)         AngularGrid ... 2 (Lebedev-110)
Angular grid pruning method      GridPruning ... 4 (adaptive)
Weight generation scheme         WeightScheme... Becke
Basis function cutoff            BFCut       ... 1.0000e-11
Integration weight cutoff        WCut        ... 1.0000e-14
Angular grids for H and He will be reduced by one unit
Partially contracted basis set               ... on
Rotationally invariant grid construction     ... off

Total number of grid points                  ...    15350
Total number of batches                      ...      245
Average number of points per batch           ...       62
Average number of grid points per atom       ...     1535
UseSFitting                                  ... on

GRIDX 3
-------
General Integration Accuracy     IntAcc      ... 4.338
Radial Grid Type                 RadialGrid  ... OptM3 with GC (2021)
Angular Grid (max. ang.)         AngularGrid ... 3 (Lebedev-194)
Angular grid pruning method      GridPruning ... 4 (adaptive)
Weight generation scheme         WeightScheme... Becke
Basis function cutoff            BFCut       ... 1.0000e-11
Integration weight cutoff        WCut        ... 1.0000e-14
Angular grids for H and He will be reduced by one unit
Partially contracted basis set               ... on
Rotationally invariant grid construction     ... off

Total number of grid points                  ...    34130
Total number of batches                      ...      539
Average number of points per batch           ...       63
Average number of grid points per atom       ...     3413
UseSFitting                                  ... on

Time for X-Grid setup             =    0.386 sec

--------------
SCF ITERATIONS
--------------
ITER       Energy         Delta-E        Max-DP      RMS-DP      [F,P]     Damp
               ***  Starting incremental Fock matrix formation  ***
  0   -291.9917940236   0.000000000000 0.05725496  0.00136125  0.2874595 0.7000
  1   -292.0936514914  -0.101857467822 0.02969071  0.00087062  0.0961128 0.7000
                               ***Turning on DIIS***
  2   -292.1254541746  -0.031802683181 0.08283168  0.00141326  0.0383856 0.0000
  3   -292.1873305547  -0.061876380108 0.03019178  0.00057502  0.0511429 0.0000
  4   -292.1965099377  -0.009179383039 0.01385598  0.00019464  0.0229443 0.0000
                      *** Initiating the SOSCF procedure ***
                           *** Shutting down DIIS ***
                      *** Re-Reading the Fockian *** 
                      *** Removing any level shift *** 
ITER      Energy       Delta-E        Grad      Rot      Max-DP    RMS-DP
  5   -292.19789941  -0.0013894746  0.000598  0.000598  0.003068  0.000059
               *** Restarting incremental Fock matrix formation ***
  6   -292.19791710  -0.0000176893  0.000344  0.001024  0.001460  0.000043
  7   -292.19791710  -0.0000000033  0.000618  0.000679  0.000525  0.000015
  8   -292.19792031  -0.0000032024  0.000159  0.000236  0.000305  0.000011
  9   -292.19792030   0.0000000102  0.000091  0.000099  0.000136  0.000004
 10   -292.19792071  -0.0000004163  0.000007  0.000012  0.000066  0.000001
 11   -292.19792072  -0.0000000016  0.000006  0.000004  0.000051  0.000001
                  ***Gradient check signals convergence***
              ***Rediagonalizing the Fockian in SOSCF/NRSCF***

               *****************************************************
               *                     SUCCESS                       *
               *           SCF CONVERGED AFTER  12 CYCLES          *
               *****************************************************

Old exchange energy                            =     -8.899983414 Eh
New exchange energy                            =     -8.899997738 Eh
Exchange energy change after final integration =     -0.000014324 Eh
Total energy after final integration           =   -292.197935042 Eh
Final COS-X integration done in                =     3.198 sec

----------------
TOTAL SCF ENERGY
----------------

Total Energy       :         -292.19793504 Eh           -7951.11004 eV

Components:
Nuclear Repulsion  :          176.45633472 Eh            4801.62098 eV
Electronic Energy  :         -468.65426976 Eh          -12752.73102 eV
One Electron Energy:         -749.38184295 Eh          -20391.71664 eV
Two Electron Energy:          280.72757319 Eh            7638.98562 eV
Max COSX asymmetry :            0.00000339 Eh               0.00009 eV

Virial components:
Potential Energy   :         -583.18142025 Eh          -15869.17322 eV
Kinetic Energy     :          290.98348521 Eh            7918.06318 eV
Virial Ratio       :            2.00417360


DFT components:
N(Alpha)           :       19.999974566259 electrons
N(Beta)            :       19.999974566259 electrons
N(Total)           :       39.999949132519 electrons
E(X)               :      -26.656500908182 Eh       
E(C)               :       -1.335627501901 Eh       
E(XC)              :      -27.992128410083 Eh       
DFET-embed. en.    :        0.000000000000 Eh       

---------------
SCF CONVERGENCE
---------------

  Last Energy change         ...   -2.8519e-09  Tolerance :   1.0000e-08
  Last MAX-Density change    ...    1.1102e-15  Tolerance :   1.0000e-07
  Last RMS-Density change    ...    2.0657e-17  Tolerance :   5.0000e-09
  Last Orbital Gradient      ...    2.2563e-06  Tolerance :   1.0000e-05
  Last Orbital Rotation      ...    3.4994e-06  Tolerance :   1.0000e-05

             **** THE GBW FILE WAS UPDATED (TZVPD_PBE0_C1_wt_dlpno_neg.gbw) ****
             **** DENSITY TZVPD_PBE0_C1_wt_dlpno_neg.scfp WAS UPDATED ****
             **** ENERGY FILE WAS UPDATED (TZVPD_PBE0_C1_wt_dlpno_neg.en.tmp) ****
             **** THE GBW FILE WAS UPDATED (TZVPD_PBE0_C1_wt_dlpno_neg.gbw) ****
             **** DENSITY TZVPD_PBE0_C1_wt_dlpno_neg.scfp WAS UPDATED ****
----------------
ORBITAL ENERGIES
----------------

  NO   OCC          E(Eh)            E(eV) 
   0   2.0000     -24.842687      -676.0039 
   1   2.0000     -19.212215      -522.7910 
   2   2.0000     -10.399338      -282.9804 
   3   2.0000     -10.254560      -279.0408 
   4   2.0000     -10.222393      -278.1654 
   5   2.0000      -1.353474       -36.8299 
   6   2.0000      -1.062967       -28.9248 
   7   2.0000      -0.823208       -22.4006 
   8   2.0000      -0.713697       -19.4207 
   9   2.0000      -0.657828       -17.9004 
  10   2.0000      -0.566813       -15.4238 
  11   2.0000      -0.553603       -15.0643 
  12   2.0000      -0.526764       -14.3340 
  13   2.0000      -0.480326       -13.0703 
  14   2.0000      -0.449266       -12.2251 
  15   2.0000      -0.410395       -11.1674 
  16   2.0000      -0.390467       -10.6251 
  17   2.0000      -0.387898       -10.5552 
  18   2.0000      -0.361752        -9.8438 
  19   2.0000      -0.308081        -8.3833 
  20   0.0000      -0.025853        -0.7035 
  21   0.0000       0.008605         0.2341 
  22   0.0000       0.034741         0.9454 
  23   0.0000       0.044940         1.2229 
  24   0.0000       0.054984         1.4962 
  25   0.0000       0.080416         2.1882 
  26   0.0000       0.086134         2.3438 
  27   0.0000       0.090040         2.4501 
  28   0.0000       0.103170         2.8074 
  29   0.0000       0.103697         2.8217 
  30   0.0000       0.128250         3.4899 
  31   0.0000       0.132885         3.6160 
  32   0.0000       0.142391         3.8747 
  33   0.0000       0.151107         4.1118 
  34   0.0000       0.157962         4.2984 
  35   0.0000       0.169948         4.6245 
  36   0.0000       0.178073         4.8456 
  37   0.0000       0.198548         5.4028 
  38   0.0000       0.204609         5.5677 
  39   0.0000       0.213885         5.8201 
  40   0.0000       0.223414         6.0794 
  41   0.0000       0.237242         6.4557 
  42   0.0000       0.242628         6.6023 
  43   0.0000       0.260840         7.0978 
  44   0.0000       0.270514         7.3611 
  45   0.0000       0.279371         7.6021 
  46   0.0000       0.281571         7.6619 
  47   0.0000       0.289201         7.8696 
  48   0.0000       0.300753         8.1839 
  49   0.0000       0.306726         8.3464 
  50   0.0000       0.307264         8.3611 
  51   0.0000       0.318646         8.6708 
  52   0.0000       0.322488         8.7753 
  53   0.0000       0.329216         8.9584 
  54   0.0000       0.340077         9.2540 
  55   0.0000       0.354295         9.6408 
  56   0.0000       0.360692         9.8149 
  57   0.0000       0.365085         9.9345 
  58   0.0000       0.376846        10.2545 
  59   0.0000       0.389462        10.5978 
  60   0.0000       0.399143        10.8612 
  61   0.0000       0.406367        11.0578 
  62   0.0000       0.413533        11.2528 
  63   0.0000       0.420542        11.4435 
  64   0.0000       0.436649        11.8818 
  65   0.0000       0.445737        12.1291 
  66   0.0000       0.446802        12.1581 
  67   0.0000       0.456769        12.4293 
  68   0.0000       0.467936        12.7332 
  69   0.0000       0.471039        12.8176 
  70   0.0000       0.484113        13.1734 
  71   0.0000       0.505735        13.7617 
  72   0.0000       0.515663        14.0319 
  73   0.0000       0.547104        14.8875 
  74   0.0000       0.556947        15.1553 
  75   0.0000       0.572801        15.5867 
  76   0.0000       0.593208        16.1420 
  77   0.0000       0.601173        16.3587 
  78   0.0000       0.617099        16.7921 
  79   0.0000       0.626437        17.0462 
  80   0.0000       0.642878        17.4936 
  81   0.0000       0.648788        17.6544 
  82   0.0000       0.659253        17.9392 
  83   0.0000       0.678729        18.4692 
  84   0.0000       0.686373        18.6772 
  85   0.0000       0.692507        18.8441 
  86   0.0000       0.700293        19.0559 
  87   0.0000       0.706499        19.2248 
  88   0.0000       0.709867        19.3165 
  89   0.0000       0.714800        19.4507 
  90   0.0000       0.718695        19.5567 
  91   0.0000       0.736098        20.0302 
  92   0.0000       0.771277        20.9875 
  93   0.0000       0.784487        21.3470 
  94   0.0000       0.803505        21.8645 
  95   0.0000       0.813374        22.1330 
  96   0.0000       0.845783        23.0149 
  97   0.0000       0.853895        23.2357 
  98   0.0000       0.898781        24.4571 
  99   0.0000       0.919097        25.0099 
 100   0.0000       0.935779        25.4638 
 101   0.0000       0.961238        26.1566 
 102   0.0000       0.970891        26.4193 
 103   0.0000       0.983193        26.7540 
 104   0.0000       1.025629        27.9088 
 105   0.0000       1.046964        28.4893 
 106   0.0000       1.067988        29.0614 
 107   0.0000       1.116285        30.3757 
 108   0.0000       1.137604        30.9558 
 109   0.0000       1.177314        32.0363 
 110   0.0000       1.219032        33.1715 
 111   0.0000       1.225731        33.3538 
 112   0.0000       1.236574        33.6489 
 113   0.0000       1.269720        34.5508 
 114   0.0000       1.278716        34.7956 
 115   0.0000       1.310854        35.6701 
 116   0.0000       1.327394        36.1202 
 117   0.0000       1.369441        37.2644 
 118   0.0000       1.388183        37.7744 
 119   0.0000       1.483023        40.3551 
 120   0.0000       1.540296        41.9136 
 121   0.0000       1.647736        44.8372 
 122   0.0000       1.719257        46.7834 
 123   0.0000       1.742909        47.4270 
 124   0.0000       1.781816        48.4857 
 125   0.0000       1.791547        48.7505 
 126   0.0000       1.819466        49.5102 
 127   0.0000       1.829548        49.7845 
 128   0.0000       1.839881        50.0657 
 129   0.0000       1.850806        50.3630 
 130   0.0000       1.871400        50.9234 
 131   0.0000       1.891590        51.4728 
 132   0.0000       1.932286        52.5802 
 133   0.0000       1.969406        53.5903 
 134   0.0000       2.018665        54.9307 
 135   0.0000       2.029098        55.2146 
 136   0.0000       2.040018        55.5117 
 137   0.0000       2.093247        56.9601 
 138   0.0000       2.152746        58.5792 
 139   0.0000       2.179820        59.3159 
 140   0.0000       2.243234        61.0415 
 141   0.0000       2.257985        61.4429 
 142   0.0000       2.315626        63.0114 
 143   0.0000       2.368723        64.4562 
 144   0.0000       2.386348        64.9358 
 145   0.0000       2.426543        66.0296 
 146   0.0000       2.431314        66.1594 
 147   0.0000       2.463778        67.0428 
 148   0.0000       2.512605        68.3715 
 149   0.0000       2.531150        68.8761 
 150   0.0000       2.548491        69.3480 
 151   0.0000       2.558785        69.6281 
 152   0.0000       2.608017        70.9677 
 153   0.0000       2.633601        71.6639 
 154   0.0000       2.678115        72.8752 
 155   0.0000       2.703126        73.5558 
 156   0.0000       2.712718        73.8168 
 157   0.0000       2.749577        74.8198 
 158   0.0000       2.772881        75.4539 
 159   0.0000       2.824909        76.8697 
 160   0.0000       2.832073        77.0646 
 161   0.0000       2.902658        78.9853 
 162   0.0000       2.919577        79.4457 
 163   0.0000       2.997318        81.5612 
 164   0.0000       3.043431        82.8160 
 165   0.0000       3.062356        83.3310 
 166   0.0000       3.119622        84.8892 
 167   0.0000       3.157388        85.9169 
 168   0.0000       3.176667        86.4415 
 169   0.0000       3.211466        87.3884 
 170   0.0000       3.217107        87.5419 
 171   0.0000       3.242874        88.2431 
 172   0.0000       3.267263        88.9067 
 173   0.0000       3.321304        90.3773 
 174   0.0000       3.325167        90.4824 
 175   0.0000       3.349503        91.1446 
 176   0.0000       3.360384        91.4407 
 177   0.0000       3.428064        93.2824 
 178   0.0000       3.433753        93.4372 
 179   0.0000       3.462704        94.2250 
 180   0.0000       3.484223        94.8105 
 181   0.0000       3.507751        95.4507 
 182   0.0000       3.552365        96.6648 
 183   0.0000       3.572858        97.2224 
 184   0.0000       3.608089        98.1811 
 185   0.0000       3.615859        98.3925 
 186   0.0000       3.646112        99.2157 
 187   0.0000       3.751133       102.0735 
 188   0.0000       3.853361       104.8553 
 189   0.0000       3.867259       105.2335 
 190   0.0000       3.952063       107.5411 
 191   0.0000       3.975762       108.1860 
 192   0.0000       3.988466       108.5317 
 193   0.0000       4.090899       111.3190 
 194   0.0000       4.103448       111.6605 
 195   0.0000       4.172413       113.5371 
 196   0.0000       4.255633       115.8017 
 197   0.0000       4.306066       117.1740 
 198   0.0000       4.472785       121.7107 
 199   0.0000       4.530102       123.2703 
 200   0.0000       4.591155       124.9317 
 201   0.0000       4.652178       126.5922 
 202   0.0000       4.702737       127.9680 
 203   0.0000       4.738794       128.9491 
 204   0.0000       4.900941       133.3614 
 205   0.0000       4.956118       134.8628 
 206   0.0000       5.184579       141.0796 
 207   0.0000       5.208483       141.7300 
 208   0.0000       5.455651       148.4558 
 209   0.0000       5.519165       150.1841 
 210   0.0000       5.664729       154.1451 
 211   0.0000       6.003526       163.3643 
 212   0.0000       6.235307       169.6713 
 213   0.0000       6.295490       171.3090 
 214   0.0000       6.519685       177.4096 
 215   0.0000       6.596987       179.5131 
 216   0.0000       6.787461       184.6962 
 217   0.0000       6.831791       185.9025 
 218   0.0000       6.882906       187.2934 
 219   0.0000       6.908201       187.9817 
 220   0.0000       7.080750       192.6770 
 221   0.0000       7.136511       194.1943 
 222   0.0000       7.228583       196.6997 
 223   0.0000       7.406205       201.5331 
 224   0.0000       7.575818       206.1485 
 225   0.0000       7.847304       213.5360 
 226   0.0000       8.512131       231.6268 
 227   0.0000       8.567656       233.1378 
 228   0.0000       8.836139       240.4436 
 229   0.0000       9.037009       245.9095 
 230   0.0000       9.246339       251.6057 
 231   0.0000      22.639171       616.0432 
 232   0.0000      22.683179       617.2407 
 233   0.0000      23.465843       638.5381 
 234   0.0000      44.262234      1204.4366 
 235   0.0000      57.579751      1566.8247 

                    ********************************
                    * MULLIKEN POPULATION ANALYSIS *
                    ********************************

-----------------------
MULLIKEN ATOMIC CHARGES
-----------------------
   0 C :   -0.752327
   1 C :    0.075780
   2 H :    0.163641
   3 H :    0.148207
   4 C :    0.374059
   5 F :   -0.175877
   6 O :   -0.460956
   7 H :    0.219204
   8 H :    0.183034
   9 H :    0.225234
Sum of atomic charges:    0.0000000

--------------------------------
MULLIKEN REDUCED ORBITAL CHARGES
--------------------------------
  0 C s       :     3.165823  s :     3.165823
      pz      :     1.053265  p :     3.497251
      px      :     1.248636
      py      :     1.195350
      dz2     :     0.016825  d :     0.085907
      dxz     :     0.011143
      dyz     :     0.027521
      dx2y2   :     0.003920
      dxy     :     0.026497
      f0      :     0.000789  f :     0.003346
      f+1     :     0.000433
      f-1     :     0.000701
      f+2     :     0.000316
      f-2     :     0.000649
      f+3     :     0.000022
      f-3     :     0.000435
  1 C s       :     2.874311  s :     2.874311
      pz      :     0.976755  p :     3.001759
      px      :     1.098971
      py      :     0.926032
      dz2     :     0.023699  d :     0.042826
      dxz     :    -0.008347
      dyz     :     0.012516
      dx2y2   :    -0.015914
      dxy     :     0.030870
      f0      :     0.000978  f :     0.005324
      f+1     :     0.000598
      f-1     :     0.001201
      f+2     :     0.000774
      f-2     :     0.001011
      f+3     :     0.000160
      f-3     :     0.000602
  2 H s       :     0.793774  s :     0.793774
      pz      :     0.012465  p :     0.042585
      px      :     0.022639
      py      :     0.007482
  3 H s       :     0.809300  s :     0.809300
      pz      :     0.013723  p :     0.042493
      px      :     0.024927
      py      :     0.003843
  4 C s       :     3.199525  s :     3.199525
      pz      :     0.730161  p :     2.072396
      px      :     0.610092
      py      :     0.732142
      dz2     :     0.057102  d :     0.325738
      dxz     :     0.043830
      dyz     :     0.075220
      dx2y2   :     0.076076
      dxy     :     0.073510
      f0      :     0.003025  f :     0.028282
      f+1     :     0.005114
      f-1     :     0.001582
      f+2     :     0.002767
      f-2     :     0.005899
      f+3     :     0.003588
      f-3     :     0.006307
  5 F s       :     3.984847  s :     3.984847
      pz      :     1.723826  p :     5.171712
      px      :     1.571222
      py      :     1.876664
      dz2     :     0.004572  d :     0.018421
      dxz     :     0.004620
      dyz     :     0.002429
      dx2y2   :     0.004059
      dxy     :     0.002742
      f0      :     0.000086  f :     0.000897
      f+1     :     0.000198
      f-1     :     0.000020
      f+2     :     0.000219
      f-2     :     0.000142
      f+3     :     0.000123
      f-3     :     0.000108
  6 O s       :     3.961056  s :     3.961056
      pz      :     1.627489  p :     4.466285
      px      :     1.469675
      py      :     1.369120
      dz2     :     0.003379  d :     0.031883
      dxz     :     0.003784
      dyz     :     0.006198
      dx2y2   :     0.010122
      dxy     :     0.008400
      f0      :     0.000221  f :     0.001733
      f+1     :     0.000115
      f-1     :     0.000174
      f+2     :     0.000036
      f-2     :     0.000289
      f+3     :     0.000393
      f-3     :     0.000504
  7 H s       :     0.715361  s :     0.715361
      pz      :     0.005139  p :     0.065435
      px      :     0.038526
      py      :     0.021770
  8 H s       :     0.751791  s :     0.751791
      pz      :     0.026440  p :     0.065175
      px      :     0.016257
      py      :     0.022478
  9 H s       :     0.717527  s :     0.717527
      pz      :     0.012716  p :     0.057239
      px      :     0.026120
      py      :     0.018403


                     *******************************
                     * LOEWDIN POPULATION ANALYSIS *
                     *******************************

----------------------
LOEWDIN ATOMIC CHARGES
----------------------
   0 C :   -0.089677
   1 C :   -0.156936
   2 H :    0.108922
   3 H :    0.122341
   4 C :   -0.487423
   5 F :    0.206561
   6 O :    0.081070
   7 H :    0.071643
   8 H :    0.068877
   9 H :    0.074622

-------------------------------
LOEWDIN REDUCED ORBITAL CHARGES
-------------------------------
  0 C s       :     2.724840  s :     2.724840
      pz      :     0.931579  p :     2.889218
      px      :     0.983460
      py      :     0.974180
      dz2     :     0.099490  d :     0.449138
      dxz     :     0.092520
      dyz     :     0.138745
      dx2y2   :     0.026345
      dxy     :     0.092038
      f0      :     0.005647  f :     0.026480
      f+1     :     0.004644
      f-1     :     0.004132
      f+2     :     0.004637
      f-2     :     0.003075
      f+3     :     0.000976
      f-3     :     0.003368
  1 C s       :     2.679918  s :     2.679918
      pz      :     0.908890  p :     2.762580
      px      :     0.940690
      py      :     0.912999
      dz2     :     0.173445  d :     0.677340
      dxz     :     0.130537
      dyz     :     0.179799
      dx2y2   :     0.051628
      dxy     :     0.141931
      f0      :     0.006750  f :     0.037097
      f+1     :     0.005600
      f-1     :     0.006664
      f+2     :     0.006805
      f-2     :     0.005031
      f+3     :     0.001697
      f-3     :     0.004551
  2 H s       :     0.683534  s :     0.683534
      pz      :     0.052448  p :     0.207544
      px      :     0.086181
      py      :     0.068915
  3 H s       :     0.674819  s :     0.674819
      pz      :     0.056276  p :     0.202840
      px      :     0.081573
      py      :     0.064991
  4 C s       :     2.645998  s :     2.645998
      pz      :     0.731647  p :     2.325075
      px      :     0.740987
      py      :     0.852441
      dz2     :     0.215299  d :     1.335336
      dxz     :     0.244205
      dyz     :     0.251709
      dx2y2   :     0.316670
      dxy     :     0.307454
      f0      :     0.020865  f :     0.181013
      f+1     :     0.030447
      f-1     :     0.011090
      f+2     :     0.024088
      f-2     :     0.031934
      f+3     :     0.024206
      f-3     :     0.038383
  5 F s       :     3.511220  s :     3.511220
      pz      :     1.684619  p :     5.061010
      px      :     1.622675
      py      :     1.753717
      dz2     :     0.038364  d :     0.219029
      dxz     :     0.062951
      dyz     :     0.028069
      dx2y2   :     0.039912
      dxy     :     0.049733
      f0      :     0.000188  f :     0.002180
      f+1     :     0.000487
      f-1     :     0.000040
      f+2     :     0.000496
      f-2     :     0.000388
      f+3     :     0.000269
      f-3     :     0.000312
  6 O s       :     3.378801  s :     3.378801
      pz      :     1.459190  p :     4.324431
      px      :     1.422158
      py      :     1.443083
      dz2     :     0.028922  d :     0.210486
      dxz     :     0.021725
      dyz     :     0.043036
      dx2y2   :     0.055293
      dxy     :     0.061511
      f0      :     0.000519  f :     0.005212
      f+1     :     0.000417
      f-1     :     0.000672
      f+2     :     0.000098
      f-2     :     0.000731
      f+3     :     0.001543
      f-3     :     0.001231
  7 H s       :     0.695048  s :     0.695048
      pz      :     0.063782  p :     0.233309
      px      :     0.091305
      py      :     0.078222
  8 H s       :     0.707780  s :     0.707780
      pz      :     0.074156  p :     0.223343
      px      :     0.062318
      py      :     0.086869
  9 H s       :     0.704366  s :     0.704366
      pz      :     0.059473  p :     0.221012
      px      :     0.088980
      py      :     0.072559


                      *****************************
                      * MAYER POPULATION ANALYSIS *
                      *****************************

  NA   - Mulliken gross atomic population
  ZA   - Total nuclear charge
  QA   - Mulliken gross atomic charge
  VA   - Mayer's total valence
  BVA  - Mayer's bonded valence
  FA   - Mayer's free valence

  ATOM       NA         ZA         QA         VA         BVA        FA
  0 C      6.7523     6.0000    -0.7523     4.0067     4.0067     0.0000
  1 C      5.9242     6.0000     0.0758     3.6530     3.6530    -0.0000
  2 H      0.8364     1.0000     0.1636     1.0531     1.0531    -0.0000
  3 H      0.8518     1.0000     0.1482     1.0506     1.0506     0.0000
  4 C      5.6259     6.0000     0.3741     4.0704     4.0704     0.0000
  5 F      9.1759     9.0000    -0.1759     1.1705     1.1705    -0.0000
  6 O      8.4610     8.0000    -0.4610     1.9388     1.9388    -0.0000
  7 H      0.7808     1.0000     0.2192     1.0860     1.0860     0.0000
  8 H      0.8170     1.0000     0.1830     1.1152     1.1152     0.0000
  9 H      0.7748     1.0000     0.2252     1.0710     1.0710     0.0000

  Mayer bond orders larger than 0.100000
B(  0-C ,  1-C ) :   0.8301 B(  0-C ,  4-C ) :   0.1439 B(  0-C ,  7-H ) :   0.9933 
B(  0-C ,  8-H ) :   0.9909 B(  0-C ,  9-H ) :   0.9533 B(  1-C ,  2-H ) :   0.9652 
B(  1-C ,  3-H ) :   0.9099 B(  1-C ,  4-C ) :   0.9442 B(  4-C ,  5-F ) :   1.0594 
B(  4-C ,  6-O ) :   1.8105 

-------
TIMINGS
-------

Total SCF time: 0 days 0 hours 0 min 24 sec 

Total time                  ....      24.129 sec
Sum of individual times     ....      23.911 sec  ( 99.1%)

Fock matrix formation       ....      22.690 sec  ( 94.0%)
  Split-RI-J                ....       1.487 sec  (  6.6% of F)
  Chain of spheres X        ....      17.295 sec  ( 76.2% of F)
  XC integration            ....       3.846 sec  ( 16.9% of F)
    Basis function eval.    ....       1.076 sec  ( 28.0% of XC)
    Density eval.           ....       0.982 sec  ( 25.5% of XC)
    XC-Functional eval.     ....       0.157 sec  (  4.1% of XC)
    XC-Potential eval.      ....       1.482 sec  ( 38.5% of XC)
Diagonalization             ....       0.090 sec  (  0.4%)
Density matrix formation    ....       0.007 sec  (  0.0%)
Population analysis         ....       0.012 sec  (  0.0%)
Initial guess               ....       0.186 sec  (  0.8%)
Orbital Transformation      ....       0.000 sec  (  0.0%)
Orbital Orthonormalization  ....       0.000 sec  (  0.0%)
DIIS solution               ....       0.049 sec  (  0.2%)
SOSCF solution              ....       0.070 sec  (  0.3%)
Grid generation             ....       0.806 sec  (  3.3%)

Maximum memory used throughout the entire SCF-calculation: 70.8 MB


-------------------------------------------------------------------------------
                          DFT DISPERSION CORRECTION                            
                                                                               
                              DFTD3 V3.1  Rev 1                                
                          USING Becke-Johnson damping                          
-------------------------------------------------------------------------------
The PBE0 functional is recognized
Active option DFTDOPT                   ...         4   

molecular C6(AA) [au] = 808.452268 


            DFT-D V3
 parameters
 s6 scaling factor         :     1.0000 
 a1 scaling factor         :     0.4145 
 s8 scaling factor         :     1.2177 
 a2 scaling factor         :     4.8593 
 ad hoc parameters k1-k3   :    16.0000     1.3333    -4.0000 

 Edisp/kcal,au: -3.240416972930  -0.005163932596 
 E6   /kcal   :  -2.095396238 
 E8   /kcal   :  -1.145020735 
 % E8         :  35.335598610 

-------------------------   ----------------
Dispersion correction           -0.005163933
-------------------------   ----------------


-------------------------   --------------------
FINAL SINGLE POINT ENERGY      -292.203098974253
-------------------------   --------------------


                            ***************************************
                            *     ORCA property calculations      *
                            ***************************************

                                    ---------------------
                                    Active property flags
                                    ---------------------
   (+) Dipole Moment


------------------------------------------------------------------------------
                       ORCA ELECTRIC PROPERTIES CALCULATION
------------------------------------------------------------------------------

Dipole Moment Calculation                       ... on
Quadrupole Moment Calculation                   ... off
Polarizability Calculation                      ... off
GBWName                                         ... TZVPD_PBE0_C1_wt_dlpno_neg.gbw
Electron density file                           ... TZVPD_PBE0_C1_wt_dlpno_neg.scfp
The origin for moment calculation is the CENTER OF MASS  = (-0.944124, -0.140349 -9.052961)

-------------
DIPOLE MOMENT
-------------
                                X             Y             Z
Electronic contribution:      3.60087      -2.36215      -7.70622
Nuclear contribution   :     -3.36368       3.36392       8.24820
                        -----------------------------------------
Total Dipole Moment    :      0.23719       1.00177       0.54198
                        -----------------------------------------
Magnitude (a.u.)       :      1.16342
Magnitude (Debye)      :      2.95717



--------------------
Rotational spectrum 
--------------------
 
Rotational constants in cm-1:     0.315013     0.126712     0.098430 
Rotational constants in MHz :  9443.861322  3798.734540  2950.846388 

 Dipole components along the rotational axes: 
x,y,z [a.u.] :     0.624556    -0.972837    -0.130597 
x,y,z [Debye]:     1.587495    -2.472756    -0.331950 

 

Timings for individual modules:

Sum of individual times         ...       28.587 sec (=   0.476 min)
GTO integral calculation        ...        2.438 sec (=   0.041 min)   8.5 %
SCF iterations                  ...       26.150 sec (=   0.436 min)  91.5 %
                             ****ORCA TERMINATED NORMALLY****
TOTAL RUN TIME: 0 days 0 hours 0 minutes 29 seconds 150 msec
