
                                        *****************
                                        * O   R   C   A *
                                        *****************

                                            #,                                       
                                            ###                                      
                                            ####                                     
                                            #####                                    
                                            ######                                   
                                           ########,                                 
                                     ,,################,,,,,                         
                               ,,#################################,,                 
                          ,,##########################################,,             
                       ,#########################################, ''#####,          
                    ,#############################################,,   '####,        
                  ,##################################################,,,,####,       
                ,###########''''           ''''###############################       
              ,#####''   ,,,,##########,,,,          '''####'''          '####       
            ,##' ,,,,###########################,,,                        '##       
           ' ,,###''''                  '''############,,,                           
         ,,##''                                '''############,,,,        ,,,,,,###''
      ,#''                                            '''#######################'''  
     '                                                          ''''####''''         
             ,#######,   #######,   ,#######,      ##                                
            ,#'     '#,  ##    ##  ,#'     '#,    #''#        ######   ,####,        
            ##       ##  ##   ,#'  ##            #'  '#       #        #'  '#        
            ##       ##  #######   ##           ,######,      #####,   #    #        
            '#,     ,#'  ##    ##  '#,     ,#' ,#      #,         ##   #,  ,#        
             '#######'   ##     ##  '#######'  #'      '#     #####' # '####'        



                  #######################################################
                  #                        -***-                        #
                  #          Department of theory and spectroscopy      #
                  #    Directorship and core code : Frank Neese         #
                  #        Max Planck Institute fuer Kohlenforschung    #
                  #                Kaiser Wilhelm Platz 1               #
                  #                 D-45470 Muelheim/Ruhr               #
                  #                      Germany                        #
                  #                                                     #
                  #                  All rights reserved                #
                  #                        -***-                        #
                  #######################################################


                         Program Version 5.0.0 -  RELEASE  -
                                (SVN: $Rev: 19529$)
                ($Date: 2021-06-28 11:36:33 +0200 (Mo, 28 Jun 2021) $)


 With contributions from (in alphabetic order):
   Daniel Aravena         : Magnetic Suceptibility
   Michael Atanasov       : Ab Initio Ligand Field Theory (pilot matlab implementation)
   Alexander A. Auer      : GIAO ZORA, VPT2 properties, NMR spectrum
   Ute Becker             : Parallelization
   Giovanni Bistoni       : ED, misc. LED, open-shell LED, HFLD
   Martin Brehm           : Molecular dynamics
   Dmytro Bykov           : SCF Hessian
   Vijay G. Chilkuri      : MRCI spin determinant printing, contributions to CSF-ICE
   Dipayan Datta          : RHF DLPNO-CCSD density
   Achintya Kumar Dutta   : EOM-CC, STEOM-CC
   Dmitry Ganyushin       : Spin-Orbit,Spin-Spin,Magnetic field MRCI
   Miquel Garcia          : C-PCM Hessian, Gaussian charge scheme
   Yang Guo               : DLPNO-NEVPT2, F12-NEVPT2, CIM, IAO-localization
   Andreas Hansen         : Spin unrestricted coupled pair/coupled cluster methods
   Benjamin Helmich-Paris : MC-RPA, TRAH-SCF, COSX integrals
   Lee Huntington         : MR-EOM, pCC
   Robert Izsak           : Overlap fitted RIJCOSX, COSX-SCS-MP3, EOM
   Marcus Kettner         : VPT2
   Christian Kollmar      : KDIIS, OOCD, Brueckner-CCSD(T), CCSD density, CASPT2, CASPT2-K
   Simone Kossmann        : Meta GGA functionals, TD-DFT gradient, OOMP2, MP2 Hessian
   Martin Krupicka        : Initial AUTO-CI
   Lucas Lang             : DCDCAS
   Marvin Lechner         : AUTO-CI (C++ implementation), FIC-MRCC
   Dagmar Lenk            : GEPOL surface, SMD
   Dimitrios Liakos       : Extrapolation schemes; Compound Job, initial MDCI parallelization
   Dimitrios Manganas     : Further ROCIS development; embedding schemes
   Dimitrios Pantazis     : SARC Basis sets
   Anastasios Papadopoulos: AUTO-CI, single reference methods and gradients
   Taras Petrenko         : DFT Hessian,TD-DFT gradient, ASA, ECA, R-Raman, ABS, FL, XAS/XES, NRVS
   Peter Pinski           : DLPNO-MP2, DLPNO-MP2 Gradient
   Christoph Reimann      : Effective Core Potentials
   Marius Retegan         : Local ZFS, SOC
   Christoph Riplinger    : Optimizer, TS searches, QM/MM, DLPNO-CCSD(T), (RO)-DLPNO pert. Triples
   Tobias Risthaus        : Range-separated hybrids, TD-DFT gradient, RPA, STAB
   Michael Roemelt        : Original ROCIS implementation
   Masaaki Saitow         : Open-shell DLPNO-CCSD energy and density
   Barbara Sandhoefer     : DKH picture change effects
   Avijit Sen             : IP-ROCIS
   Kantharuban Sivalingam : CASSCF convergence, NEVPT2, FIC-MRCI
   Bernardo de Souza      : ESD, SOC TD-DFT
   Georgi Stoychev        : AutoAux, RI-MP2 NMR
   Willem Van den Heuvel  : Paramagnetic NMR
   Boris Wezisla          : Elementary symmetry handling
   Frank Wennmohs         : Technical directorship


 We gratefully acknowledge several colleagues who have allowed us to
 interface, adapt or use parts of their codes:
   Stefan Grimme, W. Hujo, H. Kruse, P. Pracht,  : VdW corrections, initial TS optimization,
                  C. Bannwarth, S. Ehlert          DFT functionals, gCP, sTDA/sTD-DF
   Ed Valeev, F. Pavosevic, A. Kumar             : LibInt (2-el integral package), F12 methods
   Garnet Chan, S. Sharma, J. Yang, R. Olivares  : DMRG
   Ulf Ekstrom                                   : XCFun DFT Library
   Mihaly Kallay                                 : mrcc  (arbitrary order and MRCC methods)
   Jiri Pittner, Ondrej Demel                    : Mk-CCSD
   Frank Weinhold                                : gennbo (NPA and NBO analysis)
   Christopher J. Cramer and Donald G. Truhlar   : smd solvation model
   Lars Goerigk                                  : TD-DFT with DH, B97 family of functionals
   V. Asgeirsson, H. Jonsson                     : NEB implementation
   FAccTs GmbH                                   : IRC, NEB, NEB-TS, DLPNO-Multilevel, CI-OPT
                                                   MM, QMMM, 2- and 3-layer-ONIOM, Crystal-QMMM,
                                                   LR-CPCM, SF, NACMEs, symmetry and pop. for TD-DFT,
                                                   nearIR, NL-DFT gradient (VV10), updates on ESD,
                                                   ML-optimized integration grids
   S Lehtola, MJT Oliveira, MAL Marques          : LibXC Library
   Liviu Ungur et al                             : ANISO software


 Your calculation uses the libint2 library for the computation of 2-el integrals
 For citations please refer to: http://libint.valeyev.net

 Your ORCA version has been built with support for libXC version: 5.1.0
 For citations please refer to: https://tddft.org/programs/libxc/

 This ORCA versions uses:
   CBLAS   interface :  Fast vector & matrix operations
   LAPACKE interface :  Fast linear algebra routines
   SCALAPACK package :  Parallel linear algebra routines
   Shared memory     :  Shared parallel matrices
   BLAS/LAPACK       :  OpenBLAS 0.3.15  USE64BITINT DYNAMIC_ARCH NO_AFFINITY Haswell SINGLE_THREADED
        Core in use  :  Haswell
   Copyright (c) 2011-2014, The OpenBLAS Project


================================================================================

----- Orbital basis set information -----
Your calculation utilizes the basis: aug-cc-pVTZ 
    H, B-Ne : Obtained from the ccRepo (grant-hill.group.shef.ac.uk/ccrepo) Feb. 2017
              R. A. Kendall, T. H. Dunning, Jr., R. J. Harrison, J. Chem. Phys. 96, 6796 (1992)
         He : Obtained from the ccRepo (grant-hill.group.shef.ac.uk/ccrepo) Feb. 2017
              D. E. Woon, T. H. Dunning, Jr., J. Chem. Phys. 100, 2975 (1994)
  Li-Be, Na : Obtained from the ccRepo (grant-hill.group.shef.ac.uk/ccrepo) Feb. 2017
              B. P. Prascher, D. E. Woon, K. A. Peterson, T. H. Dunning, Jr., A. K. Wilson, Theor. Chem. Acc. 128, 69 (2011)
         Mg : Obtained from the Peterson Research Group Website (tyr0.chem.wsu.edu/~kipeters) Feb. 2017
              B. P. Prascher, D. E. Woon, K. A. Peterson, T. H. Dunning, Jr., A. K. Wilson, Theor. Chem. Acc. 128, 69 (2011)
      Al-Ar : Obtained from the ccRepo (grant-hill.group.shef.ac.uk/ccrepo) Feb. 2017
              D. E. Woon, T. H. Dunning, Jr., J. Chem. Phys. 98, 1358 (1993)
      Sc-Zn : Obtained from the ccRepo (grant-hill.group.shef.ac.uk/ccrepo) Feb. 2017
              N. B. Balabanov, K. A. Peterson, J. Chem. Phys. 123, 064107 (2005)
              N. B. Balabanov, K. A. Peterson, J. Chem. Phys. 125, 074110 (2006)
      Ga-Kr : Obtained from the ccRepo (grant-hill.group.shef.ac.uk/ccrepo) Feb. 2017
              A. K. Wilson, D. E. Woon, K. A. Peterson, T. H. Dunning, Jr., J. Chem. Phys. 110, 7667 (1999)
     Ag, Au : Obtained from the Peterson Research Group Website (tyr0.chem.wsu.edu/~kipeters) Feb. 2017
              K. A. Peterson, C. Puzzarini, Theor. Chem. Acc. 114, 283 (2005)

----- AuxJ basis set information -----
Your calculation utilizes the auxiliary basis: def2/J
   F. Weigend, Phys. Chem. Chem. Phys. 8, 1057 (2006).

----- AuxC basis set information -----
Your calculation utilizes the auxiliary basis: aug-cc-pVTZ/C 
  H-He, B-F, Al-Ar, Ga-Kr : Obtained from the EMSL Basis Set Exchange (bse.pnl.gov) Feb. 2017
                            F. Weigend, A. Kohn, C. Hattig, J. Chem. Phys. 116, 3175 (2002)
                   Be, Mg : Obtained from the TURBOMOLE 7.0 basis set library
                            C. Haettig, Phys. Chem. Chem. Phys. 7, 59 (2005)
                       Ne : Obtained from the EMSL Basis Set Exchange (bse.pnl.gov) Feb. 2017
                            C. Haettig, Phys. Chem. Chem. Phys. 7, 59 (2005)
                            F. Weigend, A. Kohn, C. Hattig, J. Chem. Phys. 116, 3175 (2002)
                    Sc-Zn : Obtained from the EMSL Basis Set Exchange (bse.pnl.gov) Feb. 2017
                            J. G. Hill, J. A. Platts, J. Chem. Phys. 128, 044104 (2008)

================================================================================
                                        WARNINGS
                       Please study these warnings very carefully!
================================================================================


WARNING: Post HF methods need fully converged wavefunctions
  ===> : Setting SCFConvForced true
         You can overwrite this default with %scf ConvForced false 


WARNING: MDCI localization with Augmented Hessian Foster-Boys
  ===> : Switching off randomization!

INFO   : the flag for use of the SHARK integral package has been found!

================================================================================
                                       INPUT FILE
================================================================================
NAME = C1_wt_dlpno_neg.com
|  1> !DLPNO-CCSD(T) aug-cc-pVTZ aug-cc-pVTZ/C TightSCF TightPNO RIJCOSX def2/J 
|  2> *xyz 0 1 
|  3> C          4.90646       -3.10282       -5.95484
|  4> C          3.51177       -2.80621       -6.49228
|  5> H          2.73604       -3.37345       -5.97374
|  6> H          3.44490       -3.04083       -7.55528
|  7> S          3.00462       -1.09621       -6.38926
|  8> F          4.12886       -0.32965       -6.95372
|  9> O          1.78128       -1.00078       -7.13640
| 10> C          5.02498       -3.02568       -4.43762
| 11> H          5.20153       -4.10021       -6.29691
| 12> H          5.60592       -2.39782       -6.41337
| 13> O          2.85155       -0.78368       -4.95679
| 14> H          4.73604       -2.05011       -4.10644
| 15> H          6.03776       -3.21492       -4.14890
| 16> H          4.38436       -3.75784       -3.99214
| 17> *
| 18> 
| 19> %MaxCore 64000
| 20> 
| 21> %pal nprocs 2
| 22> end  
| 23> 
| 24> %scf
| 25>   MaxIter 150
| 26> end
| 27> 
| 28> 
| 29>                          ****END OF INPUT****
================================================================================

                       ****************************
                       * Single Point Calculation *
                       ****************************

---------------------------------
CARTESIAN COORDINATES (ANGSTROEM)
---------------------------------
  C      4.906460   -3.102820   -5.954840
  C      3.511770   -2.806210   -6.492280
  H      2.736040   -3.373450   -5.973740
  H      3.444900   -3.040830   -7.555280
  S      3.004620   -1.096210   -6.389260
  F      4.128860   -0.329650   -6.953720
  O      1.781280   -1.000780   -7.136400
  C      5.024980   -3.025680   -4.437620
  H      5.201530   -4.100210   -6.296910
  H      5.605920   -2.397820   -6.413370
  O      2.851550   -0.783680   -4.956790
  H      4.736040   -2.050110   -4.106440
  H      6.037760   -3.214920   -4.148900
  H      4.384360   -3.757840   -3.992140

----------------------------
CARTESIAN COORDINATES (A.U.)
----------------------------
  NO LB      ZA    FRAG     MASS         X           Y           Z
   0 C     6.0000    0    12.011    9.271866   -5.863480  -11.253017
   1 C     6.0000    0    12.011    6.636284   -5.302968  -12.268631
   2 H     1.0000    0     1.008    5.170366   -6.374897  -11.288733
   3 H     1.0000    0     1.008    6.509918   -5.746336  -14.277410
   4 S    16.0000    0    32.060    5.677909   -2.071537  -12.073952
   5 F     9.0000    0    18.998    7.802415   -0.622948  -13.140626
   6 O     8.0000    0    15.999    3.366131   -1.891200  -13.485842
   7 C     6.0000    0    12.011    9.495836   -5.717707   -8.385886
   8 H     1.0000    0     1.008    9.829467   -7.748274  -11.899435
   9 H     1.0000    0     1.008   10.593654   -4.531223  -12.119513
  10 O     8.0000    0    15.999    5.388649   -1.480941   -9.366976
  11 H     1.0000    0     1.008    8.949819   -3.874146   -7.760047
  12 H     1.0000    0     1.008   11.409713   -6.075318   -7.840285
  13 H     1.0000    0     1.008    8.285240   -7.101288   -7.544051

--------------------------------
INTERNAL COORDINATES (ANGSTROEM)
--------------------------------
 C      0   0   0     0.000000000000     0.00000000     0.00000000
 C      1   0   0     1.523804266236     0.00000000     0.00000000
 H      2   1   0     1.091971603156   112.43304848     0.00000000
 H      2   1   3     1.090636117731   110.97760763   239.02835081
 S      2   1   3     1.786592914712   115.20009066   120.99053177
 F      5   2   1     1.473141168660   105.02979337    49.07237270
 O      5   2   1     1.436623061245   105.98059332   170.73836034
 C      1   2   3     1.523795950382   114.36256269   310.66427162
 H      1   2   3     1.094926939069   108.28708237    73.23652595
 H      1   2   3     1.093855133233   108.17760380   188.26823295
 O      5   2   1     1.474135586267   106.76390466   292.33415873
 H      8   1   2     1.070001561167   109.47104193   301.83039148
 H      8   1   2     1.069997357193   109.47131719   181.83055342
 H      8   1   2     1.070002187101   109.47113594    61.83048058

---------------------------
INTERNAL COORDINATES (A.U.)
---------------------------
 C      0   0   0     0.000000000000     0.00000000     0.00000000
 C      1   0   0     2.879572744887     0.00000000     0.00000000
 H      2   1   0     2.063527275985   112.43304848     0.00000000
 H      2   1   3     2.061003574275   110.97760763   239.02835081
 S      2   1   3     3.376171321610   115.20009066   120.99053177
 F      5   2   1     2.783833365371   105.02979337    49.07237270
 O      5   2   1     2.714824143428   105.98059332   170.73836034
 C      1   2   3     2.879557030200   114.36256269   310.66427162
 H      1   2   3     2.069112051494   108.28708237    73.23652595
 H      1   2   3     2.067086631994   108.17760380   188.26823295
 O      5   2   1     2.785712542313   106.76390466   292.33415873
 H      8   1   2     2.022009913474   109.47104193   301.83039148
 H      8   1   2     2.022001969114   109.47131719   181.83055342
 H      8   1   2     2.022011096317   109.47113594    61.83048058

---------------------
BASIS SET INFORMATION
---------------------
There are 5 groups of distinct atoms

 Group   1 Type C   : 19s6p3d2f contracted to 5s4p3d2f pattern {88111/3111/111/11}
 Group   2 Type H   : 6s3p2d contracted to 4s3p2d pattern {3111/111/11}
 Group   3 Type S   : 42s17p3d2f contracted to 6s5p3d2f pattern {131313111/77111/111/11}
 Group   4 Type F   : 19s6p3d2f contracted to 5s4p3d2f pattern {88111/3111/111/11}
 Group   5 Type O   : 19s6p3d2f contracted to 5s4p3d2f pattern {88111/3111/111/11}

Atom   0C    basis set group =>   1
Atom   1C    basis set group =>   1
Atom   2H    basis set group =>   2
Atom   3H    basis set group =>   2
Atom   4S    basis set group =>   3
Atom   5F    basis set group =>   4
Atom   6O    basis set group =>   5
Atom   7C    basis set group =>   1
Atom   8H    basis set group =>   2
Atom   9H    basis set group =>   2
Atom  10O    basis set group =>   5
Atom  11H    basis set group =>   2
Atom  12H    basis set group =>   2
Atom  13H    basis set group =>   2
---------------------------------
AUXILIARY/J BASIS SET INFORMATION
---------------------------------
There are 5 groups of distinct atoms

 Group   1 Type C   : 12s5p4d2f1g contracted to 6s4p3d1f1g pattern {711111/2111/211/2/1}
 Group   2 Type H   : 5s2p1d contracted to 3s1p1d pattern {311/2/1}
 Group   3 Type S   : 14s5p5d2f1g contracted to 8s4p3d1f1g pattern {71111111/2111/311/2/1}
 Group   4 Type F   : 12s5p4d2f1g contracted to 6s4p3d1f1g pattern {711111/2111/211/2/1}
 Group   5 Type O   : 12s5p4d2f1g contracted to 6s4p3d1f1g pattern {711111/2111/211/2/1}

Atom   0C    basis set group =>   1
Atom   1C    basis set group =>   1
Atom   2H    basis set group =>   2
Atom   3H    basis set group =>   2
Atom   4S    basis set group =>   3
Atom   5F    basis set group =>   4
Atom   6O    basis set group =>   5
Atom   7C    basis set group =>   1
Atom   8H    basis set group =>   2
Atom   9H    basis set group =>   2
Atom  10O    basis set group =>   5
Atom  11H    basis set group =>   2
Atom  12H    basis set group =>   2
Atom  13H    basis set group =>   2
---------------------------------
AUXILIARY/C BASIS SET INFORMATION
---------------------------------
There are 5 groups of distinct atoms

 Group   1 Type C   : 9s7p6d4f2g contracted to 9s7p6d4f2g pattern {111111111/1111111/111111/1111/11}
 Group   2 Type H   : 5s4p3d2f contracted to 5s4p3d2f pattern {11111/1111/111/11}
 Group   3 Type S   : 11s9p8d6f3g contracted to 11s9p8d6f3g pattern {11111111111/111111111/11111111/111111/111}
 Group   4 Type F   : 9s7p6d4f2g contracted to 9s7p6d4f2g pattern {111111111/1111111/111111/1111/11}
 Group   5 Type O   : 9s7p6d4f2g contracted to 9s7p6d4f2g pattern {111111111/1111111/111111/1111/11}

Atom   0C    basis set group =>   1
Atom   1C    basis set group =>   1
Atom   2H    basis set group =>   2
Atom   3H    basis set group =>   2
Atom   4S    basis set group =>   3
Atom   5F    basis set group =>   4
Atom   6O    basis set group =>   5
Atom   7C    basis set group =>   1
Atom   8H    basis set group =>   2
Atom   9H    basis set group =>   2
Atom  10O    basis set group =>   5
Atom  11H    basis set group =>   2
Atom  12H    basis set group =>   2
Atom  13H    basis set group =>   2


           ************************************************************
           *        Program running with 2 parallel MPI-processes     *
           *              working on a common directory               *
           ************************************************************
------------------------------------------------------------------------------
                           ORCA GTO INTEGRAL CALCULATION
                           -- RI-GTO INTEGRALS CHOSEN --
------------------------------------------------------------------------------
------------------------------------------------------------------------------
                   ___                                                        
                  /   \      - P O W E R E D   B Y -                         
                 /     \                                                     
                 |  |  |   _    _      __       _____    __    __             
                 |  |  |  | |  | |    /  \     |  _  \  |  |  /  |          
                  \  \/   | |  | |   /    \    | | | |  |  | /  /          
                 / \  \   | |__| |  /  /\  \   | |_| |  |  |/  /          
                |  |  |   |  __  | /  /__\  \  |    /   |      \           
                |  |  |   | |  | | |   __   |  |    \   |  |\   \          
                \     /   | |  | | |  |  |  |  | |\  \  |  | \   \       
                 \___/    |_|  |_| |__|  |__|  |_| \__\ |__|  \__/        
                                                                              
                      - O R C A' S   B I G   F R I E N D -                    
                                      &                                       
                       - I N T E G R A L  F E E D E R -                       
                                                                              
 v1 FN, 2020, v2 2021                                                         
------------------------------------------------------------------------------


Reading SHARK input file C1_wt_dlpno_neg.SHARKINP.tmp ... ok
----------------------
SHARK INTEGRAL PACKAGE
----------------------

Number of atoms                             ...     14
Number of basis functions                   ...    487
Number of shells                            ...    163
Maximum angular momentum                    ...      3
Integral batch strategy                     ... SHARK/LIBINT Hybrid
RI-J (if used) integral strategy            ... SPLIT-RIJ (Revised 2003 algorithm where possible)
Printlevel                                  ...      1
Contraction scheme used                     ... SEGMENTED contraction
Coulomb Range Separation                    ... NOT USED
Exchange Range Separation                   ... NOT USED
Finite Nucleus Model                        ... NOT USED
Auxiliary Coulomb fitting basis             ... AVAILABLE
   # of basis functions in Aux-J            ...    422
   # of shells in Aux-J                     ...    142
   Maximum angular momentum in Aux-J        ...      4
Auxiliary J/K fitting basis                 ... NOT available
Auxiliary Correlation fitting basis         ... AVAILABLE
   # of basis functions in Aux-C            ...   1105
   # of shells in Aux-C                     ...    303
   Maximum angular momentum in Aux-C        ...      4
Auxiliary 'external' fitting basis          ... NOT available
Integral threshold                          ...     2.500000e-11
Primitive cut-off                           ...     2.500000e-12
Primitive pair pre-selection threshold      ...     2.500000e-12

Calculating pre-screening integrals         ... done (  0.5 sec) Dimension = 163
Organizing shell pair data                  ... done (  0.2 sec)
Shell pair information
Total number of shell pairs                 ...     13366
Shell pairs after pre-screening             ...     13020
Total number of primitive shell pairs       ...     52332
Primitive shell pairs kept                  ...     38043
          la=0 lb=0:   2032 shell pairs
          la=1 lb=0:   3119 shell pairs
          la=1 lb=1:   1241 shell pairs
          la=2 lb=0:   2179 shell pairs
          la=2 lb=1:   1700 shell pairs
          la=2 lb=2:    611 shell pairs
          la=3 lb=0:    877 shell pairs
          la=3 lb=1:    681 shell pairs
          la=3 lb=2:    476 shell pairs
          la=3 lb=3:    104 shell pairs

Calculating one electron integrals          ... done (  0.1 sec)
Calculating RI/J V-Matrix + Cholesky decomp.... done (  0.1 sec)
Calculating RI/C V-Matrix + Cholesky decomp.... done (  0.1 sec)
Calculating Nuclear repulsion               ... done (  0.0 sec) ENN=    448.193321789770 Eh

SHARK setup successfully completed in   1.0 seconds

Maximum memory used throughout the entire GTOINT-calculation: 48.4 MB


           ************************************************************
           *        Program running with 2 parallel MPI-processes     *
           *              working on a common directory               *
           ************************************************************
-------------------------------------------------------------------------------
                                 ORCA SCF
-------------------------------------------------------------------------------

------------
SCF SETTINGS
------------
Hamiltonian:
 Ab initio Hamiltonian  Method          .... Hartree-Fock(GTOs)
 RI-approximation to the Coulomb term is turned on
   Number of AuxJ basis functions       .... 422
   RIJ-COSX (HFX calculated with COS-X)).... on


General Settings:
 Integral files         IntName         .... C1_wt_dlpno_neg
 Hartree-Fock type      HFTyp           .... RHF
 Total Charge           Charge          ....    0
 Multiplicity           Mult            ....    1
 Number of Electrons    NEL             ....   66
 Basis Dimension        Dim             ....  487
 Nuclear Repulsion      ENuc            ....    448.1933217898 Eh

Convergence Acceleration:
 DIIS                   CNVDIIS         .... on
   Start iteration      DIISMaxIt       ....    12
   Startup error        DIISStart       ....  0.200000
   # of expansion vecs  DIISMaxEq       ....     5
   Bias factor          DIISBfac        ....   1.050
   Max. coefficient     DIISMaxC        ....  10.000
 Trust-Rad. Augm. Hess. CNVTRAH         .... auto
   Auto Start mean grad. ratio tolernc. ....  1.125000
   Auto Start start iteration           ....    20
   Auto Start num. interpolation iter.  ....    10
   Max. Number of Micro iterations      ....    16
   Max. Number of Macro iterations      .... Maxiter - #DIIS iter
   Number of Davidson start vectors     ....     2
   Converg. threshold I  (grad. norm)   ....   1.000e-05
   Converg. threshold II (energy diff.) ....   1.000e-08
   Grad. Scal. Fac. for Micro threshold ....   0.100
   Minimum threshold for Micro iter.    ....   0.010
   NR start threshold (gradient norm)   ....   0.001
   Initial trust radius                 ....   0.400
   Minimum AH scaling param. (alpha)    ....   1.000
   Maximum AH scaling param. (alpha)    .... 1000.000
   Orbital update algorithm             .... Taylor
   White noise on init. David. guess    .... on
   Maximum white noise                  ....   0.010
   Quad. conv. algorithm                .... NR
 SOSCF                  CNVSOSCF        .... on
   Start iteration      SOSCFMaxIt      ....   150
   Startup grad/error   SOSCFStart      ....  0.003300
 Level Shifting         CNVShift        .... on
   Level shift para.    LevelShift      ....    0.2500
   Turn off err/grad.   ShiftErr        ....    0.0010
 Zerner damping         CNVZerner       .... off
 Static damping         CNVDamp         .... on
   Fraction old density DampFac         ....    0.7000
   Max. Damping (<1)    DampMax         ....    0.9800
   Min. Damping (>=0)   DampMin         ....    0.0000
   Turn off err/grad.   DampErr         ....    0.1000
 Fernandez-Rico         CNVRico         .... off

SCF Procedure:
 Maximum # iterations   MaxIter         ....   150
 SCF integral mode      SCFMode         .... Direct
   Integral package                     .... SHARK and LIBINT hybrid scheme
 Reset frequency        DirectResetFreq ....    20
 Integral Threshold     Thresh          ....  2.500e-11 Eh
 Primitive CutOff       TCut            ....  2.500e-12 Eh

Convergence Tolerance:
 Convergence Check Mode ConvCheckMode   .... Total+1el-Energy
 Convergence forced     ConvForced      .... 1
 Energy Change          TolE            ....  1.000e-08 Eh
 1-El. energy change                    ....  1.000e-05 Eh
 Orbital Gradient       TolG            ....  1.000e-05
 Orbital Rotation angle TolX            ....  1.000e-05
 DIIS Error             TolErr          ....  5.000e-07


Diagonalization of the overlap matrix:
Smallest eigenvalue                        ... 1.002e-05
Time for diagonalization                   ...    0.066 sec
Threshold for overlap eigenvalues          ... 1.000e-08
Number of eigenvalues below threshold      ... 0
Time for construction of square roots      ...    0.034 sec
Total time needed                          ...    0.103 sec

Time for model grid setup =    0.314 sec

------------------------------
INITIAL GUESS: MODEL POTENTIAL
------------------------------
Loading Hartree-Fock densities                     ... done
Calculating cut-offs                               ... done
Initializing the effective Hamiltonian             ... done
Setting up the integral package (SHARK)            ... done
Starting the Coulomb interaction                   ... done (   0.5 sec)
Reading the grid                                   ... done
Mapping shells                                     ... done
Starting the XC term evaluation                    ... done (   0.4 sec)
Transforming the Hamiltonian                       ... done (   0.0 sec)
Diagonalizing the Hamiltonian                      ... done (   0.0 sec)
Back transforming the eigenvectors                 ... done (   0.0 sec)
Now organizing SCF variables                       ... done
                      ------------------
                      INITIAL GUESS DONE (   1.3 sec)
                      ------------------
--------------------
COSX GRID GENERATION
--------------------

GRIDX 1
-------
General Integration Accuracy     IntAcc      ... 3.816
Radial Grid Type                 RadialGrid  ... OptM3 with GC (2021)
Angular Grid (max. ang.)         AngularGrid ... 1 (Lebedev-50)
Angular grid pruning method      GridPruning ... 4 (adaptive)
Weight generation scheme         WeightScheme... Becke
Basis function cutoff            BFCut       ... 1.0000e-11
Integration weight cutoff        WCut        ... 1.0000e-14
Angular grids for H and He will be reduced by one unit
Partially contracted basis set               ... on
Rotationally invariant grid construction     ... off

Total number of grid points                  ...     8624
Total number of batches                      ...      142
Average number of points per batch           ...       60
Average number of grid points per atom       ...      616
UseSFitting                                  ... on

GRIDX 2
-------
General Integration Accuracy     IntAcc      ... 4.020
Radial Grid Type                 RadialGrid  ... OptM3 with GC (2021)
Angular Grid (max. ang.)         AngularGrid ... 2 (Lebedev-110)
Angular grid pruning method      GridPruning ... 4 (adaptive)
Weight generation scheme         WeightScheme... Becke
Basis function cutoff            BFCut       ... 1.0000e-11
Integration weight cutoff        WCut        ... 1.0000e-14
Angular grids for H and He will be reduced by one unit
Partially contracted basis set               ... on
Rotationally invariant grid construction     ... off

Total number of grid points                  ...    20943
Total number of batches                      ...      336
Average number of points per batch           ...       62
Average number of grid points per atom       ...     1496
UseSFitting                                  ... on

GRIDX 3
-------
General Integration Accuracy     IntAcc      ... 4.338
Radial Grid Type                 RadialGrid  ... OptM3 with GC (2021)
Angular Grid (max. ang.)         AngularGrid ... 3 (Lebedev-194)
Angular grid pruning method      GridPruning ... 4 (adaptive)
Weight generation scheme         WeightScheme... Becke
Basis function cutoff            BFCut       ... 1.0000e-11
Integration weight cutoff        WCut        ... 1.0000e-14
Angular grids for H and He will be reduced by one unit
Partially contracted basis set               ... on
Rotationally invariant grid construction     ... off

Total number of grid points                  ...    47180
Total number of batches                      ...      743
Average number of points per batch           ...       63
Average number of grid points per atom       ...     3370
UseSFitting                                  ... on

Time for X-Grid setup             =    1.616 sec

 re-compute Schwartz prescreening matrix in partically contracted basis (1) ...done (   0.317 sec)
--------------
SCF ITERATIONS
--------------
ITER       Energy         Delta-E        Max-DP      RMS-DP      [F,P]     Damp
               ***  Starting incremental Fock matrix formation  ***
  0   -764.0241603688   0.000000000000 0.08293627  0.00075998  0.3332373 0.7000
  1   -764.1937203858  -0.169560016931 0.05585002  0.00057909  0.1857503 0.7000
                               ***Turning on DIIS***
  2   -764.2878400435  -0.094119657755 0.03720157  0.00039981  0.1150475 0.7000
  3   -764.6871996610  -0.399359617459 0.08026638  0.00099878  0.0836968 0.0000
  4   -764.4394825876   0.247717073403 0.01612824  0.00014734  0.0099369 0.0000
                      *** Initiating the SOSCF procedure ***
                           *** Shutting down DIIS ***
                      *** Re-Reading the Fockian *** 
                      *** Removing any level shift *** 
ITER      Energy       Delta-E        Grad      Rot      Max-DP    RMS-DP
  5   -764.46615092  -0.0266683320  0.001547  0.001547  0.005097  0.000063
               *** Restarting incremental Fock matrix formation ***
  6   -764.48068262  -0.0145317001  0.000712  0.000728  0.013511  0.000152
  7   -764.48072288  -0.0000402608  0.000335  0.000727  0.004240  0.000059
  8   -764.48073269  -0.0000098080  0.000212  0.000065  0.003854  0.000040
  9   -764.48073351  -0.0000008190  0.000016  0.000022  0.000551  0.000009
 10   -764.48073358  -0.0000000774  0.000018  0.000016  0.000267  0.000002
 11   -764.48073360  -0.0000000137  0.000004  0.000003  0.000087  0.000001
                  ***Gradient check signals convergence***
              ***Rediagonalizing the Fockian in SOSCF/NRSCF***

               *****************************************************
               *                     SUCCESS                       *
               *           SCF CONVERGED AFTER  12 CYCLES          *
               *****************************************************

Old exchange energy                            =    -69.908483398 Eh
New exchange energy                            =    -69.908603879 Eh
Exchange energy change after final integration =     -0.000120481 Eh
Total energy after final integration           =   -764.480854082 Eh
Final COS-X integration done in                =    31.028 sec

----------------
TOTAL SCF ENERGY
----------------

Total Energy       :         -764.48085408 Eh          -20802.58162 eV

Components:
Nuclear Repulsion  :          448.19332179 Eh           12195.96032 eV
Electronic Energy  :        -1212.67417587 Eh          -32998.54194 eV
One Electron Energy:        -1943.02844642 Eh          -52872.49201 eV
Two Electron Energy:          730.35427055 Eh           19873.95007 eV
Max COSX asymmetry :            0.00002975 Eh               0.00081 eV

Virial components:
Potential Energy   :        -1528.40100675 Eh          -41589.90578 eV
Kinetic Energy     :          763.92015267 Eh           20787.32416 eV
Virial Ratio       :            2.00073398


---------------
SCF CONVERGENCE
---------------

  Last Energy change         ...   -3.1682e-09  Tolerance :   1.0000e-08
  Last MAX-Density change    ...    2.6645e-15  Tolerance :   1.0000e-07
  Last RMS-Density change    ...    1.6236e-17  Tolerance :   5.0000e-09
  Last Orbital Gradient      ...    9.0319e-07  Tolerance :   1.0000e-05
  Last Orbital Rotation      ...    1.2044e-06  Tolerance :   1.0000e-05

             **** THE GBW FILE WAS UPDATED (C1_wt_dlpno_neg.gbw) ****
             **** DENSITY C1_wt_dlpno_neg.scfp WAS UPDATED ****
             **** ENERGY FILE WAS UPDATED (C1_wt_dlpno_neg.en.tmp) ****
             **** THE GBW FILE WAS UPDATED (C1_wt_dlpno_neg.gbw) ****
             **** DENSITY C1_wt_dlpno_neg.scfp WAS UPDATED ****
----------------
ORBITAL ENERGIES
----------------

  NO   OCC          E(Eh)            E(eV) 
   0   2.0000     -92.249038     -2510.2239 
   1   2.0000     -26.417927      -718.8683 
   2   2.0000     -20.570869      -559.7618 
   3   2.0000     -20.557573      -559.4000 
   4   2.0000     -11.295197      -307.3579 
   5   2.0000     -11.259879      -306.3969 
   6   2.0000     -11.219935      -305.3100 
   7   2.0000      -9.212580      -250.6870 
   8   2.0000      -6.900225      -187.7647 
   9   2.0000      -6.896074      -187.6517 
  10   2.0000      -6.895378      -187.6328 
  11   2.0000      -1.774654       -48.2908 
  12   2.0000      -1.457880       -39.6709 
  13   2.0000      -1.348557       -36.6961 
  14   2.0000      -1.118708       -30.4416 
  15   2.0000      -1.013964       -27.5914 
  16   2.0000      -0.945532       -25.7292 
  17   2.0000      -0.860755       -23.4223 
  18   2.0000      -0.815640       -22.1947 
  19   2.0000      -0.809610       -22.0306 
  20   2.0000      -0.753533       -20.5047 
  21   2.0000      -0.673286       -18.3210 
  22   2.0000      -0.667808       -18.1720 
  23   2.0000      -0.632521       -17.2118 
  24   2.0000      -0.625205       -17.0127 
  25   2.0000      -0.600045       -16.3281 
  26   2.0000      -0.559217       -15.2171 
  27   2.0000      -0.540083       -14.6964 
  28   2.0000      -0.526275       -14.3207 
  29   2.0000      -0.513464       -13.9721 
  30   2.0000      -0.499301       -13.5867 
  31   2.0000      -0.480907       -13.0861 
  32   2.0000      -0.468223       -12.7410 
  33   0.0000       0.022473         0.6115 
  34   0.0000       0.034446         0.9373 
  35   0.0000       0.036036         0.9806 
  36   0.0000       0.044921         1.2224 
  37   0.0000       0.056288         1.5317 
  38   0.0000       0.060999         1.6599 
  39   0.0000       0.065917         1.7937 
  40   0.0000       0.079965         2.1760 
  41   0.0000       0.090441         2.4610 
  42   0.0000       0.109863         2.9895 
  43   0.0000       0.112174         3.0524 
  44   0.0000       0.115161         3.1337 
  45   0.0000       0.123218         3.3529 
  46   0.0000       0.123561         3.3623 
  47   0.0000       0.124868         3.3978 
  48   0.0000       0.130702         3.5566 
  49   0.0000       0.135643         3.6910 
  50   0.0000       0.144447         3.9306 
  51   0.0000       0.155998         4.2449 
  52   0.0000       0.157896         4.2966 
  53   0.0000       0.174086         4.7371 
  54   0.0000       0.186795         5.0829 
  55   0.0000       0.196379         5.3437 
  56   0.0000       0.206112         5.6086 
  57   0.0000       0.210708         5.7336 
  58   0.0000       0.219373         5.9695 
  59   0.0000       0.225309         6.1310 
  60   0.0000       0.235076         6.3967 
  61   0.0000       0.241509         6.5718 
  62   0.0000       0.250952         6.8288 
  63   0.0000       0.260824         7.0974 
  64   0.0000       0.262365         7.1393 
  65   0.0000       0.263823         7.1790 
  66   0.0000       0.273398         7.4395 
  67   0.0000       0.278512         7.5787 
  68   0.0000       0.282504         7.6873 
  69   0.0000       0.288523         7.8511 
  70   0.0000       0.294331         8.0091 
  71   0.0000       0.300349         8.1729 
  72   0.0000       0.303997         8.2722 
  73   0.0000       0.312101         8.4927 
  74   0.0000       0.313523         8.5314 
  75   0.0000       0.326379         8.8812 
  76   0.0000       0.334184         9.0936 
  77   0.0000       0.342714         9.3257 
  78   0.0000       0.345042         9.3891 
  79   0.0000       0.350908         9.5487 
  80   0.0000       0.357760         9.7352 
  81   0.0000       0.366401         9.9703 
  82   0.0000       0.371457        10.1079 
  83   0.0000       0.375996        10.2314 
  84   0.0000       0.383521        10.4361 
  85   0.0000       0.386106        10.5065 
  86   0.0000       0.398742        10.8503 
  87   0.0000       0.402177        10.9438 
  88   0.0000       0.409912        11.1543 
  89   0.0000       0.420053        11.4302 
  90   0.0000       0.424787        11.5590 
  91   0.0000       0.432170        11.7600 
  92   0.0000       0.439666        11.9639 
  93   0.0000       0.450773        12.2662 
  94   0.0000       0.453440        12.3387 
  95   0.0000       0.457187        12.4407 
  96   0.0000       0.465250        12.6601 
  97   0.0000       0.469978        12.7888 
  98   0.0000       0.476595        12.9688 
  99   0.0000       0.479786        13.0556 
 100   0.0000       0.487225        13.2581 
 101   0.0000       0.504094        13.7171 
 102   0.0000       0.507372        13.8063 
 103   0.0000       0.520360        14.1597 
 104   0.0000       0.525213        14.2918 
 105   0.0000       0.534841        14.5538 
 106   0.0000       0.537439        14.6245 
 107   0.0000       0.539889        14.6911 
 108   0.0000       0.556494        15.1430 
 109   0.0000       0.561005        15.2657 
 110   0.0000       0.567340        15.4381 
 111   0.0000       0.568167        15.4606 
 112   0.0000       0.571341        15.5470 
 113   0.0000       0.584419        15.9029 
 114   0.0000       0.586005        15.9460 
 115   0.0000       0.598854        16.2956 
 116   0.0000       0.607837        16.5401 
 117   0.0000       0.622011        16.9258 
 118   0.0000       0.632033        17.1985 
 119   0.0000       0.635020        17.2798 
 120   0.0000       0.650559        17.7026 
 121   0.0000       0.672684        18.3047 
 122   0.0000       0.680997        18.5309 
 123   0.0000       0.700300        19.0561 
 124   0.0000       0.707063        19.2401 
 125   0.0000       0.740507        20.1502 
 126   0.0000       0.764101        20.7922 
 127   0.0000       0.773542        21.0491 
 128   0.0000       0.784914        21.3586 
 129   0.0000       0.797071        21.6894 
 130   0.0000       0.807240        21.9661 
 131   0.0000       0.812407        22.1067 
 132   0.0000       0.822743        22.3880 
 133   0.0000       0.826955        22.5026 
 134   0.0000       0.832144        22.6438 
 135   0.0000       0.843779        22.9604 
 136   0.0000       0.848116        23.0784 
 137   0.0000       0.851222        23.1629 
 138   0.0000       0.858696        23.3663 
 139   0.0000       0.870342        23.6832 
 140   0.0000       0.883869        24.0513 
 141   0.0000       0.887453        24.1488 
 142   0.0000       0.895625        24.3712 
 143   0.0000       0.902448        24.5569 
 144   0.0000       0.905772        24.6473 
 145   0.0000       0.917031        24.9537 
 146   0.0000       0.932923        25.3861 
 147   0.0000       0.935822        25.4650 
 148   0.0000       0.940434        25.5905 
 149   0.0000       0.956855        26.0373 
 150   0.0000       0.965953        26.2849 
 151   0.0000       0.972254        26.4564 
 152   0.0000       0.976588        26.5743 
 153   0.0000       0.989258        26.9191 
 154   0.0000       0.996896        27.1269 
 155   0.0000       1.000231        27.2177 
 156   0.0000       1.014758        27.6130 
 157   0.0000       1.020216        27.7615 
 158   0.0000       1.030524        28.0420 
 159   0.0000       1.039193        28.2779 
 160   0.0000       1.041936        28.3525 
 161   0.0000       1.058894        28.8140 
 162   0.0000       1.071122        29.1467 
 163   0.0000       1.078344        29.3432 
 164   0.0000       1.080339        29.3975 
 165   0.0000       1.083777        29.4911 
 166   0.0000       1.097301        29.8591 
 167   0.0000       1.105943        30.0942 
 168   0.0000       1.110456        30.2171 
 169   0.0000       1.118264        30.4295 
 170   0.0000       1.136058        30.9137 
 171   0.0000       1.144526        31.1441 
 172   0.0000       1.153422        31.3862 
 173   0.0000       1.161146        31.5964 
 174   0.0000       1.166383        31.7389 
 175   0.0000       1.172714        31.9112 
 176   0.0000       1.185514        32.2595 
 177   0.0000       1.201314        32.6894 
 178   0.0000       1.202872        32.7318 
 179   0.0000       1.220600        33.2142 
 180   0.0000       1.229937        33.4683 
 181   0.0000       1.237020        33.6610 
 182   0.0000       1.241090        33.7718 
 183   0.0000       1.254761        34.1438 
 184   0.0000       1.268160        34.5084 
 185   0.0000       1.281932        34.8831 
 186   0.0000       1.284081        34.9416 
 187   0.0000       1.294443        35.2236 
 188   0.0000       1.305913        35.5357 
 189   0.0000       1.314321        35.7645 
 190   0.0000       1.318302        35.8728 
 191   0.0000       1.331889        36.2425 
 192   0.0000       1.350064        36.7371 
 193   0.0000       1.360118        37.0107 
 194   0.0000       1.374429        37.4001 
 195   0.0000       1.381288        37.5868 
 196   0.0000       1.398262        38.0486 
 197   0.0000       1.410813        38.3902 
 198   0.0000       1.416100        38.5340 
 199   0.0000       1.419575        38.6286 
 200   0.0000       1.428063        38.8596 
 201   0.0000       1.447697        39.3938 
 202   0.0000       1.465972        39.8911 
 203   0.0000       1.473849        40.1055 
 204   0.0000       1.480421        40.2843 
 205   0.0000       1.490067        40.5468 
 206   0.0000       1.502964        40.8977 
 207   0.0000       1.514576        41.2137 
 208   0.0000       1.521746        41.4088 
 209   0.0000       1.535640        41.7869 
 210   0.0000       1.549979        42.1771 
 211   0.0000       1.553670        42.2775 
 212   0.0000       1.565997        42.6129 
 213   0.0000       1.574263        42.8379 
 214   0.0000       1.596404        43.4404 
 215   0.0000       1.598062        43.4855 
 216   0.0000       1.610179        43.8152 
 217   0.0000       1.631610        44.3984 
 218   0.0000       1.640659        44.6446 
 219   0.0000       1.655999        45.0620 
 220   0.0000       1.666687        45.3529 
 221   0.0000       1.674052        45.5533 
 222   0.0000       1.693972        46.0953 
 223   0.0000       1.703158        46.3453 
 224   0.0000       1.714062        46.6420 
 225   0.0000       1.722583        46.8739 
 226   0.0000       1.737425        47.2777 
 227   0.0000       1.744814        47.4788 
 228   0.0000       1.756148        47.7872 
 229   0.0000       1.774096        48.2756 
 230   0.0000       1.784572        48.5607 
 231   0.0000       1.792566        48.7782 
 232   0.0000       1.803076        49.0642 
 233   0.0000       1.829063        49.7713 
 234   0.0000       1.847708        50.2787 
 235   0.0000       1.850710        50.3604 
 236   0.0000       1.859233        50.5923 
 237   0.0000       1.869019        50.8586 
 238   0.0000       1.886587        51.3366 
 239   0.0000       1.907333        51.9012 
 240   0.0000       1.934995        52.6539 
 241   0.0000       1.958078        53.2820 
 242   0.0000       1.962228        53.3949 
 243   0.0000       1.974052        53.7167 
 244   0.0000       1.987869        54.0927 
 245   0.0000       1.989921        54.1485 
 246   0.0000       2.007129        54.6168 
 247   0.0000       2.016843        54.8811 
 248   0.0000       2.029651        55.2296 
 249   0.0000       2.055881        55.9434 
 250   0.0000       2.082642        56.6716 
 251   0.0000       2.090728        56.8916 
 252   0.0000       2.147817        58.4451 
 253   0.0000       2.161515        58.8178 
 254   0.0000       2.177122        59.2425 
 255   0.0000       2.188319        59.5472 
 256   0.0000       2.198516        59.8247 
 257   0.0000       2.218450        60.3671 
 258   0.0000       2.219785        60.4034 
 259   0.0000       2.240087        60.9559 
 260   0.0000       2.258706        61.4625 
 261   0.0000       2.263859        61.6027 
 262   0.0000       2.269812        61.7647 
 263   0.0000       2.283176        62.1284 
 264   0.0000       2.303067        62.6696 
 265   0.0000       2.310467        62.8710 
 266   0.0000       2.312649        62.9304 
 267   0.0000       2.339777        63.6686 
 268   0.0000       2.361438        64.2580 
 269   0.0000       2.376393        64.6650 
 270   0.0000       2.377317        64.6901 
 271   0.0000       2.387217        64.9595 
 272   0.0000       2.394731        65.1640 
 273   0.0000       2.406327        65.4795 
 274   0.0000       2.413228        65.6673 
 275   0.0000       2.446249        66.5658 
 276   0.0000       2.455728        66.8238 
 277   0.0000       2.467495        67.1440 
 278   0.0000       2.475376        67.3584 
 279   0.0000       2.500713        68.0479 
 280   0.0000       2.510219        68.3065 
 281   0.0000       2.516660        68.4818 
 282   0.0000       2.524937        68.7070 
 283   0.0000       2.541652        69.1619 
 284   0.0000       2.544759        69.2464 
 285   0.0000       2.586571        70.3842 
 286   0.0000       2.602006        70.8042 
 287   0.0000       2.635439        71.7139 
 288   0.0000       2.647858        72.0519 
 289   0.0000       2.669019        72.6277 
 290   0.0000       2.694804        73.3294 
 291   0.0000       2.728582        74.2485 
 292   0.0000       2.744662        74.6860 
 293   0.0000       2.750385        74.8418 
 294   0.0000       2.764353        75.2219 
 295   0.0000       2.769522        75.3625 
 296   0.0000       2.797041        76.1114 
 297   0.0000       2.838403        77.2369 
 298   0.0000       2.846039        77.4446 
 299   0.0000       2.888248        78.5932 
 300   0.0000       2.922432        79.5234 
 301   0.0000       2.925061        79.5950 
 302   0.0000       2.968192        80.7686 
 303   0.0000       2.979535        81.0773 
 304   0.0000       3.007179        81.8295 
 305   0.0000       3.049638        82.9849 
 306   0.0000       3.098431        84.3126 
 307   0.0000       3.110634        84.6447 
 308   0.0000       3.147104        85.6371 
 309   0.0000       3.201762        87.1244 
 310   0.0000       3.225888        87.7809 
 311   0.0000       3.245610        88.3175 
 312   0.0000       3.254528        88.5602 
 313   0.0000       3.284922        89.3873 
 314   0.0000       3.304588        89.9224 
 315   0.0000       3.327460        90.5448 
 316   0.0000       3.361801        91.4792 
 317   0.0000       3.390613        92.2633 
 318   0.0000       3.408079        92.7386 
 319   0.0000       3.422564        93.1327 
 320   0.0000       3.433947        93.4424 
 321   0.0000       3.480807        94.7176 
 322   0.0000       3.486995        94.8860 
 323   0.0000       3.507834        95.4530 
 324   0.0000       3.528132        96.0054 
 325   0.0000       3.545602        96.4807 
 326   0.0000       3.585461        97.5653 
 327   0.0000       3.593291        97.7784 
 328   0.0000       3.612217        98.2934 
 329   0.0000       3.619558        98.4932 
 330   0.0000       3.651403        99.3597 
 331   0.0000       3.664943        99.7282 
 332   0.0000       3.689201       100.3883 
 333   0.0000       3.707196       100.8779 
 334   0.0000       3.721555       101.2687 
 335   0.0000       3.738653       101.7339 
 336   0.0000       3.751285       102.0776 
 337   0.0000       3.761834       102.3647 
 338   0.0000       3.772888       102.6655 
 339   0.0000       3.795613       103.2839 
 340   0.0000       3.806736       103.5865 
 341   0.0000       3.824077       104.0584 
 342   0.0000       3.837399       104.4209 
 343   0.0000       3.838904       104.4619 
 344   0.0000       3.857721       104.9739 
 345   0.0000       3.890205       105.8579 
 346   0.0000       3.899926       106.1224 
 347   0.0000       3.918650       106.6319 
 348   0.0000       3.941751       107.2605 
 349   0.0000       3.954915       107.6187 
 350   0.0000       3.970246       108.0359 
 351   0.0000       3.972427       108.0952 
 352   0.0000       3.979461       108.2866 
 353   0.0000       4.008470       109.0760 
 354   0.0000       4.025319       109.5345 
 355   0.0000       4.033172       109.7482 
 356   0.0000       4.040162       109.9384 
 357   0.0000       4.078782       110.9893 
 358   0.0000       4.096872       111.4816 
 359   0.0000       4.111496       111.8795 
 360   0.0000       4.121897       112.1625 
 361   0.0000       4.149541       112.9147 
 362   0.0000       4.171953       113.5246 
 363   0.0000       4.194191       114.1297 
 364   0.0000       4.222172       114.8912 
 365   0.0000       4.227566       115.0379 
 366   0.0000       4.263666       116.0203 
 367   0.0000       4.275844       116.3516 
 368   0.0000       4.306919       117.1972 
 369   0.0000       4.318272       117.5062 
 370   0.0000       4.319636       117.5433 
 371   0.0000       4.350133       118.3731 
 372   0.0000       4.357238       118.5665 
 373   0.0000       4.413306       120.0922 
 374   0.0000       4.451820       121.1402 
 375   0.0000       4.476057       121.7997 
 376   0.0000       4.503953       122.5588 
 377   0.0000       4.522763       123.0706 
 378   0.0000       4.578153       124.5779 
 379   0.0000       4.612016       125.4993 
 380   0.0000       4.627143       125.9110 
 381   0.0000       4.660781       126.8263 
 382   0.0000       4.681695       127.3954 
 383   0.0000       4.696648       127.8023 
 384   0.0000       4.726032       128.6019 
 385   0.0000       4.754132       129.3665 
 386   0.0000       4.770134       129.8019 
 387   0.0000       4.777101       129.9915 
 388   0.0000       4.827775       131.3704 
 389   0.0000       4.851437       132.0143 
 390   0.0000       4.874649       132.6459 
 391   0.0000       4.885656       132.9454 
 392   0.0000       4.892482       133.1312 
 393   0.0000       4.914390       133.7274 
 394   0.0000       4.947803       134.6366 
 395   0.0000       4.974098       135.3521 
 396   0.0000       4.981955       135.5659 
 397   0.0000       5.044753       137.2747 
 398   0.0000       5.060450       137.7019 
 399   0.0000       5.087463       138.4369 
 400   0.0000       5.122318       139.3854 
 401   0.0000       5.130556       139.6095 
 402   0.0000       5.145520       140.0167 
 403   0.0000       5.189898       141.2243 
 404   0.0000       5.212269       141.8331 
 405   0.0000       5.223733       142.1450 
 406   0.0000       5.261469       143.1719 
 407   0.0000       5.296665       144.1296 
 408   0.0000       5.320447       144.7767 
 409   0.0000       5.345895       145.4692 
 410   0.0000       5.360210       145.8587 
 411   0.0000       5.397880       146.8838 
 412   0.0000       5.413277       147.3028 
 413   0.0000       5.436904       147.9457 
 414   0.0000       5.470185       148.8513 
 415   0.0000       5.514276       150.0511 
 416   0.0000       5.530762       150.4997 
 417   0.0000       5.570585       151.5833 
 418   0.0000       5.612418       152.7217 
 419   0.0000       5.648412       153.7011 
 420   0.0000       5.666180       154.1846 
 421   0.0000       5.721321       155.6851 
 422   0.0000       5.745841       156.3523 
 423   0.0000       5.794685       157.6814 
 424   0.0000       5.823500       158.4655 
 425   0.0000       5.841716       158.9612 
 426   0.0000       5.872030       159.7861 
 427   0.0000       5.904693       160.6749 
 428   0.0000       5.934442       161.4844 
 429   0.0000       6.005134       163.4080 
 430   0.0000       6.032861       164.1625 
 431   0.0000       6.113503       166.3569 
 432   0.0000       6.150823       167.3724 
 433   0.0000       6.181590       168.2096 
 434   0.0000       6.256953       170.2603 
 435   0.0000       6.291118       171.1900 
 436   0.0000       6.315660       171.8579 
 437   0.0000       6.389514       173.8675 
 438   0.0000       6.464338       175.9036 
 439   0.0000       6.506458       177.0497 
 440   0.0000       6.680181       181.7770 
 441   0.0000       6.681660       181.8172 
 442   0.0000       6.740101       183.4075 
 443   0.0000       6.756037       183.8411 
 444   0.0000       6.777563       184.4269 
 445   0.0000       6.819852       185.5776 
 446   0.0000       6.850632       186.4152 
 447   0.0000       6.880270       187.2217 
 448   0.0000       6.901701       187.8048 
 449   0.0000       6.914976       188.1661 
 450   0.0000       6.931198       188.6075 
 451   0.0000       6.943543       188.9434 
 452   0.0000       6.960647       189.4088 
 453   0.0000       6.973907       189.7697 
 454   0.0000       6.994916       190.3413 
 455   0.0000       7.003605       190.5778 
 456   0.0000       7.058197       192.0633 
 457   0.0000       7.133415       194.1101 
 458   0.0000       7.230982       196.7650 
 459   0.0000       7.289391       198.3544 
 460   0.0000       7.293729       198.4725 
 461   0.0000       7.342215       199.7918 
 462   0.0000       7.555833       205.6047 
 463   0.0000       7.603730       206.9080 
 464   0.0000       7.657367       208.3676 
 465   0.0000       7.672459       208.7782 
 466   0.0000       7.719670       210.0629 
 467   0.0000       7.823088       212.8770 
 468   0.0000       8.878280       241.5903 
 469   0.0000       8.929329       242.9794 
 470   0.0000       9.095410       247.4987 
 471   0.0000       9.136286       248.6110 
 472   0.0000       9.230495       251.1745 
 473   0.0000       9.320526       253.6244 
 474   0.0000       9.341434       254.1933 
 475   0.0000       9.416267       256.2297 
 476   0.0000       9.435442       256.7514 
 477   0.0000       9.536923       259.5129 
 478   0.0000       9.548198       259.8197 
 479   0.0000       9.591534       260.9989 
 480   0.0000      12.699874       345.5811 
 481   0.0000      13.165168       358.2424 
 482   0.0000      13.581470       369.5706 
 483   0.0000      16.459171       447.8768 
 484   0.0000      17.418242       473.9745 
 485   0.0000      18.032317       490.6843 
 486   0.0000      18.815025       511.9829 

                    ********************************
                    * MULLIKEN POPULATION ANALYSIS *
                    ********************************

-----------------------
MULLIKEN ATOMIC CHARGES
-----------------------
   0 C :   -0.501819
   1 C :   -0.459549
   2 H :    0.301130
   3 H :    0.316963
   4 S :    2.153603
   5 F :   -0.521379
   6 O :   -0.908831
   7 C :   -0.988766
   8 H :    0.288932
   9 H :    0.266871
  10 O :   -0.910688
  11 H :    0.397079
  12 H :    0.296218
  13 H :    0.270236
Sum of atomic charges:    0.0000000

--------------------------------
MULLIKEN REDUCED ORBITAL CHARGES
--------------------------------
  0 C s       :     3.076218  s :     3.076218
      pz      :     1.080767  p :     3.287460
      px      :     0.989275
      py      :     1.217418
      dz2     :     0.031539  d :     0.132128
      dxz     :     0.006183
      dyz     :     0.027036
      dx2y2   :     0.030568
      dxy     :     0.036802
      f0      :     0.002026  f :     0.006012
      f+1     :    -0.002275
      f-1     :    -0.000236
      f+2     :    -0.001096
      f-2     :     0.002956
      f+3     :     0.000979
      f-3     :     0.003656
  1 C s       :     3.160051  s :     3.160051
      pz      :     1.168563  p :     3.188540
      px      :     1.086682
      py      :     0.933295
      dz2     :     0.041365  d :     0.112877
      dxz     :     0.018142
      dyz     :     0.001533
      dx2y2   :     0.043988
      dxy     :     0.007849
      f0      :     0.002446  f :    -0.001919
      f+1     :    -0.000705
      f-1     :    -0.000628
      f+2     :    -0.000051
      f-2     :    -0.002217
      f+3     :    -0.000218
      f-3     :    -0.000546
  2 H s       :     0.616521  s :     0.616521
      pz      :     0.021223  p :     0.072403
      px      :     0.024065
      py      :     0.027115
      dz2     :     0.003533  d :     0.009946
      dxz     :    -0.000074
      dyz     :     0.001541
      dx2y2   :     0.003087
      dxy     :     0.001859
  3 H s       :     0.617844  s :     0.617844
      pz      :     0.011873  p :     0.052767
      px      :     0.020603
      py      :     0.020291
      dz2     :     0.000078  d :     0.012426
      dxz     :     0.005390
      dyz     :     0.002772
      dx2y2   :     0.002206
      dxy     :     0.001980
  4 S s       :     4.933595  s :     4.933595
      pz      :     2.657229  p :     7.972946
      px      :     2.599769
      py      :     2.715948
      dz2     :     0.223230  d :     0.885064
      dxz     :     0.167170
      dyz     :     0.147981
      dx2y2   :     0.156451
      dxy     :     0.190232
      f0      :     0.011413  f :     0.054792
      f+1     :     0.018915
      f-1     :     0.008412
      f+2     :     0.003281
      f-2     :     0.012166
      f+3     :    -0.003610
      f-3     :     0.004215
  5 F s       :     4.021246  s :     4.021246
      pz      :     1.923458  p :     5.463770
      px      :     1.701731
      py      :     1.838581
      dz2     :     0.004776  d :     0.032110
      dxz     :     0.006137
      dyz     :     0.004633
      dx2y2   :     0.007928
      dxy     :     0.008636
      f0      :     0.000233  f :     0.004253
      f+1     :     0.000755
      f-1     :     0.000424
      f+2     :     0.000496
      f-2     :     0.000634
      f+3     :     0.000990
      f-3     :     0.000721
  6 O s       :     3.958631  s :     3.958631
      pz      :     1.691141  p :     4.863921
      px      :     1.364953
      py      :     1.807827
      dz2     :     0.014099  d :     0.078306
      dxz     :     0.017539
      dyz     :     0.008095
      dx2y2   :     0.016240
      dxy     :     0.022334
      f0      :     0.000328  f :     0.007972
      f+1     :     0.002579
      f-1     :     0.000166
      f+2     :     0.000786
      f-2     :     0.001469
      f+3     :     0.001073
      f-3     :     0.001571
  7 C s       :     3.267649  s :     3.267649
      pz      :     0.983097  p :     3.562892
      px      :     1.279106
      py      :     1.300689
      dz2     :     0.036835  d :     0.143807
      dxz     :     0.008756
      dyz     :     0.019440
      dx2y2   :     0.048365
      dxy     :     0.030412
      f0      :     0.001266  f :     0.014418
      f+1     :     0.005419
      f-1     :     0.001979
      f+2     :     0.000630
      f-2     :     0.001501
      f+3     :     0.002387
      f-3     :     0.001237
  8 H s       :     0.630668  s :     0.630668
      pz      :     0.027866  p :     0.070064
      px      :     0.021074
      py      :     0.021124
      dz2     :     0.002963  d :     0.010336
      dxz     :     0.000230
      dyz     :     0.002115
      dx2y2   :     0.000694
      dxy     :     0.004334
  9 H s       :     0.645355  s :     0.645355
      pz      :     0.027885  p :     0.078244
      px      :     0.027358
      py      :     0.023001
      dz2     :     0.003800  d :     0.009530
      dxz     :     0.001423
      dyz     :     0.000825
      dx2y2   :     0.004727
      dxy     :    -0.001245
 10 O s       :     3.958882  s :     3.958882
      pz      :     1.269161  p :     4.875108
      px      :     1.812796
      py      :     1.793151
      dz2     :     0.020495  d :     0.069281
      dxz     :     0.020457
      dyz     :     0.022804
      dx2y2   :     0.002390
      dxy     :     0.003134
      f0      :     0.001945  f :     0.007418
      f+1     :     0.002290
      f-1     :     0.001983
      f+2     :     0.000495
      f-2     :     0.000600
      f+3     :     0.000065
      f-3     :     0.000040
 11 H s       :     0.530004  s :     0.530004
      pz      :     0.027606  p :     0.071362
      px      :     0.020791
      py      :     0.022964
      dz2     :     0.001914  d :     0.001555
      dxz     :    -0.001338
      dyz     :     0.002439
      dx2y2   :    -0.000442
      dxy     :    -0.001018
 12 H s       :     0.623664  s :     0.623664
      pz      :     0.024553  p :     0.071938
      px      :     0.026219
      py      :     0.021166
      dz2     :     0.002260  d :     0.008180
      dxz     :     0.003035
      dyz     :     0.000209
      dx2y2   :    -0.000453
      dxy     :     0.003130
 13 H s       :     0.650342  s :     0.650342
      pz      :     0.026461  p :     0.072727
      px      :     0.022740
      py      :     0.023526
      dz2     :     0.003697  d :     0.006695
      dxz     :     0.000240
      dyz     :     0.000879
      dx2y2   :     0.002646
      dxy     :    -0.000767


                     *******************************
                     * LOEWDIN POPULATION ANALYSIS *
                     *******************************

----------------------
LOEWDIN ATOMIC CHARGES
----------------------
   0 C :    0.228762
   1 C :    0.182920
   2 H :   -0.169182
   3 H :   -0.192578
   4 S :   -0.098667
   5 F :    0.272606
   6 O :    0.037722
   7 C :    0.592224
   8 H :   -0.142312
   9 H :   -0.164602
  10 O :    0.035622
  11 H :   -0.226326
  12 H :   -0.178611
  13 H :   -0.177578

-------------------------------
LOEWDIN REDUCED ORBITAL CHARGES
-------------------------------
  0 C s       :     2.427228  s :     2.427228
      pz      :     0.737818  p :     2.217800
      px      :     0.716779
      py      :     0.763203
      dz2     :     0.183881  d :     0.788304
      dxz     :     0.198384
      dyz     :     0.148058
      dx2y2   :     0.130298
      dxy     :     0.127683
      f0      :     0.040002  f :     0.337906
      f+1     :     0.102894
      f-1     :     0.064468
      f+2     :     0.035680
      f-2     :     0.025792
      f+3     :     0.038457
      f-3     :     0.030613
  1 C s       :     2.457829  s :     2.457829
      pz      :     0.806238  p :     2.291311
      px      :     0.794335
      py      :     0.690739
      dz2     :     0.175439  d :     0.753636
      dxz     :     0.113507
      dyz     :     0.088558
      dx2y2   :     0.185176
      dxy     :     0.190956
      f0      :     0.033217  f :     0.314304
      f+1     :     0.045812
      f-1     :     0.028296
      f+2     :     0.038678
      f-2     :     0.033991
      f+3     :     0.059591
      f-3     :     0.074719
  2 H s       :     0.627785  s :     0.627785
      pz      :     0.102553  p :     0.304933
      px      :     0.106606
      py      :     0.095774
      dz2     :     0.061896  d :     0.236464
      dxz     :     0.040547
      dyz     :     0.026426
      dx2y2   :     0.072147
      dxy     :     0.035448
  3 H s       :     0.636557  s :     0.636557
      pz      :     0.143310  p :     0.313183
      px      :     0.082510
      py      :     0.087362
      dz2     :     0.064956  d :     0.242839
      dxz     :     0.082292
      dyz     :     0.067521
      dx2y2   :     0.017969
      dxy     :     0.010100
  4 S s       :     4.494997  s :     4.494997
      pz      :     2.707411  p :     8.020525
      px      :     2.657278
      py      :     2.655836
      dz2     :     0.527159  d :     2.221496
      dxz     :     0.512922
      dyz     :     0.370917
      dx2y2   :     0.395945
      dxy     :     0.414553
      f0      :     0.202323  f :     1.361648
      f+1     :     0.328930
      f-1     :     0.163346
      f+2     :     0.161858
      f-2     :     0.172503
      f+3     :     0.163263
      f-3     :     0.169425
  5 F s       :     3.482863  s :     3.482863
      pz      :     1.711582  p :     5.046017
      px      :     1.648780
      py      :     1.685654
      dz2     :     0.028082  d :     0.169174
      dxz     :     0.038701
      dyz     :     0.019470
      dx2y2   :     0.040075
      dxy     :     0.042846
      f0      :     0.002977  f :     0.029341
      f+1     :     0.004399
      f-1     :     0.002077
      f+2     :     0.003083
      f-2     :     0.005639
      f+3     :     0.005376
      f-3     :     0.005789
  6 O s       :     3.328530  s :     3.328530
      pz      :     1.482147  p :     4.339664
      px      :     1.391696
      py      :     1.465821
      dz2     :     0.041370  d :     0.220707
      dxz     :     0.069246
      dyz     :     0.017122
      dx2y2   :     0.047604
      dxy     :     0.045364
      f0      :     0.008237  f :     0.073378
      f+1     :     0.016286
      f-1     :     0.001282
      f+2     :     0.017155
      f-2     :     0.009502
      f+3     :     0.010399
      f-3     :     0.010518
  7 C s       :     2.436807  s :     2.436807
      pz      :     0.706431  p :     2.247077
      px      :     0.766809
      py      :     0.773838
      dz2     :     0.138745  d :     0.536030
      dxz     :     0.115511
      dyz     :     0.134924
      dx2y2   :     0.081324
      dxy     :     0.065527
      f0      :     0.035206  f :     0.187862
      f+1     :     0.053130
      f-1     :     0.057926
      f+2     :     0.013436
      f-2     :     0.012455
      f+3     :     0.010222
      f-3     :     0.005487
  8 H s       :     0.628922  s :     0.628922
      pz      :     0.081051  p :     0.289015
      px      :     0.077101
      py      :     0.130863
      dz2     :     0.041411  d :     0.224375
      dxz     :     0.010556
      dyz     :     0.054423
      dx2y2   :     0.053466
      dxy     :     0.064519
  9 H s       :     0.630899  s :     0.630899
      pz      :     0.085208  p :     0.300984
      px      :     0.100910
      py      :     0.114865
      dz2     :     0.054728  d :     0.232719
      dxz     :     0.030268
      dyz     :     0.029278
      dx2y2   :     0.080878
      dxy     :     0.037567
 10 O s       :     3.331567  s :     3.331567
      pz      :     1.374631  p :     4.351536
      px      :     1.487716
      py      :     1.489188
      dz2     :     0.087969  d :     0.214266
      dxz     :     0.054192
      dyz     :     0.054249
      dx2y2   :     0.007895
      dxy     :     0.009962
      f0      :     0.024877  f :     0.067009
      f+1     :     0.015944
      f-1     :     0.016595
      f+2     :     0.004062
      f-2     :     0.004462
      f+3     :     0.000573
      f-3     :     0.000497
 11 H s       :     0.630286  s :     0.630286
      pz      :     0.084443  p :     0.338436
      px      :     0.104967
      py      :     0.149026
      dz2     :     0.047393  d :     0.257603
      dxz     :     0.012566
      dyz     :     0.056640
      dx2y2   :     0.057921
      dxy     :     0.083084
 12 H s       :     0.641232  s :     0.641232
      pz      :     0.080542  p :     0.309190
      px      :     0.139824
      py      :     0.088825
      dz2     :     0.040250  d :     0.228188
      dxz     :     0.058405
      dyz     :     0.005872
      dx2y2   :     0.044727
      dxy     :     0.078934
 13 H s       :     0.637902  s :     0.637902
      pz      :     0.086078  p :     0.309812
      px      :     0.110607
      py      :     0.113128
      dz2     :     0.054977  d :     0.229864
      dxz     :     0.026387
      dyz     :     0.030890
      dx2y2   :     0.082244
      dxy     :     0.035366


                      *****************************
                      * MAYER POPULATION ANALYSIS *
                      *****************************

  NA   - Mulliken gross atomic population
  ZA   - Total nuclear charge
  QA   - Mulliken gross atomic charge
  VA   - Mayer's total valence
  BVA  - Mayer's bonded valence
  FA   - Mayer's free valence

  ATOM       NA         ZA         QA         VA         BVA        FA
  0 C      6.5018     6.0000    -0.5018     3.8754     3.8754     0.0000
  1 C      6.4595     6.0000    -0.4595     3.7179     3.7179     0.0000
  2 H      0.6989     1.0000     0.3011     1.0470     1.0470     0.0000
  3 H      0.6830     1.0000     0.3170     0.9517     0.9517     0.0000
  4 S     13.8464    16.0000     2.1536     4.6171     4.6171    -0.0000
  5 F      9.5214     9.0000    -0.5214     0.7114     0.7114    -0.0000
  6 O      8.9088     8.0000    -0.9088     1.6635     1.6635     0.0000
  7 C      6.9888     6.0000    -0.9888     3.7385     3.7385    -0.0000
  8 H      0.7111     1.0000     0.2889     1.0099     1.0099     0.0000
  9 H      0.7331     1.0000     0.2669     1.0534     1.0534     0.0000
 10 O      8.9107     8.0000    -0.9107     1.6532     1.6532    -0.0000
 11 H      0.6029     1.0000     0.3971     0.9246     0.9246     0.0000
 12 H      0.7038     1.0000     0.2962     1.0528     1.0528    -0.0000
 13 H      0.7298     1.0000     0.2702     1.0972     1.0972    -0.0000

  Mayer bond orders larger than 0.100000
B(  0-C ,  1-C ) :   0.9121 B(  0-C ,  4-S ) :   0.1070 B(  0-C ,  7-C ) :   0.8208 
B(  0-C ,  8-H ) :   0.9454 B(  0-C ,  9-H ) :   0.9514 B(  1-C ,  2-H ) :   0.9053 
B(  1-C ,  3-H ) :   0.8980 B(  1-C ,  4-S ) :   0.8693 B(  4-S ,  5-F ) :   0.5591 
B(  4-S ,  6-O ) :   1.5245 B(  4-S , 10-O ) :   1.5165 B(  7-C , 11-H ) :   0.8684 
B(  7-C , 12-H ) :   0.9672 B(  7-C , 13-H ) :   0.9775 

-------
TIMINGS
-------

Total SCF time: 0 days 0 hours 3 min 0 sec 

Total time                  ....     180.884 sec
Sum of individual times     ....     179.934 sec  ( 99.5%)

Fock matrix formation       ....     175.962 sec  ( 97.3%)
  Split-RI-J                ....      12.561 sec  (  7.1% of F)
  Chain of spheres X        ....     163.262 sec  ( 92.8% of F)
Diagonalization             ....       0.418 sec  (  0.2%)
Density matrix formation    ....       0.024 sec  (  0.0%)
Population analysis         ....       0.054 sec  (  0.0%)
Initial guess               ....       0.979 sec  (  0.5%)
Orbital Transformation      ....       0.000 sec  (  0.0%)
Orbital Orthonormalization  ....       0.000 sec  (  0.0%)
DIIS solution               ....       0.214 sec  (  0.1%)
SOSCF solution              ....       0.352 sec  (  0.2%)

Maximum memory used throughout the entire SCF-calculation: 126.0 MB


           ************************************************************
           *        Program running with 2 parallel MPI-processes     *
           *              working on a common directory               *
           ************************************************************


------------------------------------------------------------------------------- 
                              ORCA-MATRIX DRIVEN CI                            
------------------------------------------------------------------------------- 


Wavefunction type
-----------------
Correlation treatment                      ...      CCSD     
Single excitations                         ... ON
Orbital optimization                       ... OFF
Calculation of Z vector                    ... OFF
Calculation of Brueckner orbitals          ... OFF
Perturbative triple excitations            ... ON
Calculation of F12 correction              ... OFF
Frozen core treatment                      ... chemical core (22 el)
Reference Wavefunction                     ... RHF
  Internal Orbitals:    11 ...   32 ( 22 MO's/ 44 electrons)
  Virtual  Orbitals:    33 ...  486 (454 MO's              )
Number of AO's                             ...    487
Number of electrons                        ...     66
Number of correlated electrons             ...     44

Algorithmic settings
--------------------
Integral transformation                    ... All integrals via the RI transformation
K(C) Formation                             ... RI-DLPNO
   PNO-Integral Storage                    ... ON DISK
   PNO occupation number cut-off           ... 1.000e-07
   Singles PNO occupation number cut-off   ... 3.000e-09
   PNO Mulliken prescreening cut-off       ... 1.000e-03
   Domain cut-off (Mulliken population)    ... 1.000e-03
   PNO Normalization                       ...    1
Maximum number of iterations               ...        50
Convergence tolerance (max. residuum)      ... 1.000e-05
Level shift for amplitude update           ... 2.000e-01
Maximum number of DIIS vectors             ...         7
DIIS turned on at iteration                ...         0
Damping before turning on DIIS             ...     0.500
Damping after turning on DIIS              ...     0.000
Pair specific amplitude update             ... OFF
Natural orbital iterations                 ... OFF
Perturbative natural orbital generation    ... OFF
Printlevel                                 ... 2

Singles Fock matrix elements calculated using PNOs.

Memory handling:
----------------
Maximum memory for working arrays          ...  64000 MB
Data storage in matrix containers          ... UNCOMPRESSED
Data type for integral storage             ... DOUBLE
In-Core Storage of quantities:
   Amplitudes+Sigma Vector      ... NO
   J+K operators                ... NO
   DIIS vectors                 ... NO
   3-external integrals         ... NO
   4-external integrals         ... NO

Localization treatment:
-----------------------
Localization option                        ...    6
Localization threshhold                    ... -1.0e+00
Using relative localization threshhold     ... 1.0e-08
Neglect threshold for strong pairs         ... 1.000e-05 Eh
Prescreening threshold for very weak pairs ... 1.000e-07 Eh

Initializing the integral package          ... done
Localizing the valence orbitals
------------------------------------------------------------------------------
                           ORCA ORBITAL LOCALIZATION
------------------------------------------------------------------------------

Input orbitals are from                  ... C1_wt_dlpno_neg.gbw
Output orbitals are to                   ... C1_wt_dlpno_neg.loc
Max. number of iterations                ... 128
Localizations seeded randomly            ... off
Convergence tolerance                    ... 1.000e-06
Using relative localization threshhold   ... 1.000e-08
Treshold for strong local MOs            ... 9.500e-01
Treshold for bond MOs                    ... 8.500e-01
Operator                                 ... 0
Orbital range for localization           ... 11 to 32
Localization criterion                   ... FOSTER-BOYS (AUGMENTED HESSIAN)
Doing the dipole integrals     ... o.k.
Initial value of the localization sum :  4386.866717
ITERATION   0 : L= 4430.0205129967 DL=  4.32e+01 (AVERGE_DL)=    0.4322186613 
ITERATION   1 : L= 4433.6878407996 DL=  3.67e+00 (AVERGE_DL)=    0.1259995156 
ITERATION   2 : L= 4433.7534254076 DL=  6.56e-02 (AVERGE_DL)=    0.0168498087 
ITERATION   3 : L= 4433.7844877247 DL=  3.11e-02 (AVERGE_DL)=    0.0115960728 
[...]
   TCutCPAO  ...     1.0e-03

Thresholds for map construction and integral transformation for weak Triples:
   TCutMKN   ...     1.0e-01
   TCutDO    ...     2.0e-02
   TCutCMO   ...     1.0e-03
   TCutCPAO  ...     1.0e-03

--------------------------------
LOCAL RI TRANSFORMATION (IAVPAO)
--------------------------------

Orbital window:      11 to 32
Number of PAOs:     487
Basis functions:    487 (163 shells)
Aux. functions:    1105 (303 shells)
Use SHARK:           on

Processing maps (0.0 sec)
Average map sizes:
   Aux shells -> MOs              22.0
   Aux shells -> PAOs            487.0
   MOs        -> AO shells       163.0
   PAOs       -> AO shells       163.0

Calculating integrals (4.8 sec, 90.337 MB)
Sorting integrals (0.2 sec, 90.324 MB)
Total time for the integral transformation: 5.0 sec
--------------------------------
INITIAL GUESS AND PNO GENERATION
--------------------------------

PNO truncation parameters                   .... 
    ScaleTCutPNO       =        1.000e-02
    PAOOverlapThresh   =        1.000e-08

    TCutPairs          =        1.000e-05
    TCutPNO            =        1.000e-07
    TCutPNOSingles     =        3.000e-09
    TCutMP2Pairs       =        1.000e-06
    TCutMKN            =        1.000e-03
    TCutDO             =        5.000e-03

Pair selection                          .... not used
Type of local MP2 treatment                 .... full local PMP2
Strategy for PNO selection                  .... occupation number selection
Pair density normalization                  .... MP2 norm
Spin component scaling                      .... not used

PASS-1: Formation of initial guess LMP2 amplitudes
Initial amplitudes guess done. Entering LMP2 iteration loop:
   Max. no of iterations          ...  50
   Energy convergence tolerance   ...    1.0e-07
   Residual convergence tolerance ...    5.0e-07
   Fock matrix cutoff             ...    1.0e-05 Eh
   DIIS convergence acceleration parameters:
        Max # vectors in DIIS     ... 7
        Start iteration of DIIS   ... 0
        Levelshift                ... 2.000e-01
        Damping factor 1          ... 5.000e-01
        Damping factor 2          ... 1.000e+00
   L-MP2 PNO cut-off              ...   1.0e-09
   L-MP2 PNO cut-off (core)       ...   1.0e-11
                           *** Turning on DIIS ***
LMP2-Iter=   0:  ELMP2= -1.449978451845  DE=   3.6e-02 RMAX=   7.6e-03
LMP2-Iter=   1:  ELMP2= -1.466331070420  DE=   1.6e-02 RMAX=   4.9e-03
LMP2-Iter=   2:  ELMP2= -1.469186569469  DE=   2.9e-03 RMAX=   1.1e-03
LMP2-Iter=   3:  ELMP2= -1.469558461774  DE=   3.7e-04 RMAX=   3.9e-04
LMP2-Iter=   4:  ELMP2= -1.469581845760  DE=   2.3e-05 RMAX=   7.4e-05
LMP2-Iter=   5:  ELMP2= -1.469577957117  DE=   3.9e-06 RMAX=   1.9e-05
LMP2-Iter=   6:  ELMP2= -1.469577169284  DE=   7.9e-07 RMAX=   3.1e-06
LMP2-Iter=   7:  ELMP2= -1.469577118042  DE=   5.1e-08 RMAX=   6.9e-07
LMP2-Iter=   8:  ELMP2= -1.469577136276  DE=   1.8e-08 RMAX=   1.3e-07
LMP2-Iter=   9:  ELMP2= -1.469577136624  DE=   3.5e-10 RMAX=   2.6e-08 => CONVERGED
PASS-2: Formation of Pair natural orbitals
   .... Finished loop over pairs

 PNO Occupation Number Statistics: 
  | Av. % of trace(Dij) retained        ...  99.281468444952
  | sigma^2 in % of trace(Dij) retained ...   7.83e-01
  | Av. % of trace(Di) retained         ...  99.999617224778
  | sigma^2 in % of trace(Di) retained  ...   4.72e-09
 Distributions of % trace(Dij) recovered:
  |       >= 99.9  ...    67 ( 26.5 % of all pairs)
  |   [90.0, 99.0) ...    60 ( 23.7 % of all pairs)
  |   [99.0, 99.9) ...   126 ( 49.8 % of all pairs)
 Distributions of % trace(Di) recovered :
  |       >= 99.9  ...    22 (100.0 % of all I-pairs )

Making pair pair interaction lists          ... done

                       ===========================
                        251 OF  253 PAIRS ARE KEPT
                       ===========================

Total time spent in the initial guess                 ...   108.582 sec
L-MP2 correlation energy (all non-screened pairs)     ...      -1.469577136624 Eh
L-MP2 PNO error correction                            ...      -0.000036254280 Eh
                                                          --------------------
Initial total L-MP2 energy (non-screened pairs)       ...      -1.469613390905 Eh

Initial PNO correlation energy                        ...      -1.468070858364 Eh
sum of pair energies estimated for screened out pairs ...       0.000000000000 Eh
sum of MP2 pair energies for pairs that were not kept ...      -0.000022705378 Eh
sum of PNO error estimates for the kept pairs         ...      -0.001541596828 Eh
                                                          --------------------
sum of all corrections                                         -0.001564302206
Initial total correlation energy                               -1.469635160570
Thresholds for map construction and integral transformation for fine MP2 and CCSD(T) calculation:
   TCutMKN   ...     1.0e-03
   TCutDO    ...     5.0e-03
   TCutPairs ...     1.0e-05
   TCutCMO   ...     1.0e-03
   TCutCPAO  ...     1.0e-03

Time for aux screen maps:            0.003
Time for maps after fine MP2:            0.013
-----------------------------
LOCAL RI TRANSFORMATION (IJV)
-----------------------------

Orbital window:      11 to 32
Basis functions:    487 (163 shells)
Aux. functions:    1105 (303 shells)
Use SHARK:           on

Processing maps (0.0 sec)
Average map sizes:
   Aux shells -> MOs(i)           22.0
   Aux shells -> MOs(j)           22.0
   MOs        -> AO shells       163.0

Calculating integrals (4.3 sec, 4.093 MB)
Sorting integrals (0.0 sec, 4.081 MB)
Total time for the integral transformation: 4.3 sec
--------------------------------
LOCAL RI TRANSFORMATION (VABPAO)
--------------------------------

Number of PAOs:     487
Basis functions:    487 (163 shells)
Aux. functions:    1105 (303 shells)
Use SHARK:           on

Processing maps (0.0 sec)
Average map sizes:
   Aux shells -> PAOs            487.0
   PAOs       -> AO shells       163.0

Calculating integrals (11.7 sec, 1999.461 MB)
Finished


-------------------------------------
Pair Pair Term precalculation with     
RI-(ij|mn) and (im|jn) transformation  
ON THE FLY                             
-------------------------------------

   IBatch   1 (of   1)              ... done (  848.638 sec)
Total EXT                           ...         848.638 sec

---------------------
RI-PNO TRANSFORMATION
---------------------

Total Number of PNOs                   ... 10149
Average number of PNOs per pair        ...    40
Maximal number of PNOs per pair        ...    78
   #pairs with  1 -  5 PNOs   :    0
   #pairs with  6 - 10 PNOs   :   22
   #pairs with 11 - 15 PNOs   :   13
   #pairs with 16 - 20 PNOs   :   16
   #pairs with 21 - 25 PNOs   :   23
   #pairs with 26 - 30 PNOs   :   15
   #pairs with 31 - 35 PNOs   :   16
   #pairs with 36 - 40 PNOs   :   16
   #pairs with 41 - 45 PNOs   :   22
   #pairs with 46 - 50 PNOs   :   13
   #pairs with 51 - 55 PNOs   :   31
   #pairs with 56 - 60 PNOs   :   18
   #pairs with 61 - 65 PNOs   :   17
   #pairs with 66 - 70 PNOs   :    9
   #pairs with 71 - 75 PNOs   :    9
   #pairs with 76 - 80 PNOs   :   11

Generation of (ij|ab)[P] integrals            ... on
Generation of (ia|bc)[P],(ja|bc)[P] integrals ... on
Storage of 3 and 4 external integrals         ... on
Generation of ALL (ka|bc)[P] integrals        ... on
Keep RI integrals in memory                   ... off

Ibatch:  1 (of  1)
Starting 2-4 index PNO integral generation ... done

Timings:
Total PNO integral transformation time     ...        356.876 sec
Size of the 3-external file                ...       225 MB
Size of the 4-external file                ...      1729 MB
Size of the IKJL file                      ...         0 MB
Size of the all 3-external file            ...      2476 MB
Size of the 1-external file                ...         5 MB

Making pair/pair overlap matrices          ... done (   30.434 sec)
Size of the pair overlap file              ... 574 MB
Redoing the guess amplitudes               ... done (    0.003 sec)

-------------------------
FINAL STARTUP INFORMATION
-------------------------

E(0)                                       ...   -764.480852509
E(L-MP2)                                   ...     -1.469613391
E(L-MP2) including corrections             ...     -1.469635161
Initial E(tot)                             ...   -765.950487670
<T|T>                                      ...      0.349835863
Number of pairs included                   ... 251
Total number of pairs                      ... 253

------------------------------------------------
                  RHF COUPLED CLUSTER ITERATIONS
------------------------------------------------

Number of PNO amplitudes to be optimized   ...       512781
Number of non-PNO amplitudes               ...     51735116
Untruncated number of regular amplitudes   ...     52147348

Iter       E(tot)           E(Corr)          Delta-E          Residual     Time
  0   -765.895121901     -1.412705090      0.056908301      0.025558724   53.76
                           *** Turning on DIIS ***
  1   -765.933210229     -1.450793417     -0.038088328      0.008880943   53.41
  2   -765.966997404     -1.484580592     -0.033787175      0.003775173   53.43
  3   -765.973978736     -1.491561924     -0.006981332      0.001962135   53.42
  4   -765.976125858     -1.493709046     -0.002147122      0.000855470   53.45
  5   -765.976806834     -1.494390023     -0.000680976      0.000347466   53.52
  6   -765.976918706     -1.494501895     -0.000111872      0.000128610   53.50
  7   -765.976942649     -1.494525837     -0.000023942      0.000057819   53.61
  8   -765.976950057     -1.494533245     -0.000007408      0.000022083   53.52
  9   -765.976942551     -1.494525739      0.000007507      0.000007606   53.53
               --- The Coupled-Cluster iterations have converged ---

----------------------
COUPLED CLUSTER ENERGY
----------------------

E(0)                                       ...   -764.480852509
E(CORR)(strong-pairs)                      ...     -1.494525739
E(CORR)(weak-pairs)                        ...     -0.001564302
E(CORR)(corrected)                         ...     -1.496090041
E(TOT)                                     ...   -765.976942551
Singles Norm <S|S>**1/2                    ...      0.092497890  
T1 diagnostic                              ...      0.013944582  

------------------
LARGEST AMPLITUDES
------------------
  21-> 33  21-> 33       0.041897
  23-> 33  23-> 33       0.040517
  29-> 33  29-> 33       0.038626
  22-> 33  22-> 33       0.038116
  27-> 33  27-> 33       0.035343
  19-> 33  19-> 33       0.033695
  21-> 35  21-> 35       0.033308
  20-> 33  20-> 33       0.033141
  26-> 42  26-> 42       0.032385
  26-> 33  26-> 33       0.032239
  31-> 41  31-> 41       0.031142
  19-> 42  19-> 42       0.030485
  28-> 33  28-> 33       0.029778
  31-> 33  31-> 33       0.028841
  30-> 33  30-> 33       0.028812
  32-> 33  32-> 33       0.028397


-------------------------------------------
DLPNO BASED TRIPLES CORRECTION
-------------------------------------------

Singles multiplier          ...  1.000000
TCutTNO                     ... 1.000e-09
TCutMP2Pairs                ... 1.000e-06
TCutDOStrong                ... 1.000e-02
TCutMKNStrong               ... 1.000e-02
TCutDOWeak                  ... 2.000e-02
TCutMKNWeak                 ... 1.000e-01

Fragment selection                          .... not used
Number of Triples that are to be computed   ...      1998

 . . . . . . . . .
10% done  
20% done  
30% done  
40% done  
50% done  
60% done  
70% done  
80% done  
90% done               (   3036.096 sec)
Triples timings:
Total time for T0               ...  3180.104 sec
Total time for Iterative (T)    ...     0.000 sec
Total time of overall (T)       ...  3183.180 sec

Triples List generation         ...     0.000 sec
TNO generation                  ...   143.993 sec
Pair density generation         ...     0.006 sec
Look up tables                  ...     0.000 sec
Generating 3-index integrals    ...  2633.773 sec
  Make 4-ind.int. from 3-ind.int...   144.477 sec
  Projecting amplitudes (D + S) ...   137.170 sec
  Downprojecting integrals      ...     0.010 sec
  Energy contr. (sum over a,b,c)...    40.227 sec
Fitting ET(->0)                 ...     0.000 sec

Everything after 3-index        ...   402.323 sec

Timing details:
 TNO integrals                  ...  2764.764 sec
   Reading 3-index integrals    ...     1.066 sec
   Sorting integrals            ...   205.953 sec
       Sorting integrals 1      ...     0.008 sec
       Sorting integrals 2      ...   167.188 sec
       Sorting integrals 3      ...     4.608 sec
       Sorting integrals 4      ...     0.323 sec
       Sorting integrals 5      ...     1.967 sec
       Sorting integrals 6      ...    31.860 sec
   Calculating local VM**-1/2   ...    12.964 sec
   Orthogonal. integrals        ...    14.477 sec
   Multipl. 3-index integrals   ...  2530.304 sec
   All concerning IRIab (w/TNO) ...    81.050 sec

 Calculate W0/W1                ...    80.347 sec
 W 3-ext contribution           ...    51.270 sec
 W 3-int contribution           ...    11.185 sec
 Sorting W                      ...    16.701 sec

 V exchange contribution        ...    17.018 sec

 Timings for Triples without generation
     of 3-index integrals       ...   402.310 sec
       0 weak pairs             ...   398.586 sec
       1 weak pair              ...     3.724 sec
       2 weak pairs             ...     0.000 sec
       3 weak pairs             ...     0.000 sec
  Extra time for extrapolation  ...     0.000 sec

Number of Triples   (0, 1, 2, 3 weak pairs; overall):   1958      40       0       0  (  1998)
Number of Atoms     (0, 1, 2, 3 weak pairs; overall):   13.9    14.0     0.0     0.0  (    14)
Number of PAOs      (0, 1, 2, 3 weak pairs; overall):  484.5   486.4     0.0     0.0  (   487)
Number of AuxFcns   (0, 1, 2, 3 weak pairs; overall):  665.3   393.4     0.0     0.0  (  1105)
Number of TNOs      (0, 1, 2, 3 weak pairs         ):  100.1    71.0     0.0     0.0
Aver. Number of NTNO, Atoms, PAOs, AuxFcns / Triples:   1998    99.5    13.9   484.5   659.9

Triples Correction (T)                     ...     -0.060727959
Final correlation energy                   ...     -1.556818000
E(CCSD)                                    ...   -765.976942551
E(CCSD(T))                                 ...   -766.037670510



------------------------------------------------------------------------------- 
                                     TIMINGS                                   
------------------------------------------------------------------------------- 


Total execution time                   ...     5147.529 sec

Localization of occupied MO's          ...        0.658 sec (  0.0%)
Fock Matrix Formation                  ...       28.137 sec (  0.5%)
Global overlap, Fock, MKN matrices     ...        0.426 sec (  0.0%)
Differential overlap integrals         ...        2.052 sec (  0.0%)
Organizing maps                        ...        0.044 sec (  0.0%)
RI 3-index integral generations        ...       26.190 sec (  0.5%)
RI-PNO integral transformation         ...     1236.735 sec ( 24.0%)
Initial Guess                          ...      133.816 sec (  2.6%)
DIIS Solver                            ...        2.500 sec (  0.0%)
State Vector Update                    ...        0.018 sec (  0.0%)
Sigma-vector construction              ...      534.858 sec ( 10.4%)
  <0|H|D>                              ...        0.003 sec (  0.0% of sigma)
  <D|H|D>(0-ext)                       ...       20.122 sec (  3.8% of sigma)
  <D|H|D>(2-ext Fock)                  ...        0.057 sec (  0.0% of sigma)
  <D|H|D>(2-ext)                       ...      141.428 sec ( 26.4% of sigma)
  <D|H|D>(4-ext)                       ...       47.711 sec (  8.9% of sigma)
  <D|H|D>(4-ext-corr)                  ...      228.159 sec ( 42.7% of sigma)
  CCSD doubles correction              ...        1.030 sec (  0.2% of sigma)
  <S|H|S>                              ...        2.956 sec (  0.6% of sigma)
  <S|H|D>(1-ext)                       ...        2.007 sec (  0.4% of sigma)
  <D|H|S>(1-ext)                       ...        0.048 sec (  0.0% of sigma)
  <S|H|D>(3-ext)                       ...        1.682 sec (  0.3% of sigma)
  CCSD singles correction              ...        0.001 sec (  0.0% of sigma)
  Fock-dressing                        ...       63.716 sec ( 11.9% of sigma)
  Singles amplitudes                   ...        0.601 sec (  0.1% of sigma)
  (ik|jl)-dressing                     ...       15.765 sec (  2.9% of sigma)
  (ij|ab),(ia|jb)-dressing             ...        9.422 sec (  1.8% of sigma)
  Pair energies                        ...        0.023 sec (  0.0% of sigma)
Total Time for computing (T)           ...     3183.429 sec ( 61.8% of ALL)


Maximum memory used throughout the entire MDCI-calculation: 61082.9 MB

-------------------------   --------------------
FINAL SINGLE POINT ENERGY      -766.037670509788
-------------------------   --------------------


                            ***************************************
                            *     ORCA property calculations      *
                            ***************************************


  WARNING: The energy has been calculated at the MDCI level but the densities
           used in the property calculations are still SCF densities
           MDCI response densities have not been calculated 
           use %mdci Density linearized end
           or  %mdci Density unrelaxed end
           or  %mdci Density orbopt end

                                    ---------------------
                                    Active property flags
                                    ---------------------
   (+) Dipole Moment


------------------------------------------------------------------------------
                       ORCA ELECTRIC PROPERTIES CALCULATION
------------------------------------------------------------------------------

Dipole Moment Calculation                       ... on
Quadrupole Moment Calculation                   ... off
Polarizability Calculation                      ... off
GBWName                                         ... C1_wt_dlpno_neg.gbw
Electron density file                           ... C1_wt_dlpno_neg.scfp
The origin for moment calculation is the CENTER OF MASS  = ( 6.632789, -2.986863 -11.565353)

-------------
DIPOLE MOMENT
-------------
                                X             Y             Z
Electronic contribution:     -5.15871      10.08887      -5.35763
Nuclear contribution   :      6.51452     -11.35172       4.86721
                        -----------------------------------------
Total Dipole Moment    :      1.35581      -1.26285      -0.49042
                        -----------------------------------------
Magnitude (a.u.)       :      1.91665
Magnitude (Debye)      :      4.87173



--------------------
Rotational spectrum 
--------------------
 
Rotational constants in cm-1:     0.130386     0.053203     0.051661 
Rotational constants in MHz :  3908.886819  1594.983443  1548.763987 

 Dipole components along the rotational axes: 
x,y,z [a.u.] :     1.454256    -1.209852     0.308106 
x,y,z [Debye]:     3.696424    -3.075200     0.783144 

 

Timings for individual modules:

Sum of individual times         ...     5331.039 sec (=  88.851 min)
GTO integral calculation        ...        1.463 sec (=   0.024 min)   0.0 %
SCF iterations                  ...      181.378 sec (=   3.023 min)   3.4 %
MDCI module                     ...     5148.198 sec (=  85.803 min)  96.6 %
                             ****ORCA TERMINATED NORMALLY****
TOTAL RUN TIME: 0 days 1 hours 28 minutes 51 seconds 683 msec
