
                                        *****************
                                        * O   R   C   A *
                                        *****************

                                            #,                                       
                                            ###                                      
                                            ####                                     
                                            #####                                    
                                            ######                                   
                                           ########,                                 
                                     ,,################,,,,,                         
                               ,,#################################,,                 
                          ,,##########################################,,             
                       ,#########################################, ''#####,          
                    ,#############################################,,   '####,        
                  ,##################################################,,,,####,       
                ,###########''''           ''''###############################       
              ,#####''   ,,,,##########,,,,          '''####'''          '####       
            ,##' ,,,,###########################,,,                        '##       
           ' ,,###''''                  '''############,,,                           
         ,,##''                                '''############,,,,        ,,,,,,###''
      ,#''                                            '''#######################'''  
     '                                                          ''''####''''         
             ,#######,   #######,   ,#######,      ##                                
            ,#'     '#,  ##    ##  ,#'     '#,    #''#        ######   ,####,        
            ##       ##  ##   ,#'  ##            #'  '#       #        #'  '#        
            ##       ##  #######   ##           ,######,      #####,   #    #        
            '#,     ,#'  ##    ##  '#,     ,#' ,#      #,         ##   #,  ,#        
             '#######'   ##     ##  '#######'  #'      '#     #####' # '####'        



                  #######################################################
                  #                        -***-                        #
                  #          Department of theory and spectroscopy      #
                  #    Directorship and core code : Frank Neese         #
                  #        Max Planck Institute fuer Kohlenforschung    #
                  #                Kaiser Wilhelm Platz 1               #
                  #                 D-45470 Muelheim/Ruhr               #
                  #                      Germany                        #
                  #                                                     #
                  #                  All rights reserved                #
                  #                        -***-                        #
                  #######################################################


                         Program Version 5.0.0 -  RELEASE  -
                                (SVN: $Rev: 19529$)
                ($Date: 2021-06-28 11:36:33 +0200 (Mo, 28 Jun 2021) $)


 With contributions from (in alphabetic order):
   Daniel Aravena         : Magnetic Suceptibility
   Michael Atanasov       : Ab Initio Ligand Field Theory (pilot matlab implementation)
   Alexander A. Auer      : GIAO ZORA, VPT2 properties, NMR spectrum
   Ute Becker             : Parallelization
   Giovanni Bistoni       : ED, misc. LED, open-shell LED, HFLD
   Martin Brehm           : Molecular dynamics
   Dmytro Bykov           : SCF Hessian
   Vijay G. Chilkuri      : MRCI spin determinant printing, contributions to CSF-ICE
   Dipayan Datta          : RHF DLPNO-CCSD density
   Achintya Kumar Dutta   : EOM-CC, STEOM-CC
   Dmitry Ganyushin       : Spin-Orbit,Spin-Spin,Magnetic field MRCI
   Miquel Garcia          : C-PCM Hessian, Gaussian charge scheme
   Yang Guo               : DLPNO-NEVPT2, F12-NEVPT2, CIM, IAO-localization
   Andreas Hansen         : Spin unrestricted coupled pair/coupled cluster methods
   Benjamin Helmich-Paris : MC-RPA, TRAH-SCF, COSX integrals
   Lee Huntington         : MR-EOM, pCC
   Robert Izsak           : Overlap fitted RIJCOSX, COSX-SCS-MP3, EOM
   Marcus Kettner         : VPT2
   Christian Kollmar      : KDIIS, OOCD, Brueckner-CCSD(T), CCSD density, CASPT2, CASPT2-K
   Simone Kossmann        : Meta GGA functionals, TD-DFT gradient, OOMP2, MP2 Hessian
   Martin Krupicka        : Initial AUTO-CI
   Lucas Lang             : DCDCAS
   Marvin Lechner         : AUTO-CI (C++ implementation), FIC-MRCC
   Dagmar Lenk            : GEPOL surface, SMD
   Dimitrios Liakos       : Extrapolation schemes; Compound Job, initial MDCI parallelization
   Dimitrios Manganas     : Further ROCIS development; embedding schemes
   Dimitrios Pantazis     : SARC Basis sets
   Anastasios Papadopoulos: AUTO-CI, single reference methods and gradients
   Taras Petrenko         : DFT Hessian,TD-DFT gradient, ASA, ECA, R-Raman, ABS, FL, XAS/XES, NRVS
   Peter Pinski           : DLPNO-MP2, DLPNO-MP2 Gradient
   Christoph Reimann      : Effective Core Potentials
   Marius Retegan         : Local ZFS, SOC
   Christoph Riplinger    : Optimizer, TS searches, QM/MM, DLPNO-CCSD(T), (RO)-DLPNO pert. Triples
   Tobias Risthaus        : Range-separated hybrids, TD-DFT gradient, RPA, STAB
   Michael Roemelt        : Original ROCIS implementation
   Masaaki Saitow         : Open-shell DLPNO-CCSD energy and density
   Barbara Sandhoefer     : DKH picture change effects
   Avijit Sen             : IP-ROCIS
   Kantharuban Sivalingam : CASSCF convergence, NEVPT2, FIC-MRCI
   Bernardo de Souza      : ESD, SOC TD-DFT
   Georgi Stoychev        : AutoAux, RI-MP2 NMR
   Willem Van den Heuvel  : Paramagnetic NMR
   Boris Wezisla          : Elementary symmetry handling
   Frank Wennmohs         : Technical directorship


 We gratefully acknowledge several colleagues who have allowed us to
 interface, adapt or use parts of their codes:
   Stefan Grimme, W. Hujo, H. Kruse, P. Pracht,  : VdW corrections, initial TS optimization,
                  C. Bannwarth, S. Ehlert          DFT functionals, gCP, sTDA/sTD-DF
   Ed Valeev, F. Pavosevic, A. Kumar             : LibInt (2-el integral package), F12 methods
   Garnet Chan, S. Sharma, J. Yang, R. Olivares  : DMRG
   Ulf Ekstrom                                   : XCFun DFT Library
   Mihaly Kallay                                 : mrcc  (arbitrary order and MRCC methods)
   Jiri Pittner, Ondrej Demel                    : Mk-CCSD
   Frank Weinhold                                : gennbo (NPA and NBO analysis)
   Christopher J. Cramer and Donald G. Truhlar   : smd solvation model
   Lars Goerigk                                  : TD-DFT with DH, B97 family of functionals
   V. Asgeirsson, H. Jonsson                     : NEB implementation
   FAccTs GmbH                                   : IRC, NEB, NEB-TS, DLPNO-Multilevel, CI-OPT
                                                   MM, QMMM, 2- and 3-layer-ONIOM, Crystal-QMMM,
                                                   LR-CPCM, SF, NACMEs, symmetry and pop. for TD-DFT,
                                                   nearIR, NL-DFT gradient (VV10), updates on ESD,
                                                   ML-optimized integration grids
   S Lehtola, MJT Oliveira, MAL Marques          : LibXC Library
   Liviu Ungur et al                             : ANISO software


 Your calculation uses the libint2 library for the computation of 2-el integrals
 For citations please refer to: http://libint.valeyev.net

 Your ORCA version has been built with support for libXC version: 5.1.0
 For citations please refer to: https://tddft.org/programs/libxc/

 This ORCA versions uses:
   CBLAS   interface :  Fast vector & matrix operations
   LAPACKE interface :  Fast linear algebra routines
   SCALAPACK package :  Parallel linear algebra routines
   Shared memory     :  Shared parallel matrices
   BLAS/LAPACK       :  OpenBLAS 0.3.15  USE64BITINT DYNAMIC_ARCH NO_AFFINITY Haswell SINGLE_THREADED
        Core in use  :  Haswell
   Copyright (c) 2011-2014, The OpenBLAS Project


Your calculation utilizes the atom-pairwise dispersion correction
with the zero-damping scheme (D30)
Cite in your paper:
S.Grimme, J.Antony, S.Ehrlich and H.Krieg, J.Chem.Phys., 132, (2010), 154104 
   

XCFun DFT library Copyright 2009-2010 Ulf Ekstrom and contributors.
See http://admol.org/xcfun for more information.
This is free software; see the source code for copying conditions.
There is ABSOLUTELY NO WARRANTY; not even for MERCHANTABILITY or FITNESS FOR A PARTICULAR PURPOSE.
For details see the documentation.
Scientific users of this library should cite U. Ekstrom, L. Visscher, R. Bast, A. J. Thorvaldsen and K. Ruud;
J.Chem.Theor.Comp. 2010, DOI: 10.1021/ct100117s
XCFun Version 0.99 

================================================================================

----- Orbital basis set information -----
Your calculation utilizes the basis: def2-SVPD
   F. Weigend and R. Ahlrichs, Phys. Chem. Chem. Phys. 7, 3297 (2005).
   D. Rappoport and F. Furche, J. Chem. Phys. 133 134105 (2010).

----- AuxJ basis set information -----
Your calculation utilizes the auxiliary basis: def2/J
   F. Weigend, Phys. Chem. Chem. Phys. 8, 1057 (2006).

================================================================================
                                        WARNINGS
                       Please study these warnings very carefully!
================================================================================


INFO   : the flag for use of the SHARK integral package has been found!

================================================================================
                                       INPUT FILE
================================================================================
NAME = A_wt_dlpno_neg.com
|  1> !wB97X-D3 RIJCOSX def2-SVPD def2/J TightSCF CPCM(Water)
|  2> *xyz -1 1
|  3> C         -0.91495        0.61511        2.50554
|  4> C         -0.05915        1.50352        3.41058
|  5> H          0.36536        2.34431        2.86116
|  6> H         -0.69226        1.92021        4.19898
|  7> C          1.08303        0.74964        4.08571
|  8> O          2.22817        1.26348        4.01983
|  9> O          0.81003       -0.34541        4.63627
| 10> H         -0.30401        0.20228        1.73015
| 11> H         -1.69811        1.19946        2.06954
| 12> H         -1.34124       -0.17772        3.08397
| 13> *
| 14> 
| 15> %MaxCore 64000
| 16> 
| 17> %pal nprocs 18
| 18> end  
| 19> 
| 20> %scf
| 21>   MaxIter 150
| 22> end
| 23> 
| 24> 
| 25>                          ****END OF INPUT****
================================================================================

                       ****************************
                       * Single Point Calculation *
                       ****************************

---------------------------------
CARTESIAN COORDINATES (ANGSTROEM)
---------------------------------
  C     -0.914950    0.615110    2.505540
  C     -0.059150    1.503520    3.410580
  H      0.365360    2.344310    2.861160
  H     -0.692260    1.920210    4.198980
  C      1.083030    0.749640    4.085710
  O      2.228170    1.263480    4.019830
  O      0.810030   -0.345410    4.636270
  H     -0.304010    0.202280    1.730150
  H     -1.698110    1.199460    2.069540
  H     -1.341240   -0.177720    3.083970

----------------------------
CARTESIAN COORDINATES (A.U.)
----------------------------
  NO LB      ZA    FRAG     MASS         X           Y           Z
   0 C     6.0000    0    12.011   -1.729005    1.162389    4.734784
   1 C     6.0000    0    12.011   -0.111777    2.841241    6.445062
   2 H     1.0000    0     1.008    0.690430    4.430104    5.406809
   3 H     1.0000    0     1.008   -1.308182    3.628671    7.934922
   4 C     6.0000    0    12.011    2.046630    1.416614    7.720873
   5 O     8.0000    0    15.999    4.210631    2.387631    7.596378
   6 O     8.0000    0    15.999    1.530735   -0.652730    8.761281
   7 H     1.0000    0     1.008   -0.574496    0.382254    3.269510
   8 H     1.0000    0     1.008   -3.208963    2.266651    3.910864
   9 H     1.0000    0     1.008   -2.534576   -0.335842    5.827859

--------------------------------
INTERNAL COORDINATES (ANGSTROEM)
--------------------------------
 C      0   0   0     0.000000000000     0.00000000     0.00000000
 C      1   0   0     1.529955348924     0.00000000     0.00000000
 H      2   1   0     1.090412261762   111.55860693     0.00000000
 H      2   1   3     1.093633114074   108.89738504   118.05413034
 C      2   1   3     1.526011377317   113.17317112   237.68600968
 O      5   2   1     1.256868067698   117.17962187   130.97672394
 O      5   2   1     1.255698935295   117.52066640   312.46760082
 H      1   2   3     1.070002777847   109.47097276    61.94491199
 H      1   2   3     1.070000237430   109.47119053   301.94530766
 H      1   2   3     1.069992447590   109.47101914   181.94533963

---------------------------
INTERNAL COORDINATES (A.U.)
---------------------------
 C      0   0   0     0.000000000000     0.00000000     0.00000000
 C      1   0   0     2.891196606594     0.00000000     0.00000000
 H      2   1   0     2.060580547799   111.55860693     0.00000000
 H      2   1   3     2.066667076588   108.89738504   118.05413034
 C      2   1   3     2.883743580377   113.17317112   237.68600968
 O      5   2   1     2.375136434421   117.17962187   130.97672394
 O      5   2   1     2.372927094363   117.52066640   312.46760082
 H      1   2   3     2.022012212666   109.47097276    61.94491199
 H      1   2   3     2.022007411973   109.47119053   301.94530766
 H      1   2   3     2.021992691310   109.47101914   181.94533963

---------------------
BASIS SET INFORMATION
---------------------
There are 3 groups of distinct atoms

 Group   1 Type C   : 8s4p2d contracted to 4s2p2d pattern {5111/31/11}
 Group   2 Type H   : 4s2p contracted to 2s2p pattern {31/11}
 Group   3 Type O   : 8s5p2d contracted to 4s3p2d pattern {5111/311/11}

Atom   0C    basis set group =>   1
Atom   1C    basis set group =>   1
Atom   2H    basis set group =>   2
Atom   3H    basis set group =>   2
Atom   4C    basis set group =>   1
Atom   5O    basis set group =>   3
Atom   6O    basis set group =>   3
Atom   7H    basis set group =>   2
Atom   8H    basis set group =>   2
Atom   9H    basis set group =>   2
---------------------------------
AUXILIARY/J BASIS SET INFORMATION
---------------------------------
There are 3 groups of distinct atoms

 Group   1 Type C   : 12s5p4d2f1g contracted to 6s4p3d1f1g pattern {711111/2111/211/2/1}
 Group   2 Type H   : 5s2p1d contracted to 3s1p1d pattern {311/2/1}
 Group   3 Type O   : 12s5p4d2f1g contracted to 6s4p3d1f1g pattern {711111/2111/211/2/1}

Atom   0C    basis set group =>   1
Atom   1C    basis set group =>   1
Atom   2H    basis set group =>   2
Atom   3H    basis set group =>   2
Atom   4C    basis set group =>   1
Atom   5O    basis set group =>   3
Atom   6O    basis set group =>   3
Atom   7H    basis set group =>   2
Atom   8H    basis set group =>   2
Atom   9H    basis set group =>   2


           ************************************************************
           *        Program running with 18 parallel MPI-processes    *
           *              working on a common directory               *
           ************************************************************
------------------------------------------------------------------------------
                           ORCA GTO INTEGRAL CALCULATION
                           -- RI-GTO INTEGRALS CHOSEN --
------------------------------------------------------------------------------
------------------------------------------------------------------------------
                   ___                                                        
                  /   \      - P O W E R E D   B Y -                         
                 /     \                                                     
                 |  |  |   _    _      __       _____    __    __             
                 |  |  |  | |  | |    /  \     |  _  \  |  |  /  |          
                  \  \/   | |  | |   /    \    | | | |  |  | /  /          
                 / \  \   | |__| |  /  /\  \   | |_| |  |  |/  /          
                |  |  |   |  __  | /  /__\  \  |    /   |      \           
                |  |  |   | |  | | |   __   |  |    \   |  |\   \          
                \     /   | |  | | |  |  |  |  | |\  \  |  | \   \       
                 \___/    |_|  |_| |__|  |__|  |_| \__\ |__|  \__/        
                                                                              
                      - O R C A' S   B I G   F R I E N D -                    
                                      &                                       
                       - I N T E G R A L  F E E D E R -                       
                                                                              
 v1 FN, 2020, v2 2021                                                         
------------------------------------------------------------------------------


Reading SHARK input file A_wt_dlpno_neg.SHARKINP.tmp ... ok
----------------------
SHARK INTEGRAL PACKAGE
----------------------

Number of atoms                             ...     10
Number of basis functions                   ...    146
Number of shells                            ...     62
Maximum angular momentum                    ...      2
Integral batch strategy                     ... SHARK/LIBINT Hybrid
RI-J (if used) integral strategy            ... SPLIT-RIJ (Revised 2003 algorithm where possible)
Printlevel                                  ...      1
Contraction scheme used                     ... SEGMENTED contraction
Coulomb Range Separation                    ... NOT USED
Exchange Range Separation                   ... Long Range
   Mu parameter                             ...  0.250000
   Scaling (regular/separated)              ...  0.195728  0.804272
Finite Nucleus Model                        ... NOT USED
Auxiliary Coulomb fitting basis             ... AVAILABLE
   # of basis functions in Aux-J            ...    300
   # of shells in Aux-J                     ...    100
   Maximum angular momentum in Aux-J        ...      4
Auxiliary J/K fitting basis                 ... NOT available
Auxiliary Correlation fitting basis         ... NOT available
Auxiliary 'external' fitting basis          ... NOT available
Integral threshold                          ...     2.500000e-11
Primitive cut-off                           ...     2.500000e-12
Primitive pair pre-selection threshold      ...     2.500000e-12

Calculating pre-screening integrals         ... done (  0.0 sec) Dimension = 62
Organizing shell pair data                  ... done (  0.0 sec)
Shell pair information
Total number of shell pairs                 ...      1953
Shell pairs after pre-screening             ...      1935
Total number of primitive shell pairs       ...      5333
Primitive shell pairs kept                  ...      4531
          la=0 lb=0:    457 shell pairs
          la=1 lb=0:    654 shell pairs
          la=1 lb=1:    252 shell pairs
          la=2 lb=0:    298 shell pairs
          la=2 lb=1:    219 shell pairs
          la=2 lb=2:     55 shell pairs

Calculating one electron integrals          ... done (  0.0 sec)
Calculating RI/J V-Matrix + Cholesky decomp.... done (  0.0 sec)
Calculating Nuclear repulsion               ... done (  0.0 sec) ENN=    169.160633369676 Eh

SHARK setup successfully completed in   0.2 seconds

Maximum memory used throughout the entire GTOINT-calculation: 8.8 MB


           ************************************************************
           *        Program running with 18 parallel MPI-processes    *
           *              working on a common directory               *
           ************************************************************
-------------------------------------------------------------------------------
                                 ORCA SCF
-------------------------------------------------------------------------------

------------
SCF SETTINGS
------------
Hamiltonian:
 Density Functional     Method          .... DFT(GTOs)
 Exchange Functional    Exchange        .... WB97X-D3
 Correlation Functional Correlation     .... WB97X-D3
 Gradients option       PostSCFGGA      .... off
 Hybrid DFT is turned on
   Fraction HF Exchange ScalHFX         ....  0.195728
   Scaling of DF-GGA-X  ScalDFX         ....  0.000000
   Scaling of DF-GGA-C  ScalDFC         ....  1.000000
   Scaling of DF-LDA-C  ScalLDAC        ....  1.000000
   Perturbative correction              ....  0.000000
   Density functional embedding theory  .... OFF
 Long-range corrected/Screened/Range-Separated Hybrid DFT is turned on
   Amount of maximum screened exact exchange              ....  0.804272
   Range separation parameter mu (erf(mu*r12)/r12)        ....  0.250000
 RI-approximation to the Coulomb term is turned on
   Number of AuxJ basis functions       .... 300
   RIJ-COSX (HFX calculated with COS-X)).... on


General Settings:
 Integral files         IntName         .... A_wt_dlpno_neg
 Hartree-Fock type      HFTyp           .... RHF
 Total Charge           Charge          ....   -1
 Multiplicity           Mult            ....    1
 Number of Electrons    NEL             ....   40
 Basis Dimension        Dim             ....  146
 Nuclear Repulsion      ENuc            ....    169.1606333697 Eh

Convergence Acceleration:
 DIIS                   CNVDIIS         .... on
   Start iteration      DIISMaxIt       ....    12
   Startup error        DIISStart       ....  0.200000
   # of expansion vecs  DIISMaxEq       ....     5
   Bias factor          DIISBfac        ....   1.050
   Max. coefficient     DIISMaxC        ....  10.000
 Trust-Rad. Augm. Hess. CNVTRAH         .... auto
   Auto Start mean grad. ratio tolernc. ....  1.125000
   Auto Start start iteration           ....    20
   Auto Start num. interpolation iter.  ....    10
   Max. Number of Micro iterations      ....    16
   Max. Number of Macro iterations      .... Maxiter - #DIIS iter
   Number of Davidson start vectors     ....     2
   Converg. threshold I  (grad. norm)   ....   1.000e-05
   Converg. threshold II (energy diff.) ....   1.000e-08
   Grad. Scal. Fac. for Micro threshold ....   0.100
   Minimum threshold for Micro iter.    ....   0.010
   NR start threshold (gradient norm)   ....   0.001
   Initial trust radius                 ....   0.400
   Minimum AH scaling param. (alpha)    ....   1.000
   Maximum AH scaling param. (alpha)    .... 1000.000
   Orbital update algorithm             .... Taylor
   White noise on init. David. guess    .... on
   Maximum white noise                  ....   0.010
   Quad. conv. algorithm                .... NR
 SOSCF                  CNVSOSCF        .... on
   Start iteration      SOSCFMaxIt      ....   150
   Startup grad/error   SOSCFStart      ....  0.003300
 Level Shifting         CNVShift        .... on
   Level shift para.    LevelShift      ....    0.2500
   Turn off err/grad.   ShiftErr        ....    0.0010
 Zerner damping         CNVZerner       .... off
 Static damping         CNVDamp         .... on
   Fraction old density DampFac         ....    0.7000
   Max. Damping (<1)    DampMax         ....    0.9800
   Min. Damping (>=0)   DampMin         ....    0.0000
   Turn off err/grad.   DampErr         ....    0.1000
 Fernandez-Rico         CNVRico         .... off

SCF Procedure:
 Maximum # iterations   MaxIter         ....   150
 SCF integral mode      SCFMode         .... Direct
   Integral package                     .... SHARK and LIBINT hybrid scheme
 Reset frequency        DirectResetFreq ....    20
 Integral Threshold     Thresh          ....  2.500e-11 Eh
 Primitive CutOff       TCut            ....  2.500e-12 Eh

Convergence Tolerance:
 Convergence Check Mode ConvCheckMode   .... Total+1el-Energy
 Convergence forced     ConvForced      .... 0
 Energy Change          TolE            ....  1.000e-08 Eh
 1-El. energy change                    ....  1.000e-05 Eh
 Orbital Gradient       TolG            ....  1.000e-05
 Orbital Rotation angle TolX            ....  1.000e-05
 DIIS Error             TolErr          ....  5.000e-07


Diagonalization of the overlap matrix:
Smallest eigenvalue                        ... 1.140e-04
Time for diagonalization                   ...    0.007 sec
Threshold for overlap eigenvalues          ... 1.000e-08
Number of eigenvalues below threshold      ... 0
Time for construction of square roots      ...    0.013 sec
Total time needed                          ...    0.021 sec

Time for model grid setup =    0.045 sec

------------------------------
INITIAL GUESS: MODEL POTENTIAL
------------------------------
Loading Hartree-Fock densities                     ... done
Calculating cut-offs                               ... done
Initializing the effective Hamiltonian             ... done
Setting up the integral package (SHARK)            ... done
Starting the Coulomb interaction                   ... done (   0.0 sec)
Reading the grid                                   ... done
Mapping shells                                     ... done
Starting the XC term evaluation                    ... done (   0.0 sec)
  promolecular density results
     # of electrons  =     38.999028405
     EX              =    -33.070609254
     EC              =     -1.283306745
     EX+EC           =    -34.353915999
Transforming the Hamiltonian                       ... done (   0.0 sec)
Diagonalizing the Hamiltonian                      ... done (   0.0 sec)
Back transforming the eigenvectors                 ... done (   0.0 sec)
Now organizing SCF variables                       ... done
                      ------------------
                      INITIAL GUESS DONE (   0.1 sec)
                      ------------------
-------------------
DFT GRID GENERATION
-------------------

General Integration Accuracy     IntAcc      ... 4.388
Radial Grid Type                 RadialGrid  ... OptM3 with GC (2021)
Angular Grid (max. ang.)         AngularGrid ... 4 (Lebedev-302)
Angular grid pruning method      GridPruning ... 4 (adaptive)
Weight generation scheme         WeightScheme... Becke
Basis function cutoff            BFCut       ... 1.0000e-11
Integration weight cutoff        WCut        ... 1.0000e-14
Angular grids for H and He will be reduced by one unit
Partially contracted basis set               ... off
Rotationally invariant grid construction     ... off

Total number of grid points                  ...    48198
Total number of batches                      ...      759
Average number of points per batch           ...       63
Average number of grid points per atom       ...     4820
Time for grid setup =    0.261 sec

--------------------
COSX GRID GENERATION
--------------------

GRIDX 1
-------
General Integration Accuracy     IntAcc      ... 3.816
Radial Grid Type                 RadialGrid  ... OptM3 with GC (2021)
Angular Grid (max. ang.)         AngularGrid ... 1 (Lebedev-50)
Angular grid pruning method      GridPruning ... 4 (adaptive)
Weight generation scheme         WeightScheme... Becke
Basis function cutoff            BFCut       ... 1.0000e-11
Integration weight cutoff        WCut        ... 1.0000e-14
Angular grids for H and He will be reduced by one unit
Partially contracted basis set               ... on
Rotationally invariant grid construction     ... off

Total number of grid points                  ...     6050
Total number of batches                      ...      100
Average number of points per batch           ...       60
Average number of grid points per atom       ...      605
UseSFitting                                  ... on

GRIDX 2
-------
General Integration Accuracy     IntAcc      ... 4.020
Radial Grid Type                 RadialGrid  ... OptM3 with GC (2021)
Angular Grid (max. ang.)         AngularGrid ... 2 (Lebedev-110)
Angular grid pruning method      GridPruning ... 4 (adaptive)
Weight generation scheme         WeightScheme... Becke
Basis function cutoff            BFCut       ... 1.0000e-11
Integration weight cutoff        WCut        ... 1.0000e-14
Angular grids for H and He will be reduced by one unit
Partially contracted basis set               ... on
Rotationally invariant grid construction     ... off

Total number of grid points                  ...    14262
Total number of batches                      ...      228
Average number of points per batch           ...       62
Average number of grid points per atom       ...     1426
UseSFitting                                  ... on

GRIDX 3
-------
General Integration Accuracy     IntAcc      ... 4.338
Radial Grid Type                 RadialGrid  ... OptM3 with GC (2021)
Angular Grid (max. ang.)         AngularGrid ... 3 (Lebedev-194)
Angular grid pruning method      GridPruning ... 4 (adaptive)
Weight generation scheme         WeightScheme... Becke
Basis function cutoff            BFCut       ... 1.0000e-11
Integration weight cutoff        WCut        ... 1.0000e-14
Angular grids for H and He will be reduced by one unit
Partially contracted basis set               ... on
Rotationally invariant grid construction     ... off

Total number of grid points                  ...    32212
Total number of batches                      ...      509
Average number of points per batch           ...       63
Average number of grid points per atom       ...     3221
UseSFitting                                  ... on

Time for X-Grid setup             =    0.208 sec


--------------------
CPCM SOLVATION MODEL
--------------------
CPCM parameters:
  Epsilon                                         ...      80.4000
  Refrac                                          ...       1.3300
  Rsolv                                           ...       1.3000
  Surface type                                    ... GAUSSIAN VDW
  Epsilon function type                           ...         CPCM
Radii:
 Radius for C  used is    3.8550 Bohr (=   2.0400 Ang.)
 Radius for H  used is    2.4944 Bohr (=   1.3200 Ang.)
 Radius for O  used is    3.4469 Bohr (=   1.8240 Ang.)
Calculating surface                               ...        done! (  0.0s)
GEPOL surface points                              ...          629
GEPOL Volume                                      ...     647.1049
GEPOL Surface-area                                ...     408.5600
Calculating surface distance matrix               ...        done! (  0.0s)
Performing Cholesky decomposition & store         ...        done! (  0.0s)
Overall time for CPCM initialization              ...                 0.0s
--------------
SCF ITERATIONS
--------------
ITER       Energy         Delta-E        Max-DP      RMS-DP      [F,P]     Damp
               ***  Starting incremental Fock matrix formation  ***
  0   -267.4437207006   0.000000000000 0.09719815  0.00299724  0.2757849 0.7000
  1   -267.5490349011  -0.105314200457 0.05664353  0.00196020  0.1412749 0.7000
                               ***Turning on DIIS***
  2   -267.5981771548  -0.049142253785 0.08903361  0.00366104  0.0570464 0.0000
  3   -267.6772496865  -0.079072531633 0.04760730  0.00152468  0.0697802 0.0000
  4   -267.6906843562  -0.013434669768 0.01247778  0.00035520  0.0068806 0.0000
                      *** Initiating the SOSCF procedure ***
                           *** Shutting down DIIS ***
                      *** Re-Reading the Fockian *** 
                      *** Removing any level shift *** 
ITER      Energy       Delta-E        Grad      Rot      Max-DP    RMS-DP
  5   -267.69100300  -0.0003186442  0.000693  0.000693  0.002956  0.000115
               *** Restarting incremental Fock matrix formation ***
  6   -267.69107164  -0.0000686348  0.000283  0.000560  0.001545  0.000074
  7   -267.69107613  -0.0000044997  0.000118  0.000422  0.000977  0.000047
  8   -267.69107666  -0.0000005284  0.000102  0.000058  0.000274  0.000010
  9   -267.69107689  -0.0000002244  0.000020  0.000017  0.000112  0.000004
 10   -267.69107690  -0.0000000079  0.000008  0.000013  0.000056  0.000002
                  ***Gradient check signals convergence***
              ***Rediagonalizing the Fockian in SOSCF/NRSCF***

               *****************************************************
               *                     SUCCESS                       *
               *           SCF CONVERGED AFTER  11 CYCLES          *
               *****************************************************

Old exchange energy                            =    -10.944945057 Eh
New exchange energy                            =    -10.944915598 Eh
Exchange energy change after final integration =      0.000029459 Eh
Total energy after final integration           =   -267.691047441 Eh
Final COS-X integration done in                =     0.629 sec

----------------
TOTAL SCF ENERGY
----------------

Total Energy       :         -267.69104744 Eh           -7284.24372 eV

Components:
Nuclear Repulsion  :          169.16063337 Eh            4603.09485 eV
Electronic Energy  :         -436.85168081 Eh          -11887.33858 eV
One Electron Energy:         -708.30583393 Eh          -19273.98161 eV
Two Electron Energy:          271.45415311 Eh            7386.64304 eV
Max COSX asymmetry :            0.00000260 Eh               0.00007 eV
CPCM Dielectric    :           -0.11455034 Eh              -3.11707 eV

Virial components:
Potential Energy   :         -532.76790951 Eh          -14497.35185 eV
Kinetic Energy     :          265.07686207 Eh            7213.10812 eV
Virial Ratio       :            2.00986199


DFT components:
N(Alpha)           :       20.000173247494 electrons
N(Beta)            :       20.000173247494 electrons
N(Total)           :       40.000346494987 electrons
E(XC)              :      -24.531103860234 Eh       
DFET-embed. en.    :        0.000000000000 Eh       
CPCM Solvation Model Properties:
Surface-charge          :            0.96936409
Charge-correction       :           -0.00518300 Eh              -0.14104 eV
Free-energy (cav+disp)  :  This term is not implemented in the current solvation scheme

---------------
SCF CONVERGENCE
---------------

  Last Energy change         ...   -4.4736e-09  Tolerance :   1.0000e-08
  Last MAX-Density change    ...    3.1086e-15  Tolerance :   1.0000e-07
  Last RMS-Density change    ...    4.4334e-17  Tolerance :   5.0000e-09
  Last Orbital Gradient      ...    2.2046e-06  Tolerance :   1.0000e-05
  Last Orbital Rotation      ...    7.0761e-06  Tolerance :   1.0000e-05

             **** THE GBW FILE WAS UPDATED (A_wt_dlpno_neg.gbw) ****
             **** DENSITY A_wt_dlpno_neg.scfp WAS UPDATED ****
             **** ENERGY FILE WAS UPDATED (A_wt_dlpno_neg.en.tmp) ****
             **** THE GBW FILE WAS UPDATED (A_wt_dlpno_neg.gbw) ****
             **** DENSITY A_wt_dlpno_neg.scfp WAS UPDATED ****
----------------
ORBITAL ENERGIES
----------------

  NO   OCC          E(Eh)            E(eV) 
   0   2.0000     -19.177647      -521.8503 
   1   2.0000     -19.177326      -521.8416 
   2   2.0000     -10.365672      -282.0643 
   3   2.0000     -10.269734      -279.4537 
   4   2.0000     -10.264326      -279.3065 
   5   2.0000      -1.123624       -30.5754 
   6   2.0000      -1.028201       -27.9788 
   7   2.0000      -0.864967       -23.5370 
   8   2.0000      -0.732428       -19.9304 
   9   2.0000      -0.589801       -16.0493 
  10   2.0000      -0.547043       -14.8858 
  11   2.0000      -0.537676       -14.6309 
  12   2.0000      -0.508414       -13.8346 
  13   2.0000      -0.490238       -13.3401 
  14   2.0000      -0.467124       -12.7111 
  15   2.0000      -0.439296       -11.9538 
  16   2.0000      -0.423625       -11.5274 
  17   2.0000      -0.343687        -9.3522 
  18   2.0000      -0.329446        -8.9647 
  19   2.0000      -0.323164        -8.7937 
  20   0.0000       0.094803         2.5797 
  21   0.0000       0.120274         3.2728 
  22   0.0000       0.130421         3.5489 
  23   0.0000       0.140016         3.8100 
  24   0.0000       0.154987         4.2174 
  25   0.0000       0.175563         4.7773 
  26   0.0000       0.179007         4.8710 
  27   0.0000       0.188336         5.1249 
  28   0.0000       0.195229         5.3125 
  29   0.0000       0.197354         5.3703 
  30   0.0000       0.228717         6.2237 
  31   0.0000       0.243312         6.6208 
  32   0.0000       0.248907         6.7731 
  33   0.0000       0.254223         6.9178 
  34   0.0000       0.265825         7.2335 
  35   0.0000       0.283383         7.7112 
  36   0.0000       0.288908         7.8616 
  37   0.0000       0.312047         8.4912 
  38   0.0000       0.334882         9.1126 
  39   0.0000       0.344447         9.3729 
  40   0.0000       0.373028        10.1506 
  41   0.0000       0.381600        10.3839 
  42   0.0000       0.403382        10.9766 
  43   0.0000       0.407001        11.0751 
  44   0.0000       0.436324        11.8730 
  45   0.0000       0.436897        11.8886 
  46   0.0000       0.441724        12.0199 
  47   0.0000       0.455108        12.3841 
  48   0.0000       0.460001        12.5173 
  49   0.0000       0.465986        12.6801 
  50   0.0000       0.475933        12.9508 
  51   0.0000       0.484569        13.1858 
  52   0.0000       0.491383        13.3712 
  53   0.0000       0.507724        13.8159 
  54   0.0000       0.508343        13.8327 
  55   0.0000       0.515551        14.0289 
  56   0.0000       0.547588        14.9006 
  57   0.0000       0.563101        15.3228 
  58   0.0000       0.572159        15.5692 
  59   0.0000       0.575601        15.6629 
  60   0.0000       0.580998        15.8098 
  61   0.0000       0.587483        15.9862 
  62   0.0000       0.597117        16.2484 
  63   0.0000       0.613993        16.7076 
  64   0.0000       0.616625        16.7792 
  65   0.0000       0.636084        17.3087 
  66   0.0000       0.640922        17.4404 
  67   0.0000       0.651512        17.7286 
  68   0.0000       0.656168        17.8552 
  69   0.0000       0.670081        18.2338 
  70   0.0000       0.701596        19.0914 
  71   0.0000       0.706666        19.2294 
  72   0.0000       0.738770        20.1030 
  73   0.0000       0.763284        20.7700 
  74   0.0000       0.776822        21.1384 
  75   0.0000       0.786503        21.4018 
  76   0.0000       0.790376        21.5072 
  77   0.0000       0.812556        22.1108 
  78   0.0000       0.824265        22.4294 
  79   0.0000       0.866712        23.5844 
  80   0.0000       0.898904        24.4604 
  81   0.0000       0.955175        25.9916 
  82   0.0000       0.996424        27.1141 
  83   0.0000       1.037890        28.2424 
  84   0.0000       1.055179        28.7129 
  85   0.0000       1.090319        29.6691 
  86   0.0000       1.104679        30.0598 
  87   0.0000       1.124794        30.6072 
  88   0.0000       1.131529        30.7905 
  89   0.0000       1.143458        31.1151 
  90   0.0000       1.164356        31.6837 
  91   0.0000       1.167243        31.7623 
  92   0.0000       1.218984        33.1703 
  93   0.0000       1.259958        34.2852 
  94   0.0000       1.320766        35.9399 
  95   0.0000       1.373793        37.3828 
  96   0.0000       1.394973        37.9591 
  97   0.0000       1.465438        39.8766 
  98   0.0000       1.618110        44.0310 
  99   0.0000       1.637815        44.5672 
 100   0.0000       1.641374        44.6640 
 101   0.0000       1.651469        44.9388 
 102   0.0000       1.691741        46.0346 
 103   0.0000       1.727154        46.9982 
 104   0.0000       1.776214        48.3332 
 105   0.0000       1.796849        48.8947 
 106   0.0000       1.817037        49.4441 
 107   0.0000       1.834657        49.9236 
 108   0.0000       1.864923        50.7471 
 109   0.0000       1.964352        53.4527 
 110   0.0000       1.969116        53.5824 
 111   0.0000       2.004903        54.5562 
 112   0.0000       2.014683        54.8223 
 113   0.0000       2.053454        55.8773 
 114   0.0000       2.075985        56.4904 
 115   0.0000       2.134495        58.0826 
 116   0.0000       2.144543        58.3560 
 117   0.0000       2.177031        59.2400 
 118   0.0000       2.185811        59.4790 
 119   0.0000       2.237396        60.8826 
 120   0.0000       2.279822        62.0371 
 121   0.0000       2.331599        63.4460 
 122   0.0000       2.377075        64.6835 
 123   0.0000       2.427972        66.0685 
 124   0.0000       2.460872        66.9637 
 125   0.0000       2.587692        70.4147 
 126   0.0000       2.618137        71.2431 
 127   0.0000       2.672886        72.7329 
 128   0.0000       2.718286        73.9683 
 129   0.0000       2.783963        75.7555 
 130   0.0000       2.824288        76.8528 
 131   0.0000       2.996409        81.5364 
 132   0.0000       3.006242        81.8040 
 133   0.0000       3.021096        82.2082 
 134   0.0000       3.034685        82.5780 
 135   0.0000       3.098979        84.3275 
 136   0.0000       3.138891        85.4136 
 137   0.0000       3.181145        86.5633 
 138   0.0000       3.201138        87.1074 
 139   0.0000       3.251978        88.4908 
 140   0.0000       3.273586        89.0788 
 141   0.0000       3.366076        91.5956 
 142   0.0000       3.415126        92.9303 
 143   0.0000       3.587475        97.6202 
 144   0.0000       3.824534       104.0709 
 145   0.0000       3.951305       107.5205 

                    ********************************
                    * MULLIKEN POPULATION ANALYSIS *
                    ********************************

-----------------------
MULLIKEN ATOMIC CHARGES
-----------------------
   0 C :    0.525358
   1 C :   -0.321538
   2 H :   -0.051215
   3 H :    0.038942
   4 C :    0.401258
   5 O :   -0.721023
   6 O :   -0.745959
   7 H :   -0.046430
   8 H :   -0.032585
   9 H :   -0.046809
Sum of atomic charges:   -1.0000000

--------------------------------
MULLIKEN REDUCED ORBITAL CHARGES
--------------------------------
  0 C s       :     2.528472  s :     2.528472
      pz      :     0.945892  p :     2.822740
      px      :     0.912478
      py      :     0.964370
      dz2     :     0.048466  d :     0.123429
      dxz     :     0.005273
      dyz     :     0.033248
      dx2y2   :     0.021773
      dxy     :     0.014669
  1 C s       :     2.862146  s :     2.862146
      pz      :     0.998553  p :     3.077827
      px      :     1.039467
      py      :     1.039807
      dz2     :     0.093740  d :     0.381564
      dxz     :     0.048853
      dyz     :     0.065168
      dx2y2   :     0.115534
      dxy     :     0.058269
  2 H s       :     0.986365  s :     0.986365
      pz      :     0.016731  p :     0.064850
      px      :     0.006739
      py      :     0.041381
  3 H s       :     0.937806  s :     0.937806
      pz      :     0.027205  p :     0.023252
      px      :    -0.008471
      py      :     0.004518
  4 C s       :     2.850288  s :     2.850288
      pz      :     0.706031  p :     2.377673
      px      :     0.848485
      py      :     0.823157
      dz2     :     0.037894  d :     0.370781
      dxz     :     0.048061
      dyz     :     0.075854
      dx2y2   :     0.112830
      dxy     :     0.096142
  5 O s       :     3.929604  s :     3.929604
      pz      :     1.685747  p :     4.765725
      px      :     1.357106
      py      :     1.722872
      dz2     :     0.001425  d :     0.025694
      dxz     :     0.010729
      dyz     :     0.002679
      dx2y2   :     0.007233
      dxy     :     0.003628
  6 O s       :     3.943686  s :     3.943686
      pz      :     1.572051  p :     4.781739
      px      :     1.848185
      py      :     1.361504
      dz2     :     0.004818  d :     0.020533
      dxz     :     0.002750
      dyz     :     0.006820
      dx2y2   :     0.005561
      dxy     :     0.000584
  7 H s       :     1.008817  s :     1.008817
      pz      :     0.018505  p :     0.037613
      px      :     0.031539
      py      :    -0.012430
  8 H s       :     1.007119  s :     1.007119
      pz      :    -0.015138  p :     0.025466
      px      :     0.008566
      py      :     0.032038
  9 H s       :     0.997444  s :     0.997444
      pz      :     0.029847  p :     0.049365
      px      :    -0.000042
      py      :     0.019560


                     *******************************
                     * LOEWDIN POPULATION ANALYSIS *
                     *******************************

----------------------
LOEWDIN ATOMIC CHARGES
----------------------
   0 C :    0.112716
   1 C :   -0.036289
   2 H :    0.010336
   3 H :    0.027756
   4 C :   -0.325971
   5 O :   -0.369329
   6 O :   -0.359574
   7 H :   -0.013526
   8 H :   -0.019843
   9 H :   -0.026277

-------------------------------
LOEWDIN REDUCED ORBITAL CHARGES
-------------------------------
  0 C s       :     2.700724  s :     2.700724
      pz      :     0.923892  p :     2.773662
      px      :     0.921979
      py      :     0.927792
      dz2     :     0.063222  d :     0.412898
      dxz     :     0.092522
      dyz     :     0.101567
      dx2y2   :     0.056314
      dxy     :     0.099272
  1 C s       :     2.689356  s :     2.689356
      pz      :     0.906611  p :     2.719054
      px      :     0.905153
      py      :     0.907290
      dz2     :     0.096503  d :     0.627879
      dxz     :     0.140658
      dyz     :     0.135239
      dx2y2   :     0.126214
      dxy     :     0.129265
  2 H s       :     0.731276  s :     0.731276
      pz      :     0.081235  p :     0.258387
      px      :     0.082090
      py      :     0.095063
  3 H s       :     0.723561  s :     0.723561
      pz      :     0.094434  p :     0.248683
      px      :     0.082168
      py      :     0.072082
  4 C s       :     2.679213  s :     2.679213
      pz      :     0.682687  p :     2.415024
      px      :     0.891726
      py      :     0.840611
      dz2     :     0.151383  d :     1.231735
      dxz     :     0.223666
      dyz     :     0.194982
      dx2y2   :     0.322462
      dxy     :     0.339242
  5 O s       :     3.466596  s :     3.466596
      pz      :     1.552574  p :     4.673886
      px      :     1.493550
      py      :     1.627761
      dz2     :     0.024879  d :     0.228847
      dxz     :     0.048292
      dyz     :     0.016430
      dx2y2   :     0.074247
      dxy     :     0.065000
  6 O s       :     3.461746  s :     3.461746
      pz      :     1.499718  p :     4.668569
      px      :     1.704223
      py      :     1.464628
      dz2     :     0.028108  d :     0.229258
      dxz     :     0.023585
      dyz     :     0.061072
      dx2y2   :     0.051790
      dxy     :     0.064703
  7 H s       :     0.743976  s :     0.743976
      pz      :     0.097682  p :     0.269549
      px      :     0.093428
      py      :     0.078439
  8 H s       :     0.746211  s :     0.746211
      pz      :     0.080624  p :     0.273632
      px      :     0.101954
      py      :     0.091053
  9 H s       :     0.738336  s :     0.738336
      pz      :     0.099240  p :     0.287940
      px      :     0.085567
      py      :     0.103133


                      *****************************
                      * MAYER POPULATION ANALYSIS *
                      *****************************

  NA   - Mulliken gross atomic population
  ZA   - Total nuclear charge
  QA   - Mulliken gross atomic charge
  VA   - Mayer's total valence
  BVA  - Mayer's bonded valence
  FA   - Mayer's free valence

  ATOM       NA         ZA         QA         VA         BVA        FA
  0 C      5.4746     6.0000     0.5254     3.9874     3.9874    -0.0000
  1 C      6.3215     6.0000    -0.3215     4.7220     4.7220    -0.0000
  2 H      1.0512     1.0000    -0.0512     1.2082     1.2082    -0.0000
  3 H      0.9611     1.0000     0.0389     1.0649     1.0649     0.0000
  4 C      5.5987     6.0000     0.4013     4.2142     4.2142    -0.0000
  5 O      8.7210     8.0000    -0.7210     1.6149     1.6149    -0.0000
  6 O      8.7460     8.0000    -0.7460     1.6762     1.6762     0.0000
  7 H      1.0464     1.0000    -0.0464     1.0671     1.0671    -0.0000
  8 H      1.0326     1.0000    -0.0326     1.0394     1.0394    -0.0000
  9 H      1.0468     1.0000    -0.0468     1.1035     1.1035    -0.0000

  Mayer bond orders larger than 0.100000
B(  0-C ,  1-C ) :   1.2762 B(  0-C ,  7-H ) :   0.8652 B(  0-C ,  8-H ) :   0.8510 
B(  0-C ,  9-H ) :   0.8353 B(  1-C ,  2-H ) :   0.9716 B(  1-C ,  3-H ) :   0.8861 
B(  1-C ,  4-C ) :   1.0480 B(  1-C ,  7-H ) :   0.1490 B(  1-C ,  8-H ) :   0.1545 
B(  1-C ,  9-H ) :   0.1807 B(  2-H ,  4-C ) :   0.1610 B(  4-C ,  5-O ) :   1.4728 
B(  4-C ,  6-O ) :   1.4839 B(  5-O ,  6-O ) :   0.1482 

-------
TIMINGS
-------

Total SCF time: 0 days 0 hours 0 min 6 sec 

Total time                  ....       6.451 sec
Sum of individual times     ....       6.247 sec  ( 96.8%)

Fock matrix formation       ....       5.590 sec  ( 86.7%)
  Split-RI-J                ....       0.386 sec  (  6.9% of F)
  Chain of spheres X        ....       3.675 sec  ( 65.7% of F)
  XC integration            ....       0.582 sec  ( 10.4% of F)
    Basis function eval.    ....       0.157 sec  ( 27.0% of XC)
    Density eval.           ....       0.102 sec  ( 17.5% of XC)
    XC-Functional eval.     ....       0.053 sec  (  9.1% of XC)
    XC-Potential eval.      ....       0.145 sec  ( 25.0% of XC)
Diagonalization             ....       0.038 sec  (  0.6%)
Density matrix formation    ....       0.006 sec  (  0.1%)
Population analysis         ....       0.007 sec  (  0.1%)
Initial guess               ....       0.034 sec  (  0.5%)
Orbital Transformation      ....       0.000 sec  (  0.0%)
Orbital Orthonormalization  ....       0.000 sec  (  0.0%)
DIIS solution               ....       0.029 sec  (  0.4%)
SOSCF solution              ....       0.030 sec  (  0.5%)
Grid generation             ....       0.513 sec  (  8.0%)

Maximum memory used throughout the entire SCF-calculation: 49.2 MB


-------------------------------------------------------------------------------
                          DFT DISPERSION CORRECTION                            
                                                                               
                              DFTD3 V3.1  Rev 1                                
                              USING zero damping                               
-------------------------------------------------------------------------------
The omegaB97X-D3 functional is recognized. Fit by Chai et al.
Active option DFTDOPT                   ...         3   

molecular C6(AA) [au] = 865.622780 


            DFT-D V3
 parameters
 s6 scaling factor         :     1.0000 
 rs6 scaling factor        :     1.2810 
 s8 scaling factor         :     1.0000 
 rs8 scaling factor        :     1.0940 
 Damping factor alpha6     :    14.0000 
 Damping factor alpha8     :    16.0000 
 ad hoc parameters k1-k3   :    16.0000     1.3333    -4.0000 

 Edisp/kcal,au: -1.217411475736  -0.001940068471 
 E6   /kcal   :  -0.423918805 
 E8   /kcal   :  -0.793492670 
 % E8         :  65.178675091 

-------------------------   ----------------
Dispersion correction           -0.001940068
-------------------------   ----------------


-------------------------   --------------------
FINAL SINGLE POINT ENERGY      -267.692987509776
-------------------------   --------------------


                            ***************************************
                            *     ORCA property calculations      *
                            ***************************************

                                    ---------------------
                                    Active property flags
                                    ---------------------
   (+) Dipole Moment


------------------------------------------------------------------------------
                       ORCA ELECTRIC PROPERTIES CALCULATION
------------------------------------------------------------------------------

Dipole Moment Calculation                       ... on
Quadrupole Moment Calculation                   ... off
Polarizability Calculation                      ... off
GBWName                                         ... A_wt_dlpno_neg.gbw
Electron density file                           ... A_wt_dlpno_neg.scfp
The origin for moment calculation is the CENTER OF MASS  = ( 1.195239,  1.413886  7.051819)

-------------
DIPOLE MOMENT
-------------
                                X             Y             Z
Electronic contribution:      4.10231      -0.70870       2.96256
Nuclear contribution   :     -6.38408       1.63097      -4.40540
                        -----------------------------------------
Total Dipole Moment    :     -2.28176       0.92226      -1.44284
                        -----------------------------------------
Magnitude (a.u.)       :      2.85286
Magnitude (Debye)      :      7.25139



--------------------
Rotational spectrum 
--------------------
 
Rotational constants in cm-1:     0.319732     0.134414     0.104753 
Rotational constants in MHz :  9585.336550  4029.633034  3140.404334 

 Dipole components along the rotational axes: 
x,y,z [a.u.] :    -2.728132     0.751160    -0.363127 
x,y,z [Debye]:    -6.934359     1.909298    -0.922996 

 

Timings for individual modules:

Sum of individual times         ...        7.611 sec (=   0.127 min)
GTO integral calculation        ...        0.691 sec (=   0.012 min)   9.1 %
SCF iterations                  ...        6.920 sec (=   0.115 min)  90.9 %
                             ****ORCA TERMINATED NORMALLY****
TOTAL RUN TIME: 0 days 0 hours 0 minutes 8 seconds 174 msec
