
                                        *****************
                                        * O   R   C   A *
                                        *****************

                                            #,                                       
                                            ###                                      
                                            ####                                     
                                            #####                                    
                                            ######                                   
                                           ########,                                 
                                     ,,################,,,,,                         
                               ,,#################################,,                 
                          ,,##########################################,,             
                       ,#########################################, ''#####,          
                    ,#############################################,,   '####,        
                  ,##################################################,,,,####,       
                ,###########''''           ''''###############################       
              ,#####''   ,,,,##########,,,,          '''####'''          '####       
            ,##' ,,,,###########################,,,                        '##       
           ' ,,###''''                  '''############,,,                           
         ,,##''                                '''############,,,,        ,,,,,,###''
      ,#''                                            '''#######################'''  
     '                                                          ''''####''''         
             ,#######,   #######,   ,#######,      ##                                
            ,#'     '#,  ##    ##  ,#'     '#,    #''#        ######   ,####,        
            ##       ##  ##   ,#'  ##            #'  '#       #        #'  '#        
            ##       ##  #######   ##           ,######,      #####,   #    #        
            '#,     ,#'  ##    ##  '#,     ,#' ,#      #,         ##   #,  ,#        
             '#######'   ##     ##  '#######'  #'      '#     #####' # '####'        



                  #######################################################
                  #                        -***-                        #
                  #          Department of theory and spectroscopy      #
                  #    Directorship and core code : Frank Neese         #
                  #        Max Planck Institute fuer Kohlenforschung    #
                  #                Kaiser Wilhelm Platz 1               #
                  #                 D-45470 Muelheim/Ruhr               #
                  #                      Germany                        #
                  #                                                     #
                  #                  All rights reserved                #
                  #                        -***-                        #
                  #######################################################


                         Program Version 5.0.0 -  RELEASE  -
                                (SVN: $Rev: 19529$)
                ($Date: 2021-06-28 11:36:33 +0200 (Mo, 28 Jun 2021) $)


 With contributions from (in alphabetic order):
   Daniel Aravena         : Magnetic Suceptibility
   Michael Atanasov       : Ab Initio Ligand Field Theory (pilot matlab implementation)
   Alexander A. Auer      : GIAO ZORA, VPT2 properties, NMR spectrum
   Ute Becker             : Parallelization
   Giovanni Bistoni       : ED, misc. LED, open-shell LED, HFLD
   Martin Brehm           : Molecular dynamics
   Dmytro Bykov           : SCF Hessian
   Vijay G. Chilkuri      : MRCI spin determinant printing, contributions to CSF-ICE
   Dipayan Datta          : RHF DLPNO-CCSD density
   Achintya Kumar Dutta   : EOM-CC, STEOM-CC
   Dmitry Ganyushin       : Spin-Orbit,Spin-Spin,Magnetic field MRCI
   Miquel Garcia          : C-PCM Hessian, Gaussian charge scheme
   Yang Guo               : DLPNO-NEVPT2, F12-NEVPT2, CIM, IAO-localization
   Andreas Hansen         : Spin unrestricted coupled pair/coupled cluster methods
   Benjamin Helmich-Paris : MC-RPA, TRAH-SCF, COSX integrals
   Lee Huntington         : MR-EOM, pCC
   Robert Izsak           : Overlap fitted RIJCOSX, COSX-SCS-MP3, EOM
   Marcus Kettner         : VPT2
   Christian Kollmar      : KDIIS, OOCD, Brueckner-CCSD(T), CCSD density, CASPT2, CASPT2-K
   Simone Kossmann        : Meta GGA functionals, TD-DFT gradient, OOMP2, MP2 Hessian
   Martin Krupicka        : Initial AUTO-CI
   Lucas Lang             : DCDCAS
   Marvin Lechner         : AUTO-CI (C++ implementation), FIC-MRCC
   Dagmar Lenk            : GEPOL surface, SMD
   Dimitrios Liakos       : Extrapolation schemes; Compound Job, initial MDCI parallelization
   Dimitrios Manganas     : Further ROCIS development; embedding schemes
   Dimitrios Pantazis     : SARC Basis sets
   Anastasios Papadopoulos: AUTO-CI, single reference methods and gradients
   Taras Petrenko         : DFT Hessian,TD-DFT gradient, ASA, ECA, R-Raman, ABS, FL, XAS/XES, NRVS
   Peter Pinski           : DLPNO-MP2, DLPNO-MP2 Gradient
   Christoph Reimann      : Effective Core Potentials
   Marius Retegan         : Local ZFS, SOC
   Christoph Riplinger    : Optimizer, TS searches, QM/MM, DLPNO-CCSD(T), (RO)-DLPNO pert. Triples
   Tobias Risthaus        : Range-separated hybrids, TD-DFT gradient, RPA, STAB
   Michael Roemelt        : Original ROCIS implementation
   Masaaki Saitow         : Open-shell DLPNO-CCSD energy and density
   Barbara Sandhoefer     : DKH picture change effects
   Avijit Sen             : IP-ROCIS
   Kantharuban Sivalingam : CASSCF convergence, NEVPT2, FIC-MRCI
   Bernardo de Souza      : ESD, SOC TD-DFT
   Georgi Stoychev        : AutoAux, RI-MP2 NMR
   Willem Van den Heuvel  : Paramagnetic NMR
   Boris Wezisla          : Elementary symmetry handling
   Frank Wennmohs         : Technical directorship


 We gratefully acknowledge several colleagues who have allowed us to
 interface, adapt or use parts of their codes:
   Stefan Grimme, W. Hujo, H. Kruse, P. Pracht,  : VdW corrections, initial TS optimization,
                  C. Bannwarth, S. Ehlert          DFT functionals, gCP, sTDA/sTD-DF
   Ed Valeev, F. Pavosevic, A. Kumar             : LibInt (2-el integral package), F12 methods
   Garnet Chan, S. Sharma, J. Yang, R. Olivares  : DMRG
   Ulf Ekstrom                                   : XCFun DFT Library
   Mihaly Kallay                                 : mrcc  (arbitrary order and MRCC methods)
   Jiri Pittner, Ondrej Demel                    : Mk-CCSD
   Frank Weinhold                                : gennbo (NPA and NBO analysis)
   Christopher J. Cramer and Donald G. Truhlar   : smd solvation model
   Lars Goerigk                                  : TD-DFT with DH, B97 family of functionals
   V. Asgeirsson, H. Jonsson                     : NEB implementation
   FAccTs GmbH                                   : IRC, NEB, NEB-TS, DLPNO-Multilevel, CI-OPT
                                                   MM, QMMM, 2- and 3-layer-ONIOM, Crystal-QMMM,
                                                   LR-CPCM, SF, NACMEs, symmetry and pop. for TD-DFT,
                                                   nearIR, NL-DFT gradient (VV10), updates on ESD,
                                                   ML-optimized integration grids
   S Lehtola, MJT Oliveira, MAL Marques          : LibXC Library
   Liviu Ungur et al                             : ANISO software


 Your calculation uses the libint2 library for the computation of 2-el integrals
 For citations please refer to: http://libint.valeyev.net

 Your ORCA version has been built with support for libXC version: 5.1.0
 For citations please refer to: https://tddft.org/programs/libxc/

 This ORCA versions uses:
   CBLAS   interface :  Fast vector & matrix operations
   LAPACKE interface :  Fast linear algebra routines
   SCALAPACK package :  Parallel linear algebra routines
   Shared memory     :  Shared parallel matrices
   BLAS/LAPACK       :  OpenBLAS 0.3.15  USE64BITINT DYNAMIC_ARCH NO_AFFINITY Haswell SINGLE_THREADED
        Core in use  :  Haswell
   Copyright (c) 2011-2014, The OpenBLAS Project


Your calculation utilizes the atom-pairwise dispersion correction
with the Becke-Johnson damping scheme (D3BJ)
Cite in your paper:
S.Grimme, S.Ehrlich, L.Goerigk, J Comput Chem, (2011), 32, 1456–1465 
S.Grimme, J.Antony, S.Ehrlich and H.Krieg, J.Chem.Phys., 132, (2010), 154104 
   

================================================================================

----- Orbital basis set information -----
Your calculation utilizes the basis: def2-TZVP
   F. Weigend and R. Ahlrichs, Phys. Chem. Chem. Phys. 7, 3297 (2005).

----- AuxJ basis set information -----
Your calculation utilizes the auxiliary basis: def2/J
   F. Weigend, Phys. Chem. Chem. Phys. 8, 1057 (2006).

================================================================================
                                        WARNINGS
                       Please study these warnings very carefully!
================================================================================



WARNING: Found flag for RIJCOSX approximation but no HF exchange needed!
  ===> : RIJCOSX  will be disabled and Split-RI-J is turned on

INFO   : the flag for use of the SHARK integral package has been found!

================================================================================
                                       INPUT FILE
================================================================================
NAME = TZVP_BLYP_C2_wt_dlpno_pos.com
|  1> !BLYP D3BJ RIJCOSX def2-TZVP def2/J TightSCF
|  2> *xyz 0 1
|  3> C          5.55821       -1.99291       -6.21505
|  4> C          4.18188       -2.58967       -6.29891
|  5> N          3.14587       -1.76843       -6.48675
|  6> C          4.01910       -3.86431       -6.22743
|  7> H          4.76849       -4.59115       -5.99077
|  8> H          3.12241       -4.33339       -6.31462
|  9> H          3.28164       -0.77779       -6.56655
| 10> H          2.21255       -2.13419       -6.56225
| 11> C          6.41926       -2.54294       -5.07763
| 12> H          6.03683       -2.19819       -7.17685
| 13> H          5.46761       -0.90737       -6.12797
| 14> H          6.50056       -3.60553       -5.17358
| 15> H          5.96544       -2.30329       -4.13874
| 16> H          7.39438       -2.10494       -5.12457
| 17> *
| 18> 
| 19> %MaxCore 64000
| 20> 
| 21> %pal nprocs 4
| 22> end  
| 23> 
| 24> %scf
| 25>   MaxIter 150
| 26> end
| 27> 
| 28> 
| 29>                          ****END OF INPUT****
================================================================================

                       ****************************
                       * Single Point Calculation *
                       ****************************

---------------------------------
CARTESIAN COORDINATES (ANGSTROEM)
---------------------------------
  C      5.558210   -1.992910   -6.215050
  C      4.181880   -2.589670   -6.298910
  N      3.145870   -1.768430   -6.486750
  C      4.019100   -3.864310   -6.227430
  H      4.768490   -4.591150   -5.990770
  H      3.122410   -4.333390   -6.314620
  H      3.281640   -0.777790   -6.566550
  H      2.212550   -2.134190   -6.562250
  C      6.419260   -2.542940   -5.077630
  H      6.036830   -2.198190   -7.176850
  H      5.467610   -0.907370   -6.127970
  H      6.500560   -3.605530   -5.173580
  H      5.965440   -2.303290   -4.138740
  H      7.394380   -2.104940   -5.124570

----------------------------
CARTESIAN COORDINATES (A.U.)
----------------------------
  NO LB      ZA    FRAG     MASS         X           Y           Z
   0 C     6.0000    0    12.011   10.503495   -3.766054  -11.744742
   1 C     6.0000    0    12.011    7.902608   -4.893767  -11.903215
   2 N     7.0000    0    14.007    5.944833   -3.341848  -12.258181
   3 C     6.0000    0    12.011    7.594998   -7.302488  -11.768137
   4 H     1.0000    0     1.008    9.011140   -8.676016  -11.320915
   5 H     1.0000    0     1.008    5.900500   -8.188920  -11.932902
   6 H     1.0000    0     1.008    6.201401   -1.469810  -12.408981
   7 H     1.0000    0     1.008    4.181114   -4.033035  -12.400855
   8 C     6.0000    0    12.011   12.130643   -4.805460   -9.595330
   9 H     1.0000    0     1.008   11.407955   -4.153977  -13.562281
  10 H     1.0000    0     1.008   10.332286   -1.714681  -11.580185
  11 H     1.0000    0     1.008   12.284278   -6.813464   -9.776649
  12 H     1.0000    0     1.008   11.273048   -4.352587   -7.821085
  13 H     1.0000    0     1.008   13.973353   -3.977760   -9.684034

--------------------------------
INTERNAL COORDINATES (ANGSTROEM)
--------------------------------
 C      0   0   0     0.000000000000     0.00000000     0.00000000
 C      1   0   0     1.502477709019     0.00000000     0.00000000
 N      2   1   0     1.335303607162   118.31345049     0.00000000
 C      2   1   3     1.286978573404   120.40698489   178.11903254
 H      4   2   1     1.070462382945   126.59967088     7.96889692
 H      4   2   1     1.015721959298   124.35258296   182.57970995
 H      3   2   1     1.003079828578   120.90191037   359.77612908
 H      3   2   1     1.005269540969   120.47250834   179.03023138
 C      1   2   3     1.528942235600   114.48912146   134.97205894
 H      1   2   3     1.093744130407   106.09496297   256.34022102
 H      1   2   3     1.092789265138   108.84750716    11.20622356
 H      9   1   2     1.070006355402   109.47115838    56.94341761
 H      9   1   2     1.069999601402   109.47171602   296.94339310
 H      9   1   2     1.070002980370   109.47119060   176.94314058

---------------------------
INTERNAL COORDINATES (A.U.)
---------------------------
 C      0   0   0     0.000000000000     0.00000000     0.00000000
 C      1   0   0     2.839271392368     0.00000000     0.00000000
 N      2   1   0     2.523358123173   118.31345049     0.00000000
 C      2   1   3     2.432037043957   120.40698489   178.11903254
 H      4   2   1     2.022880740431   126.59967088     7.96889692
 H      4   2   1     1.919436331283   124.35258296   182.57970995
 H      3   2   1     1.895546166473   120.90191037   359.77612908
 H      3   2   1     1.899684123204   120.47250834   179.03023138
 C      1   2   3     2.889282099868   114.48912146   134.97205894
 H      1   2   3     2.066876867053   106.09496297   256.34022102
 H      1   2   3     2.065072433199   108.84750716    11.20622356
 H      9   1   2     2.022018973264   109.47115838    56.94341761
 H      9   1   2     2.022006210054   109.47171602   296.94339310
 H      9   1   2     2.022012595378   109.47119060   176.94314058

---------------------
BASIS SET INFORMATION
---------------------
There are 3 groups of distinct atoms

 Group   1 Type C   : 11s6p2d1f contracted to 5s3p2d1f pattern {62111/411/11/1}
 Group   2 Type N   : 11s6p2d1f contracted to 5s3p2d1f pattern {62111/411/11/1}
 Group   3 Type H   : 5s1p contracted to 3s1p pattern {311/1}

Atom   0C    basis set group =>   1
Atom   1C    basis set group =>   1
Atom   2N    basis set group =>   2
Atom   3C    basis set group =>   1
Atom   4H    basis set group =>   3
Atom   5H    basis set group =>   3
Atom   6H    basis set group =>   3
Atom   7H    basis set group =>   3
Atom   8C    basis set group =>   1
Atom   9H    basis set group =>   3
Atom  10H    basis set group =>   3
Atom  11H    basis set group =>   3
Atom  12H    basis set group =>   3
Atom  13H    basis set group =>   3
---------------------------------
AUXILIARY/J BASIS SET INFORMATION
---------------------------------
There are 3 groups of distinct atoms

 Group   1 Type C   : 12s5p4d2f1g contracted to 6s4p3d1f1g pattern {711111/2111/211/2/1}
 Group   2 Type N   : 12s5p4d2f1g contracted to 6s4p3d1f1g pattern {711111/2111/211/2/1}
 Group   3 Type H   : 5s2p1d contracted to 3s1p1d pattern {311/2/1}

Atom   0C    basis set group =>   1
Atom   1C    basis set group =>   1
Atom   2N    basis set group =>   2
Atom   3C    basis set group =>   1
Atom   4H    basis set group =>   3
Atom   5H    basis set group =>   3
Atom   6H    basis set group =>   3
Atom   7H    basis set group =>   3
Atom   8C    basis set group =>   1
Atom   9H    basis set group =>   3
Atom  10H    basis set group =>   3
Atom  11H    basis set group =>   3
Atom  12H    basis set group =>   3
Atom  13H    basis set group =>   3


           ************************************************************
           *        Program running with 4 parallel MPI-processes     *
           *              working on a common directory               *
           ************************************************************
------------------------------------------------------------------------------
                           ORCA GTO INTEGRAL CALCULATION
                           -- RI-GTO INTEGRALS CHOSEN --
------------------------------------------------------------------------------
------------------------------------------------------------------------------
                   ___                                                        
                  /   \      - P O W E R E D   B Y -                         
                 /     \                                                     
                 |  |  |   _    _      __       _____    __    __             
                 |  |  |  | |  | |    /  \     |  _  \  |  |  /  |          
                  \  \/   | |  | |   /    \    | | | |  |  | /  /          
                 / \  \   | |__| |  /  /\  \   | |_| |  |  |/  /          
                |  |  |   |  __  | /  /__\  \  |    /   |      \           
                |  |  |   | |  | | |   __   |  |    \   |  |\   \          
                \     /   | |  | | |  |  |  |  | |\  \  |  | \   \       
                 \___/    |_|  |_| |__|  |__|  |_| \__\ |__|  \__/        
                                                                              
                      - O R C A' S   B I G   F R I E N D -                    
                                      &                                       
                       - I N T E G R A L  F E E D E R -                       
                                                                              
 v1 FN, 2020, v2 2021                                                         
------------------------------------------------------------------------------


Reading SHARK input file TZVP_BLYP_C2_wt_dlpno_pos.SHARKINP.tmp ... ok
----------------------
SHARK INTEGRAL PACKAGE
----------------------

Number of atoms                             ...     14
Number of basis functions                   ...    209
Number of shells                            ...     91
Maximum angular momentum                    ...      3
Integral batch strategy                     ... SHARK/LIBINT Hybrid
RI-J (if used) integral strategy            ... SPLIT-RIJ (Revised 2003 algorithm where possible)
Printlevel                                  ...      1
Contraction scheme used                     ... SEGMENTED contraction
Coulomb Range Separation                    ... NOT USED
Exchange Range Separation                   ... NOT USED
Finite Nucleus Model                        ... NOT USED
Auxiliary Coulomb fitting basis             ... AVAILABLE
   # of basis functions in Aux-J            ...    344
   # of shells in Aux-J                     ...    120
   Maximum angular momentum in Aux-J        ...      4
Auxiliary J/K fitting basis                 ... NOT available
Auxiliary Correlation fitting basis         ... NOT available
Auxiliary 'external' fitting basis          ... NOT available
Integral threshold                          ...     2.500000e-11
Primitive cut-off                           ...     2.500000e-12
Primitive pair pre-selection threshold      ...     2.500000e-12

Calculating pre-screening integrals         ... done (  0.1 sec) Dimension = 91
Organizing shell pair data                  ... done (  0.0 sec)
Shell pair information
Total number of shell pairs                 ...      4186
Shell pairs after pre-screening             ...      4023
Total number of primitive shell pairs       ...     12072
Primitive shell pairs kept                  ...      9288
          la=0 lb=0:   1288 shell pairs
          la=1 lb=0:   1201 shell pairs
          la=1 lb=1:    296 shell pairs
          la=2 lb=0:    506 shell pairs
          la=2 lb=1:    238 shell pairs
          la=2 lb=2:     55 shell pairs
          la=3 lb=0:    254 shell pairs
          la=3 lb=1:    120 shell pairs
          la=3 lb=2:     50 shell pairs
          la=3 lb=3:     15 shell pairs

Calculating one electron integrals          ... done (  0.0 sec)
Calculating RI/J V-Matrix + Cholesky decomp.... done (  0.0 sec)
Calculating Nuclear repulsion               ... done (  0.0 sec) ENN=    180.872963374802 Eh

SHARK setup successfully completed in   0.2 seconds

Maximum memory used throughout the entire GTOINT-calculation: 13.9 MB


           ************************************************************
           *        Program running with 4 parallel MPI-processes     *
           *              working on a common directory               *
           ************************************************************
-------------------------------------------------------------------------------
                                 ORCA SCF
-------------------------------------------------------------------------------

------------
SCF SETTINGS
------------
Hamiltonian:
 Density Functional     Method          .... DFT(GTOs)
 Exchange Functional    Exchange        .... B88
   X-Alpha parameter    XAlpha          ....  0.666667
   Becke's b parameter  XBeta           ....  0.004200
 Correlation Functional Correlation     .... LYP
 Gradients option       PostSCFGGA      .... off
   Density functional embedding theory  .... OFF
   NL short-range parameter             ....  4.000000
 RI-approximation to the Coulomb term is turned on
   Number of AuxJ basis functions       .... 344


General Settings:
 Integral files         IntName         .... TZVP_BLYP_C2_wt_dlpno_pos
 Hartree-Fock type      HFTyp           .... RHF
 Total Charge           Charge          ....    0
 Multiplicity           Mult            ....    1
 Number of Electrons    NEL             ....   40
 Basis Dimension        Dim             ....  209
 Nuclear Repulsion      ENuc            ....    180.8729633748 Eh

Convergence Acceleration:
 DIIS                   CNVDIIS         .... on
   Start iteration      DIISMaxIt       ....    12
   Startup error        DIISStart       ....  0.200000
   # of expansion vecs  DIISMaxEq       ....     5
   Bias factor          DIISBfac        ....   1.050
   Max. coefficient     DIISMaxC        ....  10.000
 Trust-Rad. Augm. Hess. CNVTRAH         .... auto
   Auto Start mean grad. ratio tolernc. ....  1.125000
   Auto Start start iteration           ....    20
   Auto Start num. interpolation iter.  ....    10
   Max. Number of Micro iterations      ....    16
   Max. Number of Macro iterations      .... Maxiter - #DIIS iter
   Number of Davidson start vectors     ....     2
   Converg. threshold I  (grad. norm)   ....   1.000e-05
   Converg. threshold II (energy diff.) ....   1.000e-08
   Grad. Scal. Fac. for Micro threshold ....   0.100
   Minimum threshold for Micro iter.    ....   0.010
   NR start threshold (gradient norm)   ....   0.001
   Initial trust radius                 ....   0.400
   Minimum AH scaling param. (alpha)    ....   1.000
   Maximum AH scaling param. (alpha)    .... 1000.000
   Orbital update algorithm             .... Taylor
   White noise on init. David. guess    .... on
   Maximum white noise                  ....   0.010
   Quad. conv. algorithm                .... NR
 SOSCF                  CNVSOSCF        .... on
   Start iteration      SOSCFMaxIt      ....   150
   Startup grad/error   SOSCFStart      ....  0.003300
 Level Shifting         CNVShift        .... on
   Level shift para.    LevelShift      ....    0.2500
   Turn off err/grad.   ShiftErr        ....    0.0010
 Zerner damping         CNVZerner       .... off
 Static damping         CNVDamp         .... on
   Fraction old density DampFac         ....    0.7000
   Max. Damping (<1)    DampMax         ....    0.9800
   Min. Damping (>=0)   DampMin         ....    0.0000
   Turn off err/grad.   DampErr         ....    0.1000
 Fernandez-Rico         CNVRico         .... off

SCF Procedure:
 Maximum # iterations   MaxIter         ....   150
 SCF integral mode      SCFMode         .... Direct
   Integral package                     .... SHARK and LIBINT hybrid scheme
 Reset frequency        DirectResetFreq ....    20
 Integral Threshold     Thresh          ....  2.500e-11 Eh
 Primitive CutOff       TCut            ....  2.500e-12 Eh

Convergence Tolerance:
 Convergence Check Mode ConvCheckMode   .... Total+1el-Energy
 Convergence forced     ConvForced      .... 0
 Energy Change          TolE            ....  1.000e-08 Eh
 1-El. energy change                    ....  1.000e-05 Eh
 Orbital Gradient       TolG            ....  1.000e-05
 Orbital Rotation angle TolX            ....  1.000e-05
 DIIS Error             TolErr          ....  5.000e-07


Diagonalization of the overlap matrix:
Smallest eigenvalue                        ... 9.095e-05
Time for diagonalization                   ...    0.012 sec
Threshold for overlap eigenvalues          ... 1.000e-08
Number of eigenvalues below threshold      ... 0
Time for construction of square roots      ...    0.009 sec
Total time needed                          ...    0.022 sec

Time for model grid setup =    0.103 sec

------------------------------
INITIAL GUESS: MODEL POTENTIAL
------------------------------
Loading Hartree-Fock densities                     ... done
Calculating cut-offs                               ... done
Initializing the effective Hamiltonian             ... done
Setting up the integral package (SHARK)            ... done
Starting the Coulomb interaction                   ... done (   0.1 sec)
Reading the grid                                   ... done
Mapping shells                                     ... done
Starting the XC term evaluation                    ... done (   0.1 sec)
  promolecular density results
     # of electrons  =     39.994286228
     EX              =    -29.875163324
     EC              =     -1.293747721
     EX+EC           =    -31.168911046
Transforming the Hamiltonian                       ... done (   0.0 sec)
Diagonalizing the Hamiltonian                      ... done (   0.0 sec)
Back transforming the eigenvectors                 ... done (   0.0 sec)
Now organizing SCF variables                       ... done
                      ------------------
                      INITIAL GUESS DONE (   0.3 sec)
                      ------------------
-------------------
DFT GRID GENERATION
-------------------

General Integration Accuracy     IntAcc      ... 4.388
Radial Grid Type                 RadialGrid  ... OptM3 with GC (2021)
Angular Grid (max. ang.)         AngularGrid ... 4 (Lebedev-302)
Angular grid pruning method      GridPruning ... 4 (adaptive)
Weight generation scheme         WeightScheme... Becke
Basis function cutoff            BFCut       ... 1.0000e-11
Integration weight cutoff        WCut        ... 1.0000e-14
Angular grids for H and He will be reduced by one unit
Partially contracted basis set               ... off
Rotationally invariant grid construction     ... off

Total number of grid points                  ...    59147
Total number of batches                      ...      932
Average number of points per batch           ...       63
Average number of grid points per atom       ...     4225
Time for grid setup =    0.388 sec

--------------
SCF ITERATIONS
--------------
ITER       Energy         Delta-E        Max-DP      RMS-DP      [F,P]     Damp
               ***  Starting incremental Fock matrix formation  ***
  0   -212.2534769899   0.000000000000 0.08015623  0.00152807  0.2544434 0.7000
  1   -212.3934816638  -0.140004673891 0.05534230  0.00110837  0.1107781 0.7000
                               ***Turning on DIIS***
  2   -212.4395183099  -0.046036646153 0.05748613  0.00166910  0.0292763 0.0000
  3   -212.5052916675  -0.065773357597 0.03945016  0.00076121  0.0775460 0.0000
  4   -212.5287030056  -0.023411338135 0.00929630  0.00031048  0.0202961 0.0000
  5   -212.5304050552  -0.001702049585 0.00525423  0.00015258  0.0081669 0.0000
                      *** Initiating the SOSCF procedure ***
                           *** Shutting down DIIS ***
                      *** Re-Reading the Fockian *** 
                      *** Removing any level shift *** 
ITER      Energy       Delta-E        Grad      Rot      Max-DP    RMS-DP
  6   -212.53055424  -0.0001491866  0.000371  0.000371  0.001914  0.000065
               *** Restarting incremental Fock matrix formation ***
  7   -212.53056769  -0.0000134437  0.000183  0.001040  0.001464  0.000047
  8   -212.53056802  -0.0000003342  0.000276  0.000485  0.000612  0.000020
  9   -212.53056848  -0.0000004562  0.000091  0.000177  0.000629  0.000021
 10   -212.53056878  -0.0000003067  0.000021  0.000047  0.000159  0.000003
 11   -212.53056881  -0.0000000294  0.000019  0.000029  0.000152  0.000004
 12   -212.53056883  -0.0000000200  0.000010  0.000022  0.000038  0.000001
 13   -212.53056884  -0.0000000032  0.000004  0.000008  0.000023  0.000001
 14   -212.53056884  -0.0000000009  0.000003  0.000006  0.000008  0.000000
                  ***Gradient check signals convergence***
              ***Rediagonalizing the Fockian in SOSCF/NRSCF***

               *****************************************************
               *                     SUCCESS                       *
               *           SCF CONVERGED AFTER  15 CYCLES          *
               *****************************************************


----------------
TOTAL SCF ENERGY
----------------

Total Energy       :         -212.53056883 Eh           -5783.25079 eV

Components:
Nuclear Repulsion  :          180.87296337 Eh            4921.80355 eV
Electronic Energy  :         -393.40353221 Eh          -10705.05435 eV
One Electron Energy:         -643.50306068 Eh          -17510.60850 eV
Two Electron Energy:          250.09952847 Eh            6805.55416 eV

Virial components:
Potential Energy   :         -424.87086375 Eh          -11561.32397 eV
Kinetic Energy     :          212.34029492 Eh            5778.07318 eV
Virial Ratio       :            2.00089608


DFT components:
N(Alpha)           :       20.000008689497 electrons
N(Beta)            :       20.000008689497 electrons
N(Total)           :       40.000017378995 electrons
E(X)               :      -30.745994350637 Eh       
E(C)               :       -1.308000389685 Eh       
E(XC)              :      -32.053994740321 Eh       
DFET-embed. en.    :        0.000000000000 Eh       

---------------
SCF CONVERGENCE
---------------

  Last Energy change         ...    1.8279e-09  Tolerance :   1.0000e-08
  Last MAX-Density change    ...    8.6474e-06  Tolerance :   1.0000e-07
  Last RMS-Density change    ...    2.0681e-07  Tolerance :   5.0000e-09
  Last Orbital Gradient      ...    1.6488e-06  Tolerance :   1.0000e-05
  Last Orbital Rotation      ...    1.2754e-06  Tolerance :   1.0000e-05

             **** THE GBW FILE WAS UPDATED (TZVP_BLYP_C2_wt_dlpno_pos.gbw) ****
             **** DENSITY TZVP_BLYP_C2_wt_dlpno_pos.scfp WAS UPDATED ****
             **** ENERGY FILE WAS UPDATED (TZVP_BLYP_C2_wt_dlpno_pos.en.tmp) ****
             **** THE GBW FILE WAS UPDATED (TZVP_BLYP_C2_wt_dlpno_pos.gbw) ****
             **** DENSITY TZVP_BLYP_C2_wt_dlpno_pos.scfp WAS UPDATED ****
----------------
ORBITAL ENERGIES
----------------

  NO   OCC          E(Eh)            E(eV) 
   0   2.0000     -14.001475      -380.9995 
   1   2.0000      -9.918014      -269.8829 
   2   2.0000      -9.902442      -269.4592 
   3   2.0000      -9.884924      -268.9825 
   4   2.0000      -9.836812      -267.6733 
   5   2.0000      -0.835225       -22.7276 
   6   2.0000      -0.700613       -19.0646 
   7   2.0000      -0.636650       -17.3241 
   8   2.0000      -0.571145       -15.5417 
   9   2.0000      -0.497058       -13.5256 
  10   2.0000      -0.466726       -12.7003 
  11   2.0000      -0.429470       -11.6865 
  12   2.0000      -0.394246       -10.7280 
  13   2.0000      -0.367037        -9.9876 
  14   2.0000      -0.335000        -9.1158 
  15   2.0000      -0.323530        -8.8037 
  16   2.0000      -0.304835        -8.2950 
  17   2.0000      -0.290465        -7.9040 
  18   2.0000      -0.278002        -7.5648 
  19   2.0000      -0.154669        -4.2087 
  20   0.0000       0.009260         0.2520 
  21   0.0000       0.020763         0.5650 
  22   0.0000       0.045728         1.2443 
  23   0.0000       0.053651         1.4599 
  24   0.0000       0.075688         2.0596 
  25   0.0000       0.079855         2.1730 
  26   0.0000       0.096104         2.6151 
  27   0.0000       0.101036         2.7493 
  28   0.0000       0.126031         3.4295 
  29   0.0000       0.141807         3.8588 
  30   0.0000       0.157882         4.2962 
  31   0.0000       0.172913         4.7052 
  32   0.0000       0.176159         4.7935 
  33   0.0000       0.190654         5.1879 
  34   0.0000       0.211886         5.7657 
  35   0.0000       0.226163         6.1542 
  36   0.0000       0.238332         6.4853 
  37   0.0000       0.271753         7.3948 
  38   0.0000       0.281919         7.6714 
  39   0.0000       0.291207         7.9242 
  40   0.0000       0.307108         8.3568 
  41   0.0000       0.310577         8.4512 
  42   0.0000       0.326544         8.8857 
  43   0.0000       0.368817        10.0360 
  44   0.0000       0.374739        10.1972 
  45   0.0000       0.389197        10.5906 
  46   0.0000       0.399356        10.8670 
  47   0.0000       0.406601        11.0642 
  48   0.0000       0.412883        11.2351 
  49   0.0000       0.416943        11.3456 
  50   0.0000       0.435882        11.8610 
  51   0.0000       0.438621        11.9355 
  52   0.0000       0.459050        12.4914 
  53   0.0000       0.469273        12.7696 
  54   0.0000       0.482151        13.1200 
  55   0.0000       0.502406        13.6712 
  56   0.0000       0.529660        14.4128 
  57   0.0000       0.542329        14.7575 
  58   0.0000       0.587615        15.9898 
  59   0.0000       0.589575        16.0431 
  60   0.0000       0.608740        16.5647 
  61   0.0000       0.651077        17.7167 
  62   0.0000       0.663208        18.0468 
  63   0.0000       0.744238        20.2517 
  64   0.0000       0.776447        21.1282 
  65   0.0000       0.793231        21.5849 
  66   0.0000       0.805405        21.9162 
  67   0.0000       0.818286        22.2667 
  68   0.0000       0.851509        23.1707 
  69   0.0000       0.900401        24.5012 
  70   0.0000       0.907799        24.7025 
  71   0.0000       0.933041        25.3893 
  72   0.0000       0.968373        26.3508 
  73   0.0000       0.984013        26.7764 
  74   0.0000       1.000269        27.2187 
  75   0.0000       1.034655        28.1544 
  76   0.0000       1.053018        28.6541 
  77   0.0000       1.080654        29.4061 
  78   0.0000       1.088506        29.6198 
  79   0.0000       1.141414        31.0594 
  80   0.0000       1.184424        32.2298 
  81   0.0000       1.198268        32.6065 
  82   0.0000       1.286634        35.0111 
  83   0.0000       1.309557        35.6349 
  84   0.0000       1.329544        36.1787 
  85   0.0000       1.378223        37.5033 
  86   0.0000       1.416228        38.5375 
  87   0.0000       1.432267        38.9740 
  88   0.0000       1.449171        39.4339 
  89   0.0000       1.477690        40.2100 
  90   0.0000       1.489632        40.5350 
  91   0.0000       1.509999        41.0892 
  92   0.0000       1.517122        41.2830 
  93   0.0000       1.527775        41.5729 
  94   0.0000       1.543992        42.0141 
  95   0.0000       1.555905        42.3383 
  96   0.0000       1.584482        43.1160 
  97   0.0000       1.621450        44.1219 
  98   0.0000       1.638111        44.5753 
  99   0.0000       1.642439        44.6930 
 100   0.0000       1.672856        45.5207 
 101   0.0000       1.721821        46.8531 
 102   0.0000       1.769121        48.1402 
 103   0.0000       1.787097        48.6294 
 104   0.0000       1.796585        48.8876 
 105   0.0000       1.829034        49.7705 
 106   0.0000       1.849579        50.3296 
 107   0.0000       1.882164        51.2163 
 108   0.0000       1.903522        51.7975 
 109   0.0000       1.925221        52.3879 
 110   0.0000       1.973164        53.6925 
 111   0.0000       1.999801        54.4174 
 112   0.0000       2.003484        54.5176 
 113   0.0000       2.045822        55.6697 
 114   0.0000       2.074298        56.4445 
 115   0.0000       2.128484        57.9190 
 116   0.0000       2.213616        60.2356 
 117   0.0000       2.248772        61.1922 
 118   0.0000       2.262702        61.5712 
 119   0.0000       2.290892        62.3384 
 120   0.0000       2.294716        62.4424 
 121   0.0000       2.327049        63.3222 
 122   0.0000       2.335253        63.5455 
 123   0.0000       2.381184        64.7953 
 124   0.0000       2.429060        66.0981 
 125   0.0000       2.434298        66.2406 
 126   0.0000       2.446038        66.5601 
 127   0.0000       2.505207        68.1702 
 128   0.0000       2.528798        68.8121 
 129   0.0000       2.548700        69.3537 
 130   0.0000       2.575353        70.0789 
 131   0.0000       2.585903        70.3660 
 132   0.0000       2.614404        71.1415 
 133   0.0000       2.624903        71.4273 
 134   0.0000       2.649262        72.0901 
 135   0.0000       2.674635        72.7805 
 136   0.0000       2.718041        73.9616 
 137   0.0000       2.724080        74.1260 
 138   0.0000       2.767938        75.3194 
 139   0.0000       2.823821        76.8401 
 140   0.0000       2.843374        77.3721 
 141   0.0000       2.867910        78.0398 
 142   0.0000       2.881500        78.4096 
 143   0.0000       2.921772        79.5055 
 144   0.0000       2.931252        79.7634 
 145   0.0000       2.974722        80.9463 
 146   0.0000       2.987213        81.2862 
 147   0.0000       3.004482        81.7561 
 148   0.0000       3.083241        83.8993 
 149   0.0000       3.086205        83.9799 
 150   0.0000       3.115296        84.7715 
 151   0.0000       3.141130        85.4745 
 152   0.0000       3.166697        86.1702 
 153   0.0000       3.171165        86.2918 
 154   0.0000       3.199988        87.0761 
 155   0.0000       3.238464        88.1231 
 156   0.0000       3.258530        88.6691 
 157   0.0000       3.282149        89.3118 
 158   0.0000       3.294708        89.6536 
 159   0.0000       3.320376        90.3520 
 160   0.0000       3.356754        91.3419 
 161   0.0000       3.378993        91.9471 
 162   0.0000       3.404711        92.6469 
 163   0.0000       3.434049        93.4452 
 164   0.0000       3.447746        93.8179 
 165   0.0000       3.485192        94.8369 
 166   0.0000       3.499161        95.2170 
 167   0.0000       3.559463        96.8579 
 168   0.0000       3.637686        98.9865 
 169   0.0000       3.672067        99.9220 
 170   0.0000       3.677338       100.0655 
 171   0.0000       3.752879       102.1210 
 172   0.0000       3.767569       102.5208 
 173   0.0000       3.811343       103.7119 
 174   0.0000       3.823461       104.0417 
 175   0.0000       3.916009       106.5600 
 176   0.0000       3.947299       107.4115 
 177   0.0000       3.991662       108.6187 
 178   0.0000       4.070683       110.7689 
 179   0.0000       4.159045       113.1734 
 180   0.0000       4.226859       115.0187 
 181   0.0000       4.246654       115.5573 
 182   0.0000       4.287878       116.6791 
 183   0.0000       4.352055       118.4254 
 184   0.0000       4.361676       118.6872 
 185   0.0000       4.401513       119.7713 
 186   0.0000       4.444174       120.9321 
 187   0.0000       4.484505       122.0296 
 188   0.0000       4.512969       122.8041 
 189   0.0000       4.530565       123.2829 
 190   0.0000       4.611637       125.4890 
 191   0.0000       4.672651       127.1493 
 192   0.0000       4.736960       128.8992 
 193   0.0000       4.748648       129.2173 
 194   0.0000       4.831235       131.4646 
 195   0.0000       4.876324       132.6915 
 196   0.0000       4.945621       134.5772 
 197   0.0000       5.097938       138.7220 
 198   0.0000       5.129253       139.5741 
 199   0.0000       5.181636       140.9995 
 200   0.0000       5.301200       144.2530 
 201   0.0000       5.426550       147.6639 
 202   0.0000       5.632234       153.2609 
 203   0.0000       5.947531       161.8405 
 204   0.0000      22.103555       601.4683 
 205   0.0000      22.181668       603.5939 
 206   0.0000      22.276993       606.1878 
 207   0.0000      22.972796       625.1216 
 208   0.0000      31.703072       862.6844 

                    ********************************
                    * MULLIKEN POPULATION ANALYSIS *
                    ********************************

-----------------------
MULLIKEN ATOMIC CHARGES
-----------------------
   0 C :   -0.150348
   1 C :    0.264193
   2 N :   -0.406897
   3 C :   -0.406140
   4 H :    0.074659
   5 H :    0.069388
   6 H :    0.199831
   7 H :    0.200928
   8 C :   -0.286713
   9 H :    0.093740
  10 H :    0.058066
  11 H :    0.099209
  12 H :    0.096067
  13 H :    0.094017
Sum of atomic charges:   -0.0000000

--------------------------------
MULLIKEN REDUCED ORBITAL CHARGES
--------------------------------
  0 C s       :     3.238589  s :     3.238589
      pz      :     0.967398  p :     2.825022
      px      :     0.900731
      py      :     0.956893
      dz2     :     0.022505  d :     0.081071
      dxz     :     0.019746
      dyz     :     0.006647
      dx2y2   :     0.023105
      dxy     :     0.009069
      f0      :     0.000879  f :     0.005665
      f+1     :     0.001162
      f-1     :     0.000439
      f+2     :     0.000683
      f-2     :     0.000683
      f+3     :     0.000829
      f-3     :     0.000989
  1 C s       :     3.097151  s :     3.097151
      pz      :     0.892192  p :     2.491877
      px      :     0.757730
      py      :     0.841956
      dz2     :     0.006773  d :     0.133576
      dxz     :     0.024035
      dyz     :     0.042651
      dx2y2   :     0.025331
      dxy     :     0.034786
      f0      :     0.001956  f :     0.013202
      f+1     :     0.001169
      f-1     :     0.000531
      f+2     :     0.001649
      f-2     :     0.001984
      f+3     :     0.003907
      f-3     :     0.002007
  2 N s       :     3.433899  s :     3.433899
      pz      :     1.737882  p :     3.938855
      px      :     1.107986
      py      :     1.092987
      dz2     :     0.004213  d :     0.030777
      dxz     :     0.004700
      dyz     :     0.005106
      dx2y2   :     0.013218
      dxy     :     0.003541
      f0      :     0.000581  f :     0.003365
      f+1     :     0.000584
      f-1     :     0.000577
      f+2     :     0.000064
      f-2     :     0.000262
      f+3     :     0.000584
      f-3     :     0.000713
  3 C s       :     3.256848  s :     3.256848
      pz      :     1.193979  p :     3.113998
      px      :     1.033861
      py      :     0.886158
      dz2     :     0.004954  d :     0.030182
      dxz     :     0.000852
      dyz     :     0.010161
      dx2y2   :     0.002434
      dxy     :     0.011781
      f0      :     0.001195  f :     0.005113
      f+1     :     0.000516
      f-1     :     0.000400
      f+2     :     0.000660
      f-2     :     0.000246
      f+3     :     0.001238
      f-3     :     0.000858
  4 H s       :     0.901368  s :     0.901368
      pz      :     0.007382  p :     0.023972
      px      :     0.008273
      py      :     0.008317
  5 H s       :     0.905912  s :     0.905912
      pz      :     0.007756  p :     0.024700
      px      :     0.010345
      py      :     0.006599
  6 H s       :     0.760970  s :     0.760970
      pz      :     0.014033  p :     0.039200
      px      :     0.005616
      py      :     0.019550
  7 H s       :     0.760958  s :     0.760958
      pz      :     0.013095  p :     0.038113
      px      :     0.018118
      py      :     0.006900
  8 C s       :     3.273419  s :     3.273419
      pz      :     0.963724  p :     2.969844
      px      :     0.991309
      py      :     1.014811
      dz2     :     0.016873  d :     0.039970
      dxz     :     0.004063
      dyz     :     0.003973
      dx2y2   :     0.009701
      dxy     :     0.005359
      f0      :     0.000541  f :     0.003481
      f+1     :     0.001030
      f-1     :     0.000376
      f+2     :     0.000452
      f-2     :     0.000192
      f+3     :     0.000147
      f-3     :     0.000743
  9 H s       :     0.884452  s :     0.884452
      pz      :     0.010927  p :     0.021808
      px      :     0.006065
      py      :     0.004815
 10 H s       :     0.920077  s :     0.920077
      pz      :     0.004670  p :     0.021856
      px      :     0.004593
      py      :     0.012594
 11 H s       :     0.878356  s :     0.878356
      pz      :     0.004926  p :     0.022435
      px      :     0.005101
      py      :     0.012408
 12 H s       :     0.882072  s :     0.882072
      pz      :     0.010857  p :     0.021861
      px      :     0.005942
      py      :     0.005062
 13 H s       :     0.884139  s :     0.884139
      pz      :     0.004834  p :     0.021844
      px      :     0.011147
      py      :     0.005864


                     *******************************
                     * LOEWDIN POPULATION ANALYSIS *
                     *******************************

----------------------
LOEWDIN ATOMIC CHARGES
----------------------
   0 C :   -0.231049
   1 C :   -0.362361
   2 N :    0.006297
   3 C :   -0.277765
   4 H :    0.116196
   5 H :    0.096844
   6 H :    0.156262
   7 H :    0.162797
   8 C :   -0.283269
   9 H :    0.144885
  10 H :    0.128502
  11 H :    0.115436
  12 H :    0.115957
  13 H :    0.111269

-------------------------------
LOEWDIN REDUCED ORBITAL CHARGES
-------------------------------
  0 C s       :     2.772430  s :     2.772430
      pz      :     1.026557  p :     3.033420
      px      :     1.001407
      py      :     1.005457
      dz2     :     0.092896  d :     0.385694
      dxz     :     0.095592
      dyz     :     0.033353
      dx2y2   :     0.105513
      dxy     :     0.058340
      f0      :     0.005014  f :     0.039505
      f+1     :     0.006481
      f-1     :     0.004687
      f+2     :     0.004709
      f-2     :     0.006353
      f+3     :     0.005768
      f-3     :     0.006495
  1 C s       :     2.709655  s :     2.709655
      pz      :     0.839991  p :     2.863136
      px      :     0.944070
      py      :     1.079074
      dz2     :     0.046130  d :     0.698326
      dxz     :     0.097277
      dyz     :     0.161681
      dx2y2   :     0.170541
      dxy     :     0.222697
      f0      :     0.006070  f :     0.091244
      f+1     :     0.006912
      f-1     :     0.006629
      f+2     :     0.011624
      f-2     :     0.014619
      f+3     :     0.028386
      f-3     :     0.017004
  2 N s       :     2.961018  s :     2.961018
      pz      :     1.566480  p :     3.864827
      px      :     1.157666
      py      :     1.140681
      dz2     :     0.010643  d :     0.156202
      dxz     :     0.016710
      dyz     :     0.015602
      dx2y2   :     0.079257
      dxy     :     0.033989
      f0      :     0.001145  f :     0.011657
      f+1     :     0.001843
      f-1     :     0.001743
      f+2     :     0.000233
      f-2     :     0.001644
      f+3     :     0.002802
      f-3     :     0.002247
  3 C s       :     2.798579  s :     2.798579
      pz      :     1.106608  p :     3.198885
      px      :     1.018862
      py      :     1.073414
      dz2     :     0.019258  d :     0.247192
      dxz     :     0.003824
      dyz     :     0.036211
      dx2y2   :     0.055394
      dxy     :     0.132505
      f0      :     0.003056  f :     0.033109
      f+1     :     0.002355
      f-1     :     0.004822
      f+2     :     0.004679
      f-2     :     0.000964
      f+3     :     0.009288
      f-3     :     0.007944
  4 H s       :     0.818834  s :     0.818834
      pz      :     0.020546  p :     0.064970
      px      :     0.024712
      py      :     0.019712
  5 H s       :     0.828270  s :     0.828270
      pz      :     0.023562  p :     0.074886
      px      :     0.032483
      py      :     0.018840
  6 H s       :     0.733525  s :     0.733525
      pz      :     0.038672  p :     0.110213
      px      :     0.017484
      py      :     0.054058
  7 H s       :     0.729482  s :     0.729482
      pz      :     0.036225  p :     0.107721
      px      :     0.049042
      py      :     0.022453
  8 C s       :     2.821926  s :     2.821926
      pz      :     1.055271  p :     3.179137
      px      :     1.050755
      py      :     1.073111
      dz2     :     0.084402  d :     0.255827
      dxz     :     0.044559
      dyz     :     0.027758
      dx2y2   :     0.064902
      dxy     :     0.034207
      f0      :     0.002844  f :     0.026379
      f+1     :     0.005548
      f-1     :     0.004405
      f+2     :     0.003694
      f-2     :     0.004252
      f+3     :     0.001158
      f-3     :     0.004478
  9 H s       :     0.796892  s :     0.796892
      pz      :     0.027892  p :     0.058224
      px      :     0.016433
      py      :     0.013899
 10 H s       :     0.813872  s :     0.813872
      pz      :     0.013610  p :     0.057626
      px      :     0.012605
      py      :     0.031412
 11 H s       :     0.820046  s :     0.820046
      pz      :     0.014656  p :     0.064518
      px      :     0.014317
      py      :     0.035545
 12 H s       :     0.820396  s :     0.820396
      pz      :     0.029732  p :     0.063647
      px      :     0.018296
      py      :     0.015620
 13 H s       :     0.825208  s :     0.825208
      pz      :     0.014371  p :     0.063523
      px      :     0.030887
      py      :     0.018266


                      *****************************
                      * MAYER POPULATION ANALYSIS *
                      *****************************

  NA   - Mulliken gross atomic population
  ZA   - Total nuclear charge
  QA   - Mulliken gross atomic charge
  VA   - Mayer's total valence
  BVA  - Mayer's bonded valence
  FA   - Mayer's free valence

  ATOM       NA         ZA         QA         VA         BVA        FA
  0 C      6.1503     6.0000    -0.1503     3.8818     3.8818    -0.0000
  1 C      5.7358     6.0000     0.2642     3.8069     3.8069    -0.0000
  2 N      7.4069     7.0000    -0.4069     3.1328     3.1328     0.0000
  3 C      6.4061     6.0000    -0.4061     3.8458     3.8458    -0.0000
  4 H      0.9253     1.0000     0.0747     0.9950     0.9950     0.0000
  5 H      0.9306     1.0000     0.0694     0.9875     0.9875     0.0000
  6 H      0.8002     1.0000     0.1998     0.9684     0.9684     0.0000
  7 H      0.7991     1.0000     0.2009     0.9698     0.9698     0.0000
  8 C      6.2867     6.0000    -0.2867     3.8948     3.8948    -0.0000
  9 H      0.9063     1.0000     0.0937     0.9611     0.9611    -0.0000
 10 H      0.9419     1.0000     0.0581     0.9702     0.9702     0.0000
 11 H      0.9008     1.0000     0.0992     0.9779     0.9779     0.0000
 12 H      0.9039     1.0000     0.0961     0.9744     0.9744    -0.0000
 13 H      0.9060     1.0000     0.0940     0.9674     0.9674     0.0000

  Mayer bond orders larger than 0.100000
B(  0-C ,  1-C ) :   0.9451 B(  0-C ,  8-C ) :   0.9764 B(  0-C ,  9-H ) :   0.9605 
B(  0-C , 10-H ) :   0.9645 B(  1-C ,  2-N ) :   1.1525 B(  1-C ,  3-C ) :   1.7375 
B(  2-N ,  6-H ) :   0.9312 B(  2-N ,  7-H ) :   0.9258 B(  3-C ,  4-H ) :   0.9904 
B(  3-C ,  5-H ) :   0.9805 B(  8-C , 11-H ) :   0.9753 B(  8-C , 12-H ) :   0.9736 
B(  8-C , 13-H ) :   0.9711 

-------
TIMINGS
-------

Total SCF time: 0 days 0 hours 0 min 6 sec 

Total time                  ....       6.844 sec
Sum of individual times     ....       6.629 sec  ( 96.9%)

Fock matrix formation       ....       5.736 sec  ( 83.8%)
  Split-RI-J                ....       1.562 sec  ( 27.2% of F)
  XC integration            ....       4.130 sec  ( 72.0% of F)
    Basis function eval.    ....       1.418 sec  ( 34.3% of XC)
    Density eval.           ....       1.030 sec  ( 24.9% of XC)
    XC-Functional eval.     ....       0.180 sec  (  4.4% of XC)
    XC-Potential eval.      ....       1.259 sec  ( 30.5% of XC)
Diagonalization             ....       0.078 sec  (  1.1%)
Density matrix formation    ....       0.007 sec  (  0.1%)
Population analysis         ....       0.011 sec  (  0.2%)
Initial guess               ....       0.189 sec  (  2.8%)
Orbital Transformation      ....       0.000 sec  (  0.0%)
Orbital Orthonormalization  ....       0.000 sec  (  0.0%)
DIIS solution               ....       0.047 sec  (  0.7%)
SOSCF solution              ....       0.071 sec  (  1.0%)
Grid generation             ....       0.491 sec  (  7.2%)

Maximum memory used throughout the entire SCF-calculation: 22.6 MB


-------------------------------------------------------------------------------
                          DFT DISPERSION CORRECTION                            
                                                                               
                              DFTD3 V3.1  Rev 1                                
                          USING Becke-Johnson damping                          
-------------------------------------------------------------------------------
The BLYP functional is recognized
Active option DFTDOPT                   ...         4   

molecular C6(AA) [au] = 1468.742494 


            DFT-D V3
 parameters
 s6 scaling factor         :     1.0000 
 a1 scaling factor         :     0.4298 
 s8 scaling factor         :     2.6996 
 a2 scaling factor         :     4.2359 
 ad hoc parameters k1-k3   :    16.0000     1.3333    -4.0000 

 Edisp/kcal,au: -13.421021480749  -0.021387756845 
 E6   /kcal   :  -5.546294463 
 E8   /kcal   :  -7.874727018 
 % E8         :  58.674572787 

-------------------------   ----------------
Dispersion correction           -0.021387757
-------------------------   ----------------


-------------------------   --------------------
FINAL SINGLE POINT ENERGY      -212.551956591138
-------------------------   --------------------


                            ***************************************
                            *     ORCA property calculations      *
                            ***************************************

                                    ---------------------
                                    Active property flags
                                    ---------------------
   (+) Dipole Moment


------------------------------------------------------------------------------
                       ORCA ELECTRIC PROPERTIES CALCULATION
------------------------------------------------------------------------------

Dipole Moment Calculation                       ... on
Quadrupole Moment Calculation                   ... off
Polarizability Calculation                      ... off
GBWName                                         ... TZVP_BLYP_C2_wt_dlpno_pos.gbw
Electron density file                           ... TZVP_BLYP_C2_wt_dlpno_pos.scfp
The origin for moment calculation is the CENTER OF MASS  = ( 8.808842, -4.780145 -11.439680)

-------------
DIPOLE MOMENT
-------------
                                X             Y             Z
Electronic contribution:     -2.84528       0.84036      -1.29751
Nuclear contribution   :      2.61570      -0.17401       1.22349
                        -----------------------------------------
Total Dipole Moment    :     -0.22957       0.66635      -0.07401
                        -----------------------------------------
Magnitude (a.u.)       :      0.70866
Magnitude (Debye)      :      1.80128



--------------------
Rotational spectrum 
--------------------
 
Rotational constants in cm-1:     0.298189     0.125314     0.096441 
Rotational constants in MHz :  8939.495008  3756.825352  2891.223400 

 Dipole components along the rotational axes: 
x,y,z [a.u.] :    -0.250277     0.658375    -0.078137 
x,y,z [Debye]:    -0.636154     1.673457    -0.198609 

 

Timings for individual modules:

Sum of individual times         ...       11.225 sec (=   0.187 min)
GTO integral calculation        ...        2.548 sec (=   0.042 min)  22.7 %
SCF iterations                  ...        8.676 sec (=   0.145 min)  77.3 %
                             ****ORCA TERMINATED NORMALLY****
TOTAL RUN TIME: 0 days 0 hours 0 minutes 11 seconds 796 msec
