
                                        *****************
                                        * O   R   C   A *
                                        *****************

                                            #,                                       
                                            ###                                      
                                            ####                                     
                                            #####                                    
                                            ######                                   
                                           ########,                                 
                                     ,,################,,,,,                         
                               ,,#################################,,                 
                          ,,##########################################,,             
                       ,#########################################, ''#####,          
                    ,#############################################,,   '####,        
                  ,##################################################,,,,####,       
                ,###########''''           ''''###############################       
              ,#####''   ,,,,##########,,,,          '''####'''          '####       
            ,##' ,,,,###########################,,,                        '##       
           ' ,,###''''                  '''############,,,                           
         ,,##''                                '''############,,,,        ,,,,,,###''
      ,#''                                            '''#######################'''  
     '                                                          ''''####''''         
             ,#######,   #######,   ,#######,      ##                                
            ,#'     '#,  ##    ##  ,#'     '#,    #''#        ######   ,####,        
            ##       ##  ##   ,#'  ##            #'  '#       #        #'  '#        
            ##       ##  #######   ##           ,######,      #####,   #    #        
            '#,     ,#'  ##    ##  '#,     ,#' ,#      #,         ##   #,  ,#        
             '#######'   ##     ##  '#######'  #'      '#     #####' # '####'        



                  #######################################################
                  #                        -***-                        #
                  #          Department of theory and spectroscopy      #
                  #    Directorship and core code : Frank Neese         #
                  #        Max Planck Institute fuer Kohlenforschung    #
                  #                Kaiser Wilhelm Platz 1               #
                  #                 D-45470 Muelheim/Ruhr               #
                  #                      Germany                        #
                  #                                                     #
                  #                  All rights reserved                #
                  #                        -***-                        #
                  #######################################################


                         Program Version 5.0.0 -  RELEASE  -
                                (SVN: $Rev: 19529$)
                ($Date: 2021-06-28 11:36:33 +0200 (Mo, 28 Jun 2021) $)


 With contributions from (in alphabetic order):
   Daniel Aravena         : Magnetic Suceptibility
   Michael Atanasov       : Ab Initio Ligand Field Theory (pilot matlab implementation)
   Alexander A. Auer      : GIAO ZORA, VPT2 properties, NMR spectrum
   Ute Becker             : Parallelization
   Giovanni Bistoni       : ED, misc. LED, open-shell LED, HFLD
   Martin Brehm           : Molecular dynamics
   Dmytro Bykov           : SCF Hessian
   Vijay G. Chilkuri      : MRCI spin determinant printing, contributions to CSF-ICE
   Dipayan Datta          : RHF DLPNO-CCSD density
   Achintya Kumar Dutta   : EOM-CC, STEOM-CC
   Dmitry Ganyushin       : Spin-Orbit,Spin-Spin,Magnetic field MRCI
   Miquel Garcia          : C-PCM Hessian, Gaussian charge scheme
   Yang Guo               : DLPNO-NEVPT2, F12-NEVPT2, CIM, IAO-localization
   Andreas Hansen         : Spin unrestricted coupled pair/coupled cluster methods
   Benjamin Helmich-Paris : MC-RPA, TRAH-SCF, COSX integrals
   Lee Huntington         : MR-EOM, pCC
   Robert Izsak           : Overlap fitted RIJCOSX, COSX-SCS-MP3, EOM
   Marcus Kettner         : VPT2
   Christian Kollmar      : KDIIS, OOCD, Brueckner-CCSD(T), CCSD density, CASPT2, CASPT2-K
   Simone Kossmann        : Meta GGA functionals, TD-DFT gradient, OOMP2, MP2 Hessian
   Martin Krupicka        : Initial AUTO-CI
   Lucas Lang             : DCDCAS
   Marvin Lechner         : AUTO-CI (C++ implementation), FIC-MRCC
   Dagmar Lenk            : GEPOL surface, SMD
   Dimitrios Liakos       : Extrapolation schemes; Compound Job, initial MDCI parallelization
   Dimitrios Manganas     : Further ROCIS development; embedding schemes
   Dimitrios Pantazis     : SARC Basis sets
   Anastasios Papadopoulos: AUTO-CI, single reference methods and gradients
   Taras Petrenko         : DFT Hessian,TD-DFT gradient, ASA, ECA, R-Raman, ABS, FL, XAS/XES, NRVS
   Peter Pinski           : DLPNO-MP2, DLPNO-MP2 Gradient
   Christoph Reimann      : Effective Core Potentials
   Marius Retegan         : Local ZFS, SOC
   Christoph Riplinger    : Optimizer, TS searches, QM/MM, DLPNO-CCSD(T), (RO)-DLPNO pert. Triples
   Tobias Risthaus        : Range-separated hybrids, TD-DFT gradient, RPA, STAB
   Michael Roemelt        : Original ROCIS implementation
   Masaaki Saitow         : Open-shell DLPNO-CCSD energy and density
   Barbara Sandhoefer     : DKH picture change effects
   Avijit Sen             : IP-ROCIS
   Kantharuban Sivalingam : CASSCF convergence, NEVPT2, FIC-MRCI
   Bernardo de Souza      : ESD, SOC TD-DFT
   Georgi Stoychev        : AutoAux, RI-MP2 NMR
   Willem Van den Heuvel  : Paramagnetic NMR
   Boris Wezisla          : Elementary symmetry handling
   Frank Wennmohs         : Technical directorship


 We gratefully acknowledge several colleagues who have allowed us to
 interface, adapt or use parts of their codes:
   Stefan Grimme, W. Hujo, H. Kruse, P. Pracht,  : VdW corrections, initial TS optimization,
                  C. Bannwarth, S. Ehlert          DFT functionals, gCP, sTDA/sTD-DF
   Ed Valeev, F. Pavosevic, A. Kumar             : LibInt (2-el integral package), F12 methods
   Garnet Chan, S. Sharma, J. Yang, R. Olivares  : DMRG
   Ulf Ekstrom                                   : XCFun DFT Library
   Mihaly Kallay                                 : mrcc  (arbitrary order and MRCC methods)
   Jiri Pittner, Ondrej Demel                    : Mk-CCSD
   Frank Weinhold                                : gennbo (NPA and NBO analysis)
   Christopher J. Cramer and Donald G. Truhlar   : smd solvation model
   Lars Goerigk                                  : TD-DFT with DH, B97 family of functionals
   V. Asgeirsson, H. Jonsson                     : NEB implementation
   FAccTs GmbH                                   : IRC, NEB, NEB-TS, DLPNO-Multilevel, CI-OPT
                                                   MM, QMMM, 2- and 3-layer-ONIOM, Crystal-QMMM,
                                                   LR-CPCM, SF, NACMEs, symmetry and pop. for TD-DFT,
                                                   nearIR, NL-DFT gradient (VV10), updates on ESD,
                                                   ML-optimized integration grids
   S Lehtola, MJT Oliveira, MAL Marques          : LibXC Library
   Liviu Ungur et al                             : ANISO software


 Your calculation uses the libint2 library for the computation of 2-el integrals
 For citations please refer to: http://libint.valeyev.net

 Your ORCA version has been built with support for libXC version: 5.1.0
 For citations please refer to: https://tddft.org/programs/libxc/

 This ORCA versions uses:
   CBLAS   interface :  Fast vector & matrix operations
   LAPACKE interface :  Fast linear algebra routines
   SCALAPACK package :  Parallel linear algebra routines
   Shared memory     :  Shared parallel matrices
   BLAS/LAPACK       :  OpenBLAS 0.3.15  USE64BITINT DYNAMIC_ARCH NO_AFFINITY Haswell SINGLE_THREADED
        Core in use  :  Haswell
   Copyright (c) 2011-2014, The OpenBLAS Project


Your calculation utilizes the atom-pairwise dispersion correction
with the zero-damping scheme (D30)
Cite in your paper:
S.Grimme, J.Antony, S.Ehrlich and H.Krieg, J.Chem.Phys., 132, (2010), 154104 
   

XCFun DFT library Copyright 2009-2010 Ulf Ekstrom and contributors.
See http://admol.org/xcfun for more information.
This is free software; see the source code for copying conditions.
There is ABSOLUTELY NO WARRANTY; not even for MERCHANTABILITY or FITNESS FOR A PARTICULAR PURPOSE.
For details see the documentation.
Scientific users of this library should cite U. Ekstrom, L. Visscher, R. Bast, A. J. Thorvaldsen and K. Ruud;
J.Chem.Theor.Comp. 2010, DOI: 10.1021/ct100117s
XCFun Version 0.99 

================================================================================

----- Orbital basis set information -----
Your calculation utilizes the basis: def2-SVPD
   F. Weigend and R. Ahlrichs, Phys. Chem. Chem. Phys. 7, 3297 (2005).
   D. Rappoport and F. Furche, J. Chem. Phys. 133 134105 (2010).

----- AuxJ basis set information -----
Your calculation utilizes the auxiliary basis: def2/J
   F. Weigend, Phys. Chem. Chem. Phys. 8, 1057 (2006).

================================================================================
                                        WARNINGS
                       Please study these warnings very carefully!
================================================================================


INFO   : the flag for use of the SHARK integral package has been found!

================================================================================
                                       INPUT FILE
================================================================================
NAME = C1_wt_dlpno_pos.com
|  1> !wB97X-D3 RIJCOSX def2-SVPD def2/J TightSCF CPCM(Water)
|  2> *xyz 0 1
|  3> C          3.34350        3.35457       -3.59200
|  4> C          2.95263        1.86308       -3.57485
|  5> C          4.12921        0.89839       -3.41895
|  6> C          4.25587        3.70385       -4.72605
|  7> C          3.73403        4.29378       -5.80077
|  8> N          5.51504        3.40725       -4.63718
|  9> H          6.14919        3.60120       -5.39905
| 10> H          5.81358        2.89950       -3.80879
| 11> H          2.74138        4.51311       -5.82470
| 12> H          4.28755        4.52126       -6.61434
| 13> H          2.27894        1.73525       -2.72550
| 14> H          2.37747        1.62579       -4.47587
| 15> H          3.86125        3.59725       -2.66298
| 16> H          2.44649        3.97346       -3.65656
| 17> H          4.79753        1.01430       -4.24649
| 18> H          3.76482       -0.10731       -3.39293
| 19> H          4.64840        1.11330       -2.50837
| 20> *
| 21> %MaxCore 64000
| 22> 
| 23> %pal nprocs 18
| 24> end  
| 25> 
| 26> %scf
| 27>   MaxIter 150
| 28> end
| 29> 
| 30> 
| 31>                          ****END OF INPUT****
================================================================================

                       ****************************
                       * Single Point Calculation *
                       ****************************

---------------------------------
CARTESIAN COORDINATES (ANGSTROEM)
---------------------------------
  C      3.343500    3.354570   -3.592000
  C      2.952630    1.863080   -3.574850
  C      4.129210    0.898390   -3.418950
  C      4.255870    3.703850   -4.726050
  C      3.734030    4.293780   -5.800770
  N      5.515040    3.407250   -4.637180
  H      6.149190    3.601200   -5.399050
  H      5.813580    2.899500   -3.808790
  H      2.741380    4.513110   -5.824700
  H      4.287550    4.521260   -6.614340
  H      2.278940    1.735250   -2.725500
  H      2.377470    1.625790   -4.475870
  H      3.861250    3.597250   -2.662980
  H      2.446490    3.973460   -3.656560
  H      4.797530    1.014300   -4.246490
  H      3.764820   -0.107310   -3.392930
  H      4.648400    1.113300   -2.508370

----------------------------
CARTESIAN COORDINATES (A.U.)
----------------------------
  NO LB      ZA    FRAG     MASS         X           Y           Z
   0 C     6.0000    0    12.011    6.318299    6.339219   -6.787896
   1 C     6.0000    0    12.011    5.579662    3.520711   -6.755487
   2 C     6.0000    0    12.011    7.803076    1.697711   -6.460879
   3 C     6.0000    0    12.011    8.042429    6.999262   -8.930940
   4 C     6.0000    0    12.011    7.056294    8.114068  -10.961867
   5 N     7.0000    0    14.007   10.421915    6.438769   -8.763000
   6 H     1.0000    0     1.008   11.620285    6.805282  -10.202726
   7 H     1.0000    0     1.008   10.986074    5.479261   -7.197570
   8 H     1.0000    0     1.008    5.180457    8.528542  -11.007088
   9 H     1.0000    0     1.008    8.102295    8.543943  -12.499291
  10 H     1.0000    0     1.008    4.306572    3.279147   -5.150449
  11 H     1.0000    0     1.008    4.492767    3.072298   -8.458169
  12 H     1.0000    0     1.008    7.296705    6.797817   -5.032303
  13 H     1.0000    0     1.008    4.623196    7.508751   -6.909897
  14 H     1.0000    0     1.008    9.066018    1.916749   -8.024703
  15 H     1.0000    0     1.008    7.114479   -0.202787   -6.411708
  16 H     1.0000    0     1.008    8.784203    2.103832   -4.740132

--------------------------------
INTERNAL COORDINATES (ANGSTROEM)
--------------------------------
 C      0   0   0     0.000000000000     0.00000000     0.00000000
 C      1   0   0     1.541951977041     0.00000000     0.00000000
 C      2   1   0     1.529467914832   114.59644231     0.00000000
 C      1   2   3     1.496824952291   112.87046885    60.99259160
 C      4   1   2     1.332425408381   118.40448313   100.88702391
 N      4   1   2     1.296679808511   119.11756322   281.82669911
 H      6   4   1     1.010053821289   120.93448605   177.85655544
 H      6   4   1     1.016447827584   117.08626586     3.23412400
 H      5   4   1     1.016873795660   119.78818998     1.33777590
 H      5   4   1     1.009964200207   122.33170643   182.52570636
 H      2   1   3     1.091601643229   106.16284228   120.06018282
 H      2   1   3     1.094966944752   109.48851571   235.12401618
 H      1   2   3     1.090888081015   109.02730241   301.35672756
 H      1   2   3     1.091704981119   109.92103142   182.76830140
 H      3   2   1     1.070004300038   109.47080572   298.60658326
 H      3   2   1     1.069995141344   109.47135131   178.60680488
 H      3   2   1     1.070000233925   109.47107663    58.60696545

---------------------------
INTERNAL COORDINATES (A.U.)
---------------------------
 C      0   0   0     0.000000000000     0.00000000     0.00000000
 C      1   0   0     2.913866948266     0.00000000     0.00000000
 C      2   1   0     2.890275489652   114.59644231     0.00000000
 C      1   2   3     2.828589230249   112.87046885    60.99259160
 C      4   1   2     2.517919115719   118.40448313   100.88702391
 N      4   1   2     2.450369721471   119.11756322   281.82669911
 H      6   4   1     1.908725102756   120.93448605   177.85655544
 H      6   4   1     1.920808023553   117.08626586     3.23412400
 H      5   4   1     1.921612986558   119.78818998     1.33777590
 H      5   4   1     1.908555743456   122.33170643   182.52570636
 H      2   1   3     2.062828153041   106.16284228   120.06018282
 H      2   1   3     2.069187651278   109.48851571   235.12401618
 H      1   2   3     2.061479715877   109.02730241   301.35672756
 H      1   2   3     2.063023433353   109.92103142   182.76830140
 H      3   2   1     2.022015089190   109.47080572   298.60658326
 H      3   2   1     2.021997781767   109.47135131   178.60680488
 H      3   2   1     2.022007405350   109.47107663    58.60696545

---------------------
BASIS SET INFORMATION
---------------------
There are 3 groups of distinct atoms

 Group   1 Type C   : 8s4p2d contracted to 4s2p2d pattern {5111/31/11}
 Group   2 Type N   : 8s4p2d contracted to 4s2p2d pattern {5111/31/11}
 Group   3 Type H   : 4s2p contracted to 2s2p pattern {31/11}

Atom   0C    basis set group =>   1
Atom   1C    basis set group =>   1
Atom   2C    basis set group =>   1
Atom   3C    basis set group =>   1
Atom   4C    basis set group =>   1
Atom   5N    basis set group =>   2
Atom   6H    basis set group =>   3
Atom   7H    basis set group =>   3
Atom   8H    basis set group =>   3
Atom   9H    basis set group =>   3
Atom  10H    basis set group =>   3
Atom  11H    basis set group =>   3
Atom  12H    basis set group =>   3
Atom  13H    basis set group =>   3
Atom  14H    basis set group =>   3
Atom  15H    basis set group =>   3
Atom  16H    basis set group =>   3
---------------------------------
AUXILIARY/J BASIS SET INFORMATION
---------------------------------
There are 3 groups of distinct atoms

 Group   1 Type C   : 12s5p4d2f1g contracted to 6s4p3d1f1g pattern {711111/2111/211/2/1}
 Group   2 Type N   : 12s5p4d2f1g contracted to 6s4p3d1f1g pattern {711111/2111/211/2/1}
 Group   3 Type H   : 5s2p1d contracted to 3s1p1d pattern {311/2/1}

Atom   0C    basis set group =>   1
Atom   1C    basis set group =>   1
Atom   2C    basis set group =>   1
Atom   3C    basis set group =>   1
Atom   4C    basis set group =>   1
Atom   5N    basis set group =>   2
Atom   6H    basis set group =>   3
Atom   7H    basis set group =>   3
Atom   8H    basis set group =>   3
Atom   9H    basis set group =>   3
Atom  10H    basis set group =>   3
Atom  11H    basis set group =>   3
Atom  12H    basis set group =>   3
Atom  13H    basis set group =>   3
Atom  14H    basis set group =>   3
Atom  15H    basis set group =>   3
Atom  16H    basis set group =>   3


           ************************************************************
           *        Program running with 18 parallel MPI-processes    *
           *              working on a common directory               *
           ************************************************************
------------------------------------------------------------------------------
                           ORCA GTO INTEGRAL CALCULATION
                           -- RI-GTO INTEGRALS CHOSEN --
------------------------------------------------------------------------------
------------------------------------------------------------------------------
                   ___                                                        
                  /   \      - P O W E R E D   B Y -                         
                 /     \                                                     
                 |  |  |   _    _      __       _____    __    __             
                 |  |  |  | |  | |    /  \     |  _  \  |  |  /  |          
                  \  \/   | |  | |   /    \    | | | |  |  | /  /          
                 / \  \   | |__| |  /  /\  \   | |_| |  |  |/  /          
                |  |  |   |  __  | /  /__\  \  |    /   |      \           
                |  |  |   | |  | | |   __   |  |    \   |  |\   \          
                \     /   | |  | | |  |  |  |  | |\  \  |  | \   \       
                 \___/    |_|  |_| |__|  |__|  |_| \__\ |__|  \__/        
                                                                              
                      - O R C A' S   B I G   F R I E N D -                    
                                      &                                       
                       - I N T E G R A L  F E E D E R -                       
                                                                              
 v1 FN, 2020, v2 2021                                                         
------------------------------------------------------------------------------


Reading SHARK input file C1_wt_dlpno_pos.SHARKINP.tmp ... ok
----------------------
SHARK INTEGRAL PACKAGE
----------------------

Number of atoms                             ...     17
Number of basis functions                   ...    208
Number of shells                            ...     92
Maximum angular momentum                    ...      2
Integral batch strategy                     ... SHARK/LIBINT Hybrid
RI-J (if used) integral strategy            ... SPLIT-RIJ (Revised 2003 algorithm where possible)
Printlevel                                  ...      1
Contraction scheme used                     ... SEGMENTED contraction
Coulomb Range Separation                    ... NOT USED
Exchange Range Separation                   ... Long Range
   Mu parameter                             ...  0.250000
   Scaling (regular/separated)              ...  0.195728  0.804272
Finite Nucleus Model                        ... NOT USED
Auxiliary Coulomb fitting basis             ... AVAILABLE
   # of basis functions in Aux-J            ...    415
   # of shells in Aux-J                     ...    145
   Maximum angular momentum in Aux-J        ...      4
Auxiliary J/K fitting basis                 ... NOT available
Auxiliary Correlation fitting basis         ... NOT available
Auxiliary 'external' fitting basis          ... NOT available
Integral threshold                          ...     2.500000e-11
Primitive cut-off                           ...     2.500000e-12
Primitive pair pre-selection threshold      ...     2.500000e-12

Calculating pre-screening integrals         ... done (  0.0 sec) Dimension = 92
Organizing shell pair data                  ... done (  0.0 sec)
Shell pair information
Total number of shell pairs                 ...      4278
Shell pairs after pre-screening             ...      4226
Total number of primitive shell pairs       ...     11436
Primitive shell pairs kept                  ...      9462
          la=0 lb=0:   1065 shell pairs
          la=1 lb=0:   1539 shell pairs
          la=1 lb=1:    588 shell pairs
          la=2 lb=0:    550 shell pairs
          la=2 lb=1:    406 shell pairs
          la=2 lb=2:     78 shell pairs

Calculating one electron integrals          ... done (  0.0 sec)
Calculating RI/J V-Matrix + Cholesky decomp.... done (  0.0 sec)
Calculating Nuclear repulsion               ... done (  0.0 sec) ENN=    247.675726094984 Eh

SHARK setup successfully completed in   0.2 seconds

Maximum memory used throughout the entire GTOINT-calculation: 9.0 MB


           ************************************************************
           *        Program running with 18 parallel MPI-processes    *
           *              working on a common directory               *
           ************************************************************
-------------------------------------------------------------------------------
                                 ORCA SCF
-------------------------------------------------------------------------------

------------
SCF SETTINGS
------------
Hamiltonian:
 Density Functional     Method          .... DFT(GTOs)
 Exchange Functional    Exchange        .... WB97X-D3
 Correlation Functional Correlation     .... WB97X-D3
 Gradients option       PostSCFGGA      .... off
 Hybrid DFT is turned on
   Fraction HF Exchange ScalHFX         ....  0.195728
   Scaling of DF-GGA-X  ScalDFX         ....  0.000000
   Scaling of DF-GGA-C  ScalDFC         ....  1.000000
   Scaling of DF-LDA-C  ScalLDAC        ....  1.000000
   Perturbative correction              ....  0.000000
   Density functional embedding theory  .... OFF
 Long-range corrected/Screened/Range-Separated Hybrid DFT is turned on
   Amount of maximum screened exact exchange              ....  0.804272
   Range separation parameter mu (erf(mu*r12)/r12)        ....  0.250000
 RI-approximation to the Coulomb term is turned on
   Number of AuxJ basis functions       .... 415
   RIJ-COSX (HFX calculated with COS-X)).... on


General Settings:
 Integral files         IntName         .... C1_wt_dlpno_pos
 Hartree-Fock type      HFTyp           .... RHF
 Total Charge           Charge          ....    0
 Multiplicity           Mult            ....    1
 Number of Electrons    NEL             ....   48
 Basis Dimension        Dim             ....  208
 Nuclear Repulsion      ENuc            ....    247.6757260950 Eh

Convergence Acceleration:
 DIIS                   CNVDIIS         .... on
   Start iteration      DIISMaxIt       ....    12
   Startup error        DIISStart       ....  0.200000
   # of expansion vecs  DIISMaxEq       ....     5
   Bias factor          DIISBfac        ....   1.050
   Max. coefficient     DIISMaxC        ....  10.000
 Trust-Rad. Augm. Hess. CNVTRAH         .... auto
   Auto Start mean grad. ratio tolernc. ....  1.125000
   Auto Start start iteration           ....    20
   Auto Start num. interpolation iter.  ....    10
   Max. Number of Micro iterations      ....    16
   Max. Number of Macro iterations      .... Maxiter - #DIIS iter
   Number of Davidson start vectors     ....     2
   Converg. threshold I  (grad. norm)   ....   1.000e-05
   Converg. threshold II (energy diff.) ....   1.000e-08
   Grad. Scal. Fac. for Micro threshold ....   0.100
   Minimum threshold for Micro iter.    ....   0.010
   NR start threshold (gradient norm)   ....   0.001
   Initial trust radius                 ....   0.400
   Minimum AH scaling param. (alpha)    ....   1.000
   Maximum AH scaling param. (alpha)    .... 1000.000
   Orbital update algorithm             .... Taylor
   White noise on init. David. guess    .... on
   Maximum white noise                  ....   0.010
   Quad. conv. algorithm                .... NR
 SOSCF                  CNVSOSCF        .... on
   Start iteration      SOSCFMaxIt      ....   150
   Startup grad/error   SOSCFStart      ....  0.003300
 Level Shifting         CNVShift        .... on
   Level shift para.    LevelShift      ....    0.2500
   Turn off err/grad.   ShiftErr        ....    0.0010
 Zerner damping         CNVZerner       .... off
 Static damping         CNVDamp         .... on
   Fraction old density DampFac         ....    0.7000
   Max. Damping (<1)    DampMax         ....    0.9800
   Min. Damping (>=0)   DampMin         ....    0.0000
   Turn off err/grad.   DampErr         ....    0.1000
 Fernandez-Rico         CNVRico         .... off

SCF Procedure:
 Maximum # iterations   MaxIter         ....   150
 SCF integral mode      SCFMode         .... Direct
   Integral package                     .... SHARK and LIBINT hybrid scheme
 Reset frequency        DirectResetFreq ....    20
 Integral Threshold     Thresh          ....  2.500e-11 Eh
 Primitive CutOff       TCut            ....  2.500e-12 Eh

Convergence Tolerance:
 Convergence Check Mode ConvCheckMode   .... Total+1el-Energy
 Convergence forced     ConvForced      .... 0
 Energy Change          TolE            ....  1.000e-08 Eh
 1-El. energy change                    ....  1.000e-05 Eh
 Orbital Gradient       TolG            ....  1.000e-05
 Orbital Rotation angle TolX            ....  1.000e-05
 DIIS Error             TolErr          ....  5.000e-07


Diagonalization of the overlap matrix:
Smallest eigenvalue                        ... 5.063e-05
Time for diagonalization                   ...    0.012 sec
Threshold for overlap eigenvalues          ... 1.000e-08
Number of eigenvalues below threshold      ... 0
Time for construction of square roots      ...    0.024 sec
Total time needed                          ...    0.037 sec

Time for model grid setup =    0.059 sec

------------------------------
INITIAL GUESS: MODEL POTENTIAL
------------------------------
Loading Hartree-Fock densities                     ... done
Calculating cut-offs                               ... done
Initializing the effective Hamiltonian             ... done
Setting up the integral package (SHARK)            ... done
Starting the Coulomb interaction                   ... done (   0.0 sec)
Reading the grid                                   ... done
Mapping shells                                     ... done
Starting the XC term evaluation                    ... done (   0.0 sec)
  promolecular density results
     # of electrons  =     47.987383678
     EX              =    -35.423304149
     EC              =     -1.564822737
     EX+EC           =    -36.988126887
Transforming the Hamiltonian                       ... done (   0.0 sec)
Diagonalizing the Hamiltonian                      ... done (   0.0 sec)
Back transforming the eigenvectors                 ... done (   0.0 sec)
Now organizing SCF variables                       ... done
                      ------------------
                      INITIAL GUESS DONE (   0.1 sec)
                      ------------------
-------------------
DFT GRID GENERATION
-------------------

General Integration Accuracy     IntAcc      ... 4.388
Radial Grid Type                 RadialGrid  ... OptM3 with GC (2021)
Angular Grid (max. ang.)         AngularGrid ... 4 (Lebedev-302)
Angular grid pruning method      GridPruning ... 4 (adaptive)
Weight generation scheme         WeightScheme... Becke
Basis function cutoff            BFCut       ... 1.0000e-11
Integration weight cutoff        WCut        ... 1.0000e-14
Angular grids for H and He will be reduced by one unit
Partially contracted basis set               ... off
Rotationally invariant grid construction     ... off

Total number of grid points                  ...    73403
Total number of batches                      ...     1156
Average number of points per batch           ...       63
Average number of grid points per atom       ...     4318
Time for grid setup =    0.360 sec

--------------------
COSX GRID GENERATION
--------------------

GRIDX 1
-------
General Integration Accuracy     IntAcc      ... 3.816
Radial Grid Type                 RadialGrid  ... OptM3 with GC (2021)
Angular Grid (max. ang.)         AngularGrid ... 1 (Lebedev-50)
Angular grid pruning method      GridPruning ... 4 (adaptive)
Weight generation scheme         WeightScheme... Becke
Basis function cutoff            BFCut       ... 1.0000e-11
Integration weight cutoff        WCut        ... 1.0000e-14
Angular grids for H and He will be reduced by one unit
Partially contracted basis set               ... on
Rotationally invariant grid construction     ... off

Total number of grid points                  ...     9186
Total number of batches                      ...      155
Average number of points per batch           ...       59
Average number of grid points per atom       ...      540
UseSFitting                                  ... on

GRIDX 2
-------
General Integration Accuracy     IntAcc      ... 4.020
Radial Grid Type                 RadialGrid  ... OptM3 with GC (2021)
Angular Grid (max. ang.)         AngularGrid ... 2 (Lebedev-110)
Angular grid pruning method      GridPruning ... 4 (adaptive)
Weight generation scheme         WeightScheme... Becke
Basis function cutoff            BFCut       ... 1.0000e-11
Integration weight cutoff        WCut        ... 1.0000e-14
Angular grids for H and He will be reduced by one unit
Partially contracted basis set               ... on
Rotationally invariant grid construction     ... off

Total number of grid points                  ...    19995
Total number of batches                      ...      322
Average number of points per batch           ...       62
Average number of grid points per atom       ...     1176
UseSFitting                                  ... on

GRIDX 3
-------
General Integration Accuracy     IntAcc      ... 4.338
Radial Grid Type                 RadialGrid  ... OptM3 with GC (2021)
Angular Grid (max. ang.)         AngularGrid ... 3 (Lebedev-194)
Angular grid pruning method      GridPruning ... 4 (adaptive)
Weight generation scheme         WeightScheme... Becke
Basis function cutoff            BFCut       ... 1.0000e-11
Integration weight cutoff        WCut        ... 1.0000e-14
Angular grids for H and He will be reduced by one unit
Partially contracted basis set               ... on
Rotationally invariant grid construction     ... off

Total number of grid points                  ...    45678
Total number of batches                      ...      722
Average number of points per batch           ...       63
Average number of grid points per atom       ...     2687
UseSFitting                                  ... on

Time for X-Grid setup             =    0.247 sec


--------------------
CPCM SOLVATION MODEL
--------------------
CPCM parameters:
  Epsilon                                         ...      80.4000
  Refrac                                          ...       1.3300
  Rsolv                                           ...       1.3000
  Surface type                                    ... GAUSSIAN VDW
  Epsilon function type                           ...         CPCM
Radii:
 Radius for C  used is    3.8550 Bohr (=   2.0400 Ang.)
 Radius for N  used is    3.5149 Bohr (=   1.8600 Ang.)
 Radius for H  used is    2.4944 Bohr (=   1.3200 Ang.)
Calculating surface                               ...        done! (  0.0s)
GEPOL surface points                              ...          958
GEPOL Volume                                      ...     863.8228
GEPOL Surface-area                                ...     511.1887
Calculating surface distance matrix               ...        done! (  0.0s)
Performing Cholesky decomposition & store         ...        done! (  0.0s)
Overall time for CPCM initialization              ...                 0.1s
--------------
SCF ITERATIONS
--------------
ITER       Energy         Delta-E        Max-DP      RMS-DP      [F,P]     Damp
               ***  Starting incremental Fock matrix formation  ***
  0   -251.4032765001   0.000000000000 0.10654965  0.00317006  0.1997018 0.7000
  1   -251.4995607603  -0.096284260202 0.06144874  0.00219883  0.1213904 0.7000
                               ***Turning on DIIS***
  2   -251.5505494071  -0.050988646768 0.15913930  0.00459345  0.0659776 0.0000
  3   -251.6317895675  -0.081240160372 0.05494395  0.00147006  0.0481963 0.0000
  4   -251.6439144074  -0.012124839928 0.01347527  0.00030504  0.0086955 0.0000
                      *** Initiating the SOSCF procedure ***
                           *** Shutting down DIIS ***
                      *** Re-Reading the Fockian *** 
                      *** Removing any level shift *** 
ITER      Energy       Delta-E        Grad      Rot      Max-DP    RMS-DP
  5   -251.64418424  -0.0002698280  0.000608  0.000608  0.002690  0.000105
               *** Restarting incremental Fock matrix formation ***
  6   -251.64420996  -0.0000257268  0.000194  0.000418  0.004441  0.000090
  7   -251.64421582  -0.0000058596  0.000233  0.000664  0.003449  0.000056
  8   -251.64421774  -0.0000019142  0.000034  0.000048  0.000623  0.000018
  9   -251.64421784  -0.0000001089  0.000027  0.000060  0.000267  0.000008
 10   -251.64421787  -0.0000000294  0.000010  0.000034  0.000140  0.000002
 11   -251.64421788  -0.0000000036  0.000003  0.000016  0.000048  0.000001
                  ***Gradient check signals convergence***
              ***Rediagonalizing the Fockian in SOSCF/NRSCF***

               *****************************************************
               *                     SUCCESS                       *
               *           SCF CONVERGED AFTER  12 CYCLES          *
               *****************************************************

Old exchange energy                            =    -12.271466259 Eh
New exchange energy                            =    -12.271491881 Eh
Exchange energy change after final integration =     -0.000025621 Eh
Total energy after final integration           =   -251.644243495 Eh
Final COS-X integration done in                =     1.581 sec

----------------
TOTAL SCF ENERGY
----------------

Total Energy       :         -251.64424349 Eh           -6847.58799 eV

Components:
Nuclear Repulsion  :          247.67572609 Eh            6739.59914 eV
Electronic Energy  :         -499.31996959 Eh          -13587.18713 eV
One Electron Energy:         -828.23858539 Eh          -22537.51769 eV
Two Electron Energy:          328.91861580 Eh            8950.33056 eV
Max COSX asymmetry :            0.00000438 Eh               0.00012 eV
CPCM Dielectric    :           -0.01001507 Eh              -0.27252 eV

Virial components:
Potential Energy   :         -500.72453964 Eh          -13625.40743 eV
Kinetic Energy     :          249.08029614 Eh            6777.81944 eV
Virial Ratio       :            2.01029366


DFT components:
N(Alpha)           :       23.999975176812 electrons
N(Beta)            :       23.999975176812 electrons
N(Total)           :       47.999950353623 electrons
E(XC)              :      -25.914508671412 Eh       
DFET-embed. en.    :        0.000000000000 Eh       
CPCM Solvation Model Properties:
Surface-charge          :           -0.02671590
Charge-correction       :            0.00006551 Eh               0.00178 eV
Free-energy (cav+disp)  :  This term is not implemented in the current solvation scheme

---------------
SCF CONVERGENCE
---------------

  Last Energy change         ...    4.3295e-09  Tolerance :   1.0000e-08
  Last MAX-Density change    ...    2.6645e-15  Tolerance :   1.0000e-07
  Last RMS-Density change    ...    3.5985e-17  Tolerance :   5.0000e-09
  Last Orbital Gradient      ...    1.4844e-06  Tolerance :   1.0000e-05
  Last Orbital Rotation      ...    3.1505e-06  Tolerance :   1.0000e-05

             **** THE GBW FILE WAS UPDATED (C1_wt_dlpno_pos.gbw) ****
             **** DENSITY C1_wt_dlpno_pos.scfp WAS UPDATED ****
             **** ENERGY FILE WAS UPDATED (C1_wt_dlpno_pos.en.tmp) ****
             **** THE GBW FILE WAS UPDATED (C1_wt_dlpno_pos.gbw) ****
             **** DENSITY C1_wt_dlpno_pos.scfp WAS UPDATED ****
----------------
ORBITAL ENERGIES
----------------

  NO   OCC          E(Eh)            E(eV) 
   0   2.0000     -14.433898      -392.7663 
   1   2.0000     -10.314424      -280.6697 
   2   2.0000     -10.283617      -279.8314 
   3   2.0000     -10.283444      -279.8267 
   4   2.0000     -10.266845      -279.3751 
   5   2.0000     -10.222918      -278.1797 
   6   2.0000      -1.044017       -28.4092 
   7   2.0000      -0.899448       -24.4752 
   8   2.0000      -0.843681       -22.9577 
   9   2.0000      -0.785935       -21.3864 
  10   2.0000      -0.708940       -19.2912 
  11   2.0000      -0.665264       -18.1028 
  12   2.0000      -0.624728       -16.9997 
  13   2.0000      -0.586771       -15.9668 
  14   2.0000      -0.548522       -14.9261 
  15   2.0000      -0.530264       -14.4292 
  16   2.0000      -0.505207       -13.7474 
  17   2.0000      -0.490669       -13.3518 
  18   2.0000      -0.468409       -12.7461 
  19   2.0000      -0.455295       -12.3892 
  20   2.0000      -0.429343       -11.6830 
  21   2.0000      -0.417566       -11.3626 
  22   2.0000      -0.412852       -11.2343 
  23   2.0000      -0.279244        -7.5986 
  24   0.0000       0.094385         2.5683 
  25   0.0000       0.114968         3.1284 
  26   0.0000       0.119757         3.2588 
  27   0.0000       0.128242         3.4897 
  28   0.0000       0.143078         3.8933 
  29   0.0000       0.152259         4.1432 
  30   0.0000       0.164285         4.4704 
  31   0.0000       0.174473         4.7477 
  32   0.0000       0.180368         4.9081 
  33   0.0000       0.196120         5.3367 
  34   0.0000       0.205534         5.5929 
  35   0.0000       0.216632         5.8949 
  36   0.0000       0.231136         6.2895 
  37   0.0000       0.235750         6.4151 
  38   0.0000       0.242216         6.5910 
  39   0.0000       0.257488         7.0066 
  40   0.0000       0.263239         7.1631 
  41   0.0000       0.270662         7.3651 
  42   0.0000       0.275841         7.5060 
  43   0.0000       0.283213         7.7066 
  44   0.0000       0.300478         8.1764 
  45   0.0000       0.318430         8.6649 
  46   0.0000       0.320002         8.7077 
  47   0.0000       0.324558         8.8317 
  48   0.0000       0.339240         9.2312 
  49   0.0000       0.344837         9.3835 
  50   0.0000       0.356499         9.7008 
  51   0.0000       0.367030         9.9874 
  52   0.0000       0.378791        10.3074 
  53   0.0000       0.388954        10.5840 
  54   0.0000       0.399474        10.8702 
  55   0.0000       0.400214        10.8904 
  56   0.0000       0.409325        11.1383 
  57   0.0000       0.414396        11.2763 
  58   0.0000       0.420364        11.4387 
  59   0.0000       0.421715        11.4755 
  60   0.0000       0.437103        11.8942 
  61   0.0000       0.443031        12.0555 
  62   0.0000       0.443498        12.0682 
  63   0.0000       0.450458        12.2576 
  64   0.0000       0.457111        12.4386 
  65   0.0000       0.459165        12.4945 
  66   0.0000       0.470185        12.7944 
  67   0.0000       0.480480        13.0745 
  68   0.0000       0.485587        13.2135 
  69   0.0000       0.487757        13.2725 
  70   0.0000       0.501019        13.6334 
  71   0.0000       0.509069        13.8525 
  72   0.0000       0.514262        13.9938 
  73   0.0000       0.523397        14.2424 
  74   0.0000       0.531034        14.4502 
  75   0.0000       0.539384        14.6774 
  76   0.0000       0.545754        14.8507 
  77   0.0000       0.551720        15.0131 
  78   0.0000       0.563569        15.3355 
  79   0.0000       0.568307        15.4644 
  80   0.0000       0.570413        15.5217 
  81   0.0000       0.579642        15.7729 
  82   0.0000       0.588051        16.0017 
  83   0.0000       0.592449        16.1214 
  84   0.0000       0.597298        16.2533 
  85   0.0000       0.601252        16.3609 
  86   0.0000       0.610363        16.6088 
  87   0.0000       0.620335        16.8802 
  88   0.0000       0.631368        17.1804 
  89   0.0000       0.645066        17.5531 
  90   0.0000       0.650692        17.7062 
  91   0.0000       0.657174        17.8826 
  92   0.0000       0.662483        18.0271 
  93   0.0000       0.672889        18.3102 
  94   0.0000       0.683259        18.5924 
  95   0.0000       0.685783        18.6611 
  96   0.0000       0.699299        19.0289 
  97   0.0000       0.710255        19.3270 
  98   0.0000       0.717042        19.5117 
  99   0.0000       0.728485        19.8231 
 100   0.0000       0.740524        20.1507 
 101   0.0000       0.754334        20.5265 
 102   0.0000       0.768143        20.9022 
 103   0.0000       0.788440        21.4545 
 104   0.0000       0.793846        21.6017 
 105   0.0000       0.831136        22.6164 
 106   0.0000       0.838351        22.8127 
 107   0.0000       0.844525        22.9807 
 108   0.0000       0.871834        23.7238 
 109   0.0000       0.908200        24.7134 
 110   0.0000       0.995478        27.0883 
 111   0.0000       1.006234        27.3810 
 112   0.0000       1.018105        27.7041 
 113   0.0000       1.042803        28.3761 
 114   0.0000       1.059198        28.8222 
 115   0.0000       1.085887        29.5485 
 116   0.0000       1.088928        29.6312 
 117   0.0000       1.103731        30.0340 
 118   0.0000       1.111801        30.2536 
 119   0.0000       1.134101        30.8605 
 120   0.0000       1.146061        31.1859 
 121   0.0000       1.149998        31.2930 
 122   0.0000       1.160418        31.5766 
 123   0.0000       1.167242        31.7623 
 124   0.0000       1.177052        32.0292 
 125   0.0000       1.194334        32.4995 
 126   0.0000       1.225719        33.3535 
 127   0.0000       1.255434        34.1621 
 128   0.0000       1.270233        34.5648 
 129   0.0000       1.287416        35.0324 
 130   0.0000       1.291375        35.1401 
 131   0.0000       1.304060        35.4853 
 132   0.0000       1.332471        36.2584 
 133   0.0000       1.361608        37.0512 
 134   0.0000       1.378459        37.5098 
 135   0.0000       1.406429        38.2709 
 136   0.0000       1.428390        38.8685 
 137   0.0000       1.463261        39.8174 
 138   0.0000       1.491068        40.5740 
 139   0.0000       1.526616        41.5413 
 140   0.0000       1.555954        42.3396 
 141   0.0000       1.592800        43.3423 
 142   0.0000       1.670939        45.4686 
 143   0.0000       1.679725        45.7076 
 144   0.0000       1.695679        46.1418 
 145   0.0000       1.712081        46.5881 
 146   0.0000       1.735888        47.2359 
 147   0.0000       1.785086        48.5747 
 148   0.0000       1.813631        49.3514 
 149   0.0000       1.827386        49.7257 
 150   0.0000       1.833751        49.8989 
 151   0.0000       1.888768        51.3960 
 152   0.0000       1.911557        52.0161 
 153   0.0000       1.945036        52.9271 
 154   0.0000       1.954615        53.1878 
 155   0.0000       1.978424        53.8357 
 156   0.0000       1.996359        54.3237 
 157   0.0000       2.022173        55.0261 
 158   0.0000       2.038702        55.4759 
 159   0.0000       2.055674        55.9377 
 160   0.0000       2.068200        56.2786 
 161   0.0000       2.080833        56.6223 
 162   0.0000       2.097742        57.0825 
 163   0.0000       2.113184        57.5027 
 164   0.0000       2.135819        58.1186 
 165   0.0000       2.154774        58.6344 
 166   0.0000       2.182301        59.3834 
 167   0.0000       2.193814        59.6967 
 168   0.0000       2.211490        60.1777 
 169   0.0000       2.215107        60.2761 
 170   0.0000       2.239387        60.9368 
 171   0.0000       2.267215        61.6940 
 172   0.0000       2.296085        62.4796 
 173   0.0000       2.316084        63.0238 
 174   0.0000       2.354107        64.0585 
 175   0.0000       2.383518        64.8588 
 176   0.0000       2.429140        66.1002 
 177   0.0000       2.442953        66.4761 
 178   0.0000       2.502053        68.0843 
 179   0.0000       2.522355        68.6368 
 180   0.0000       2.545515        69.2670 
 181   0.0000       2.563889        69.7670 
 182   0.0000       2.578591        70.1670 
 183   0.0000       2.596648        70.6584 
 184   0.0000       2.630131        71.5695 
 185   0.0000       2.697573        73.4047 
 186   0.0000       2.706331        73.6430 
 187   0.0000       2.723356        74.1063 
 188   0.0000       2.758328        75.0579 
 189   0.0000       2.785237        75.7902 
 190   0.0000       2.823264        76.8249 
 191   0.0000       2.833480        77.1029 
 192   0.0000       2.878406        78.3254 
 193   0.0000       2.931746        79.7769 
 194   0.0000       2.959991        80.5454 
 195   0.0000       3.061370        83.3041 
 196   0.0000       3.111730        84.6745 
 197   0.0000       3.166573        86.1668 
 198   0.0000       3.201535        87.1182 
 199   0.0000       3.222394        87.6858 
 200   0.0000       3.274586        89.1060 
 201   0.0000       3.313472        90.1642 
 202   0.0000       3.336849        90.8003 
 203   0.0000       3.357679        91.3671 
 204   0.0000       3.418213        93.0143 
 205   0.0000       3.472850        94.5011 
 206   0.0000       3.668119        99.8146 
 207   0.0000       3.835956       104.3817 

                    ********************************
                    * MULLIKEN POPULATION ANALYSIS *
                    ********************************

-----------------------
MULLIKEN ATOMIC CHARGES
-----------------------
   0 C :    0.205639
   1 C :   -0.338655
   2 C :    0.631884
   3 C :   -0.215393
   4 C :    0.421272
   5 N :    0.157817
   6 H :   -0.116496
   7 H :   -0.004618
   8 H :   -0.120726
   9 H :   -0.428203
  10 H :   -0.020534
  11 H :   -0.097961
  12 H :    0.004488
  13 H :    0.059940
  14 H :   -0.042538
  15 H :   -0.117557
  16 H :    0.021639
Sum of atomic charges:   -0.0000000

--------------------------------
MULLIKEN REDUCED ORBITAL CHARGES
--------------------------------
  0 C s       :     2.695777  s :     2.695777
      pz      :     0.990618  p :     2.864845
      px      :     0.871406
      py      :     1.002821
      dz2     :     0.015711  d :     0.233740
      dxz     :     0.015269
      dyz     :     0.107638
      dx2y2   :     0.012384
      dxy     :     0.082738
  1 C s       :     2.873182  s :     2.873182
      pz      :     0.917688  p :     2.963403
      px      :     1.053741
      py      :     0.991974
      dz2     :     0.009257  d :     0.502070
      dxz     :     0.169245
      dyz     :     0.066536
      dx2y2   :     0.184184
      dxy     :     0.072848
  2 C s       :     2.490215  s :     2.490215
      pz      :     0.943695  p :     2.774494
      px      :     0.961196
      py      :     0.869603
      dz2     :    -0.021939  d :     0.103407
      dxz     :     0.045870
      dyz     :     0.001238
      dx2y2   :     0.064171
      dxy     :     0.014068
  3 C s       :     2.807157  s :     2.807157
      pz      :     0.824983  p :     2.564933
      px      :     0.912683
      py      :     0.827267
      dz2     :     0.317516  d :     0.843303
      dxz     :     0.100905
      dyz     :     0.117220
      dx2y2   :     0.175443
      dxy     :     0.132219
  4 C s       :     3.016161  s :     3.016161
      pz      :     0.835875  p :     2.495962
      px      :     0.612421
      py      :     1.047665
      dz2     :     0.024500  d :     0.066605
      dxz     :     0.022817
      dyz     :     0.009851
      dx2y2   :    -0.007058
      dxy     :     0.016496
  5 N s       :     3.150259  s :     3.150259
      pz      :     1.137874  p :     3.684447
      px      :     1.026509
      py      :     1.520064
      dz2     :    -0.004488  d :     0.007478
      dxz     :    -0.010689
      dyz     :    -0.008473
      dx2y2   :     0.015806
      dxy     :     0.015322
  6 H s       :     1.075738  s :     1.075738
      pz      :    -0.009732  p :     0.040758
      px      :     0.004837
      py      :     0.045654
  7 H s       :     0.973677  s :     0.973677
      pz      :    -0.009595  p :     0.030941
      px      :     0.000840
      py      :     0.039695
  8 H s       :     1.115132  s :     1.115132
      pz      :    -0.025336  p :     0.005594
      px      :    -0.001923
      py      :     0.032853
  9 H s       :     1.397642  s :     1.397642
      pz      :     0.025828  p :     0.030560
      px      :    -0.028152
      py      :     0.032885
 10 H s       :     1.018527  s :     1.018527
      pz      :     0.009757  p :     0.002006
      px      :     0.016995
      py      :    -0.024746
 11 H s       :     1.038509  s :     1.038509
      pz      :     0.034560  p :     0.059452
      px      :     0.022039
      py      :     0.002854
 12 H s       :     0.950662  s :     0.950662
      pz      :     0.047879  p :     0.044850
      px      :    -0.001049
      py      :    -0.001980
 13 H s       :     0.906048  s :     0.906048
      pz      :    -0.001679  p :     0.034012
      px      :     0.020468
      py      :     0.015224
 14 H s       :     0.951022  s :     0.951022
      pz      :     0.072798  p :     0.091516
      px      :     0.012592
      py      :     0.006126
 15 H s       :     1.108908  s :     1.108908
      pz      :    -0.038501  p :     0.008649
      px      :     0.015758
      py      :     0.031392
 16 H s       :     0.960806  s :     0.960806
      pz      :     0.042679  p :     0.017555
      px      :    -0.009677
      py      :    -0.015447


                     *******************************
                     * LOEWDIN POPULATION ANALYSIS *
                     *******************************

----------------------
LOEWDIN ATOMIC CHARGES
----------------------
   0 C :    0.002370
   1 C :   -0.058449
   2 C :    0.113147
   3 C :   -0.273610
   4 C :    0.149181
   5 N :    0.182795
   6 H :    0.031128
   7 H :    0.012845
   8 H :   -0.092941
   9 H :   -0.095579
  10 H :    0.018730
  11 H :    0.021393
  12 H :    0.028334
  13 H :    0.024155
  14 H :   -0.035315
  15 H :   -0.017247
  16 H :   -0.010936

-------------------------------
LOEWDIN REDUCED ORBITAL CHARGES
-------------------------------
  0 C s       :     2.681572  s :     2.681572
      pz      :     0.895079  p :     2.686317
      px      :     0.892662
      py      :     0.898575
      dz2     :     0.130766  d :     0.629741
      dxz     :     0.103702
      dyz     :     0.137883
      dx2y2   :     0.102438
      dxy     :     0.154952
  1 C s       :     2.691687  s :     2.691687
      pz      :     0.920704  p :     2.703688
      px      :     0.904937
      py      :     0.878048
      dz2     :     0.073443  d :     0.663073
      dxz     :     0.151986
      dyz     :     0.105852
      dx2y2   :     0.175574
      dxy     :     0.156218
  2 C s       :     2.699770  s :     2.699770
      pz      :     0.937427  p :     2.772749
      px      :     0.918548
      py      :     0.916774
      dz2     :     0.054934  d :     0.414334
      dxz     :     0.127337
      dyz     :     0.032549
      dx2y2   :     0.115898
      dxy     :     0.083616
  3 C s       :     2.660108  s :     2.660108
      pz      :     0.918246  p :     2.559959
      px      :     0.891061
      py      :     0.750653
      dz2     :     0.237373  d :     1.053543
      dxz     :     0.271240
      dyz     :     0.134193
      dx2y2   :     0.202519
      dxy     :     0.208219
  4 C s       :     2.732497  s :     2.732497
      pz      :     0.940232  p :     2.793740
      px      :     0.926767
      py      :     0.926741
      dz2     :     0.095826  d :     0.324582
      dxz     :     0.091059
      dyz     :     0.051955
      dx2y2   :     0.048299
      dxy     :     0.037443
  5 N s       :     2.913886  s :     2.913886
      pz      :     1.119697  p :     3.533583
      px      :     1.104484
      py      :     1.309402
      dz2     :     0.039181  d :     0.369736
      dxz     :     0.139942
      dyz     :     0.022710
      dx2y2   :     0.084152
      dxy     :     0.083751
  6 H s       :     0.646183  s :     0.646183
      pz      :     0.123457  p :     0.322689
      px      :     0.097780
      py      :     0.101452
  7 H s       :     0.634575  s :     0.634575
      pz      :     0.136056  p :     0.352580
      px      :     0.081448
      py      :     0.135077
  8 H s       :     0.764937  s :     0.764937
      pz      :     0.084765  p :     0.328004
      px      :     0.133027
      py      :     0.110212
  9 H s       :     0.777266  s :     0.777266
      pz      :     0.109080  p :     0.318314
      px      :     0.101843
      py      :     0.107390
 10 H s       :     0.730955  s :     0.730955
      pz      :     0.104621  p :     0.250315
      px      :     0.083512
      py      :     0.062182
 11 H s       :     0.733807  s :     0.733807
      pz      :     0.109981  p :     0.244800
      px      :     0.074802
      py      :     0.060017
 12 H s       :     0.721863  s :     0.721863
      pz      :     0.103444  p :     0.249802
      px      :     0.082089
      py      :     0.064270
 13 H s       :     0.719504  s :     0.719504
      pz      :     0.073618  p :     0.256341
      px      :     0.102588
      py      :     0.080135
 14 H s       :     0.732113  s :     0.732113
      pz      :     0.114630  p :     0.303202
      px      :     0.095388
      py      :     0.093183
 15 H s       :     0.745565  s :     0.745565
      pz      :     0.074144  p :     0.271683
      px      :     0.077466
      py      :     0.120073
 16 H s       :     0.738012  s :     0.738012
      pz      :     0.115000  p :     0.272924
      px      :     0.080652
      py      :     0.077272


                      *****************************
                      * MAYER POPULATION ANALYSIS *
                      *****************************

  NA   - Mulliken gross atomic population
  ZA   - Total nuclear charge
  QA   - Mulliken gross atomic charge
  VA   - Mayer's total valence
  BVA  - Mayer's bonded valence
  FA   - Mayer's free valence

  ATOM       NA         ZA         QA         VA         BVA        FA
  0 C      5.7944     6.0000     0.2056     4.3902     4.3902    -0.0000
  1 C      6.3387     6.0000    -0.3387     5.2085     5.2085    -0.0000
  2 C      5.3681     6.0000     0.6319     3.9495     3.9495    -0.0000
  3 C      6.2154     6.0000    -0.2154     4.7073     4.7073     0.0000
  4 C      5.5787     6.0000     0.4213     3.8079     3.8079     0.0000
  5 N      6.8422     7.0000     0.1578     3.9401     3.9401     0.0000
  6 H      1.1165     1.0000    -0.1165     0.9856     0.9856     0.0000
  7 H      1.0046     1.0000    -0.0046     0.9235     0.9235     0.0000
  8 H      1.1207     1.0000    -0.1207     0.9922     0.9922    -0.0000
  9 H      1.4282     1.0000    -0.4282     0.9635     0.9635    -0.0000
 10 H      1.0205     1.0000    -0.0205     1.0808     1.0808    -0.0000
 11 H      1.0980     1.0000    -0.0980     1.1533     1.1533    -0.0000
 12 H      0.9955     1.0000     0.0045     1.1593     1.1593    -0.0000
 13 H      0.9401     1.0000     0.0599     0.9970     0.9970    -0.0000
 14 H      1.0425     1.0000    -0.0425     1.1362     1.1362    -0.0000
 15 H      1.1176     1.0000    -0.1176     0.9786     0.9786    -0.0000
 16 H      0.9784     1.0000     0.0216     1.0019     1.0019    -0.0000

  Mayer bond orders larger than 0.100000
B(  0-C ,  1-C ) :   1.1578 B(  0-C ,  3-C ) :   1.1698 B(  0-C ,  4-C ) :   0.1428 
B(  0-C ,  5-N ) :   0.1089 B(  0-C , 11-H ) :   0.1137 B(  0-C , 12-H ) :   0.7678 
B(  0-C , 13-H ) :   0.8568 B(  1-C ,  2-C ) :   1.2770 B(  1-C , 10-H ) :   0.9089 
B(  1-C , 11-H ) :   1.0151 B(  1-C , 12-H ) :   0.1253 B(  1-C , 13-H ) :   0.1139 
B(  1-C , 14-H ) :   0.1906 B(  1-C , 15-H ) :   0.2007 B(  1-C , 16-H ) :   0.1931 
B(  2-C , 14-H ) :   0.8355 B(  2-C , 15-H ) :   0.8287 B(  2-C , 16-H ) :   0.7921 
B(  3-C ,  4-C ) :   1.7764 B(  3-C ,  5-N ) :   1.1935 B(  3-C ,  6-H ) :  -0.1010 
B(  3-C ,  9-H ) :   0.1687 B(  3-C , 12-H ) :   0.1724 B(  3-C , 13-H ) :   0.1342 
B(  4-C ,  5-N ) :   0.2521 B(  4-C ,  8-H ) :   0.9352 B(  4-C ,  9-H ) :   0.7176 
B(  5-N ,  6-H ) :   1.2980 B(  5-N ,  7-H ) :   0.9738 B(  6-H ,  7-H ) :  -0.1660 


-------
TIMINGS
-------

Total SCF time: 0 days 0 hours 0 min 13 sec 

Total time                  ....      13.178 sec
Sum of individual times     ....      12.856 sec  ( 97.6%)

Fock matrix formation       ....      11.931 sec  ( 90.5%)
  Split-RI-J                ....       0.670 sec  (  5.6% of F)
  Chain of spheres X        ....       8.485 sec  ( 71.1% of F)
  XC integration            ....       1.236 sec  ( 10.4% of F)
    Basis function eval.    ....       0.347 sec  ( 28.1% of XC)
    Density eval.           ....       0.264 sec  ( 21.4% of XC)
    XC-Functional eval.     ....       0.084 sec  (  6.8% of XC)
    XC-Potential eval.      ....       0.340 sec  ( 27.5% of XC)
Diagonalization             ....       0.069 sec  (  0.5%)
Density matrix formation    ....       0.010 sec  (  0.1%)
Population analysis         ....       0.011 sec  (  0.1%)
Initial guess               ....       0.068 sec  (  0.5%)
Orbital Transformation      ....       0.000 sec  (  0.0%)
Orbital Orthonormalization  ....       0.000 sec  (  0.0%)
DIIS solution               ....       0.044 sec  (  0.3%)
SOSCF solution              ....       0.059 sec  (  0.4%)
Grid generation             ....       0.666 sec  (  5.1%)

Maximum memory used throughout the entire SCF-calculation: 55.3 MB


-------------------------------------------------------------------------------
                          DFT DISPERSION CORRECTION                            
                                                                               
                              DFTD3 V3.1  Rev 1                                
                              USING zero damping                               
-------------------------------------------------------------------------------
The omegaB97X-D3 functional is recognized. Fit by Chai et al.
Active option DFTDOPT                   ...         3   

molecular C6(AA) [au] = 2125.138089 


            DFT-D V3
 parameters
 s6 scaling factor         :     1.0000 
 rs6 scaling factor        :     1.2810 
 s8 scaling factor         :     1.0000 
 rs8 scaling factor        :     1.0940 
 Damping factor alpha6     :    14.0000 
 Damping factor alpha8     :    16.0000 
 ad hoc parameters k1-k3   :    16.0000     1.3333    -4.0000 

 Edisp/kcal,au: -2.856943114079  -0.004552828168 
 E6   /kcal   :  -1.166280084 
 E8   /kcal   :  -1.690663030 
 % E8         :  59.177343138 

-------------------------   ----------------
Dispersion correction           -0.004552828
-------------------------   ----------------


-------------------------   --------------------
FINAL SINGLE POINT ENERGY      -251.648796323080
-------------------------   --------------------


                            ***************************************
                            *     ORCA property calculations      *
                            ***************************************

                                    ---------------------
                                    Active property flags
                                    ---------------------
   (+) Dipole Moment


------------------------------------------------------------------------------
                       ORCA ELECTRIC PROPERTIES CALCULATION
------------------------------------------------------------------------------

Dipole Moment Calculation                       ... on
Quadrupole Moment Calculation                   ... off
Polarizability Calculation                      ... off
GBWName                                         ... C1_wt_dlpno_pos.gbw
Electron density file                           ... C1_wt_dlpno_pos.scfp
The origin for moment calculation is the CENTER OF MASS  = ( 7.588788,  5.458560 -8.082985)

-------------
DIPOLE MOMENT
-------------
                                X             Y             Z
Electronic contribution:      1.68162       2.48270      -0.96821
Nuclear contribution   :     -0.93682      -3.08083       1.62582
                        -----------------------------------------
Total Dipole Moment    :      0.74480      -0.59812       0.65761
                        -----------------------------------------
Magnitude (a.u.)       :      1.15971
Magnitude (Debye)      :      2.94776



--------------------
Rotational spectrum 
--------------------
 
Rotational constants in cm-1:     0.191400     0.084268     0.068511 
Rotational constants in MHz :  5738.038424  2526.291061  2053.912421 

 Dipole components along the rotational axes: 
x,y,z [a.u.] :    -0.684635    -0.872262     0.339663 
x,y,z [Debye]:    -1.740203    -2.217114     0.863355 

 

Timings for individual modules:

Sum of individual times         ...       14.132 sec (=   0.236 min)
GTO integral calculation        ...        0.561 sec (=   0.009 min)   4.0 %
SCF iterations                  ...       13.572 sec (=   0.226 min)  96.0 %
                             ****ORCA TERMINATED NORMALLY****
TOTAL RUN TIME: 0 days 0 hours 0 minutes 14 seconds 709 msec
