
                                        *****************
                                        * O   R   C   A *
                                        *****************

                                            #,                                       
                                            ###                                      
                                            ####                                     
                                            #####                                    
                                            ######                                   
                                           ########,                                 
                                     ,,################,,,,,                         
                               ,,#################################,,                 
                          ,,##########################################,,             
                       ,#########################################, ''#####,          
                    ,#############################################,,   '####,        
                  ,##################################################,,,,####,       
                ,###########''''           ''''###############################       
              ,#####''   ,,,,##########,,,,          '''####'''          '####       
            ,##' ,,,,###########################,,,                        '##       
           ' ,,###''''                  '''############,,,                           
         ,,##''                                '''############,,,,        ,,,,,,###''
      ,#''                                            '''#######################'''  
     '                                                          ''''####''''         
             ,#######,   #######,   ,#######,      ##                                
            ,#'     '#,  ##    ##  ,#'     '#,    #''#        ######   ,####,        
            ##       ##  ##   ,#'  ##            #'  '#       #        #'  '#        
            ##       ##  #######   ##           ,######,      #####,   #    #        
            '#,     ,#'  ##    ##  '#,     ,#' ,#      #,         ##   #,  ,#        
             '#######'   ##     ##  '#######'  #'      '#     #####' # '####'        



                  #######################################################
                  #                        -***-                        #
                  #          Department of theory and spectroscopy      #
                  #    Directorship and core code : Frank Neese         #
                  #        Max Planck Institute fuer Kohlenforschung    #
                  #                Kaiser Wilhelm Platz 1               #
                  #                 D-45470 Muelheim/Ruhr               #
                  #                      Germany                        #
                  #                                                     #
                  #                  All rights reserved                #
                  #                        -***-                        #
                  #######################################################


                         Program Version 5.0.0 -  RELEASE  -
                                (SVN: $Rev: 19529$)
                ($Date: 2021-06-28 11:36:33 +0200 (Mo, 28 Jun 2021) $)


 With contributions from (in alphabetic order):
   Daniel Aravena         : Magnetic Suceptibility
   Michael Atanasov       : Ab Initio Ligand Field Theory (pilot matlab implementation)
   Alexander A. Auer      : GIAO ZORA, VPT2 properties, NMR spectrum
   Ute Becker             : Parallelization
   Giovanni Bistoni       : ED, misc. LED, open-shell LED, HFLD
   Martin Brehm           : Molecular dynamics
   Dmytro Bykov           : SCF Hessian
   Vijay G. Chilkuri      : MRCI spin determinant printing, contributions to CSF-ICE
   Dipayan Datta          : RHF DLPNO-CCSD density
   Achintya Kumar Dutta   : EOM-CC, STEOM-CC
   Dmitry Ganyushin       : Spin-Orbit,Spin-Spin,Magnetic field MRCI
   Miquel Garcia          : C-PCM Hessian, Gaussian charge scheme
   Yang Guo               : DLPNO-NEVPT2, F12-NEVPT2, CIM, IAO-localization
   Andreas Hansen         : Spin unrestricted coupled pair/coupled cluster methods
   Benjamin Helmich-Paris : MC-RPA, TRAH-SCF, COSX integrals
   Lee Huntington         : MR-EOM, pCC
   Robert Izsak           : Overlap fitted RIJCOSX, COSX-SCS-MP3, EOM
   Marcus Kettner         : VPT2
   Christian Kollmar      : KDIIS, OOCD, Brueckner-CCSD(T), CCSD density, CASPT2, CASPT2-K
   Simone Kossmann        : Meta GGA functionals, TD-DFT gradient, OOMP2, MP2 Hessian
   Martin Krupicka        : Initial AUTO-CI
   Lucas Lang             : DCDCAS
   Marvin Lechner         : AUTO-CI (C++ implementation), FIC-MRCC
   Dagmar Lenk            : GEPOL surface, SMD
   Dimitrios Liakos       : Extrapolation schemes; Compound Job, initial MDCI parallelization
   Dimitrios Manganas     : Further ROCIS development; embedding schemes
   Dimitrios Pantazis     : SARC Basis sets
   Anastasios Papadopoulos: AUTO-CI, single reference methods and gradients
   Taras Petrenko         : DFT Hessian,TD-DFT gradient, ASA, ECA, R-Raman, ABS, FL, XAS/XES, NRVS
   Peter Pinski           : DLPNO-MP2, DLPNO-MP2 Gradient
   Christoph Reimann      : Effective Core Potentials
   Marius Retegan         : Local ZFS, SOC
   Christoph Riplinger    : Optimizer, TS searches, QM/MM, DLPNO-CCSD(T), (RO)-DLPNO pert. Triples
   Tobias Risthaus        : Range-separated hybrids, TD-DFT gradient, RPA, STAB
   Michael Roemelt        : Original ROCIS implementation
   Masaaki Saitow         : Open-shell DLPNO-CCSD energy and density
   Barbara Sandhoefer     : DKH picture change effects
   Avijit Sen             : IP-ROCIS
   Kantharuban Sivalingam : CASSCF convergence, NEVPT2, FIC-MRCI
   Bernardo de Souza      : ESD, SOC TD-DFT
   Georgi Stoychev        : AutoAux, RI-MP2 NMR
   Willem Van den Heuvel  : Paramagnetic NMR
   Boris Wezisla          : Elementary symmetry handling
   Frank Wennmohs         : Technical directorship


 We gratefully acknowledge several colleagues who have allowed us to
 interface, adapt or use parts of their codes:
   Stefan Grimme, W. Hujo, H. Kruse, P. Pracht,  : VdW corrections, initial TS optimization,
                  C. Bannwarth, S. Ehlert          DFT functionals, gCP, sTDA/sTD-DF
   Ed Valeev, F. Pavosevic, A. Kumar             : LibInt (2-el integral package), F12 methods
   Garnet Chan, S. Sharma, J. Yang, R. Olivares  : DMRG
   Ulf Ekstrom                                   : XCFun DFT Library
   Mihaly Kallay                                 : mrcc  (arbitrary order and MRCC methods)
   Jiri Pittner, Ondrej Demel                    : Mk-CCSD
   Frank Weinhold                                : gennbo (NPA and NBO analysis)
   Christopher J. Cramer and Donald G. Truhlar   : smd solvation model
   Lars Goerigk                                  : TD-DFT with DH, B97 family of functionals
   V. Asgeirsson, H. Jonsson                     : NEB implementation
   FAccTs GmbH                                   : IRC, NEB, NEB-TS, DLPNO-Multilevel, CI-OPT
                                                   MM, QMMM, 2- and 3-layer-ONIOM, Crystal-QMMM,
                                                   LR-CPCM, SF, NACMEs, symmetry and pop. for TD-DFT,
                                                   nearIR, NL-DFT gradient (VV10), updates on ESD,
                                                   ML-optimized integration grids
   S Lehtola, MJT Oliveira, MAL Marques          : LibXC Library
   Liviu Ungur et al                             : ANISO software


 Your calculation uses the libint2 library for the computation of 2-el integrals
 For citations please refer to: http://libint.valeyev.net

 Your ORCA version has been built with support for libXC version: 5.1.0
 For citations please refer to: https://tddft.org/programs/libxc/

 This ORCA versions uses:
   CBLAS   interface :  Fast vector & matrix operations
   LAPACKE interface :  Fast linear algebra routines
   SCALAPACK package :  Parallel linear algebra routines
   Shared memory     :  Shared parallel matrices
   BLAS/LAPACK       :  OpenBLAS 0.3.15  USE64BITINT DYNAMIC_ARCH NO_AFFINITY Haswell SINGLE_THREADED
        Core in use  :  Haswell
   Copyright (c) 2011-2014, The OpenBLAS Project


Your calculation utilizes the atom-pairwise dispersion correction
with the Becke-Johnson damping scheme (D3BJ)
Cite in your paper:
S.Grimme, S.Ehrlich, L.Goerigk, J Comput Chem, (2011), 32, 1456–1465 
S.Grimme, J.Antony, S.Ehrlich and H.Krieg, J.Chem.Phys., 132, (2010), 154104 
   

================================================================================

----- Orbital basis set information -----
Your calculation utilizes the basis: def2-SVPD
   F. Weigend and R. Ahlrichs, Phys. Chem. Chem. Phys. 7, 3297 (2005).
   D. Rappoport and F. Furche, J. Chem. Phys. 133 134105 (2010).

----- AuxJ basis set information -----
Your calculation utilizes the auxiliary basis: def2/J
   F. Weigend, Phys. Chem. Chem. Phys. 8, 1057 (2006).

================================================================================
                                        WARNINGS
                       Please study these warnings very carefully!
================================================================================



WARNING: Found flag for RIJCOSX approximation but no HF exchange needed!
  ===> : RIJCOSX  will be disabled and Split-RI-J is turned on

INFO   : the flag for use of the SHARK integral package has been found!

================================================================================
                                       INPUT FILE
================================================================================
NAME = SVPD_PBE_C2_wt_dlpno_neg.com
|  1> !PBE D3BJ RIJCOSX def2-SVPD def2/J TightSCF
|  2> *xyz 0 1
|  3> C          4.93020       -7.37532       -2.64962
|  4> C          3.84189       -6.95161       -3.63283
|  5> H          3.45814       -5.95442       -3.40712
|  6> H          2.98848       -7.64361       -3.56708
|  7> S          4.31812       -6.91593       -5.36869
|  8> O          5.40615       -5.89948       -5.51297
|  9> F          3.11191       -6.44508       -6.04379
| 10> O          4.76340       -8.23942       -5.69863
| 11> H          5.27901       -8.35440       -2.90385
| 12> H          4.53000       -7.38577       -1.65734
| 13> H          5.74437       -6.68276       -2.69856
| 14> *
| 15> 
| 16> %MaxCore 64000
| 17> 
| 18> %pal nprocs 4
| 19> end  
| 20> 
| 21> %scf
| 22>   MaxIter 150
| 23> end
| 24> 
| 25> 
| 26>                          ****END OF INPUT****
================================================================================

                       ****************************
                       * Single Point Calculation *
                       ****************************

---------------------------------
CARTESIAN COORDINATES (ANGSTROEM)
---------------------------------
  C      4.930200   -7.375320   -2.649620
  C      3.841890   -6.951610   -3.632830
  H      3.458140   -5.954420   -3.407120
  H      2.988480   -7.643610   -3.567080
  S      4.318120   -6.915930   -5.368690
  O      5.406150   -5.899480   -5.512970
  F      3.111910   -6.445080   -6.043790
  O      4.763400   -8.239420   -5.698630
  H      5.279010   -8.354400   -2.903850
  H      4.530000   -7.385770   -1.657340
  H      5.744370   -6.682760   -2.698560

----------------------------
CARTESIAN COORDINATES (A.U.)
----------------------------
  NO LB      ZA    FRAG     MASS         X           Y           Z
   0 C     6.0000    0    12.011    9.316728  -13.937335   -5.007056
   1 C     6.0000    0    12.011    7.260120  -13.136639   -6.865054
   2 H     1.0000    0     1.008    6.534938  -11.252223   -6.438524
   3 H     1.0000    0     1.008    5.647409  -14.444330   -6.740804
   4 S    16.0000    0    32.060    8.160064  -13.069214  -10.145354
   5 O     8.0000    0    15.999   10.216143  -11.148402  -10.418003
   6 F     9.0000    0    18.998    5.880658  -12.179436  -11.421108
   7 O     8.0000    0    15.999    9.001521  -15.570247  -10.768850
   8 H     1.0000    0     1.008    9.975883  -15.787528   -5.487481
   9 H     1.0000    0     1.008    8.560459  -13.957083   -3.131919
  10 H     1.0000    0     1.008   10.855286  -12.628586   -5.099539

--------------------------------
INTERNAL COORDINATES (ANGSTROEM)
--------------------------------
 C      0   0   0     0.000000000000     0.00000000     0.00000000
 C      1   0   0     1.526646889199     0.00000000     0.00000000
 H      2   1   0     1.092060878660   111.76657198     0.00000000
 H      2   1   3     1.100679649398   109.86246394   241.61204958
 S      2   1   3     1.800354969138   115.96941522   121.52143752
 O      5   2   1     1.495926669927   107.38869656   297.68884658
 F      5   2   1     1.460274733261   103.51153753   181.67714202
 O      5   2   1     1.434838130975   106.58999943    58.18902687
 H      1   2   3     1.069999511869   109.47100154   179.99990268
 H      1   2   3     1.069994785455   109.47138145    60.00004103
 H      1   2   3     1.070003395368   109.47124566   300.00008424

---------------------------
INTERNAL COORDINATES (A.U.)
---------------------------
 C      0   0   0     0.000000000000     0.00000000     0.00000000
 C      1   0   0     2.884944523788     0.00000000     0.00000000
 H      2   1   0     2.063695982237   111.76657198     0.00000000
 H      2   1   3     2.079983098544   109.86246394   241.61204958
 S      2   1   3     3.402177835515   115.96941522   121.52143752
 O      5   2   1     2.826891722592   107.38869656   297.68884658
 F      5   2   1     2.759519326148   103.51153753   181.67714202
 O      5   2   1     2.711451114050   106.58999943    58.18902687
 H      1   2   3     2.022006040862   109.47100154   179.99990268
 H      1   2   3     2.021997109233   109.47138145    60.00004103
 H      1   2   3     2.022013379612   109.47124566   300.00008424

---------------------
BASIS SET INFORMATION
---------------------
There are 5 groups of distinct atoms

 Group   1 Type C   : 8s4p2d contracted to 4s2p2d pattern {5111/31/11}
 Group   2 Type H   : 4s2p contracted to 2s2p pattern {31/11}
 Group   3 Type S   : 11s8p2d contracted to 5s4p2d pattern {53111/5111/11}
 Group   4 Type O   : 8s5p2d contracted to 4s3p2d pattern {5111/311/11}
 Group   5 Type F   : 8s5p2d contracted to 4s3p2d pattern {5111/311/11}

Atom   0C    basis set group =>   1
Atom   1C    basis set group =>   1
Atom   2H    basis set group =>   2
Atom   3H    basis set group =>   2
Atom   4S    basis set group =>   3
Atom   5O    basis set group =>   4
Atom   6F    basis set group =>   5
Atom   7O    basis set group =>   4
Atom   8H    basis set group =>   2
Atom   9H    basis set group =>   2
Atom  10H    basis set group =>   2
---------------------------------
AUXILIARY/J BASIS SET INFORMATION
---------------------------------
There are 5 groups of distinct atoms

 Group   1 Type C   : 12s5p4d2f1g contracted to 6s4p3d1f1g pattern {711111/2111/211/2/1}
 Group   2 Type H   : 5s2p1d contracted to 3s1p1d pattern {311/2/1}
 Group   3 Type S   : 14s5p5d2f1g contracted to 8s4p3d1f1g pattern {71111111/2111/311/2/1}
 Group   4 Type O   : 12s5p4d2f1g contracted to 6s4p3d1f1g pattern {711111/2111/211/2/1}
 Group   5 Type F   : 12s5p4d2f1g contracted to 6s4p3d1f1g pattern {711111/2111/211/2/1}

Atom   0C    basis set group =>   1
Atom   1C    basis set group =>   1
Atom   2H    basis set group =>   2
Atom   3H    basis set group =>   2
Atom   4S    basis set group =>   3
Atom   5O    basis set group =>   4
Atom   6F    basis set group =>   5
Atom   7O    basis set group =>   4
Atom   8H    basis set group =>   2
Atom   9H    basis set group =>   2
Atom  10H    basis set group =>   2


           ************************************************************
           *        Program running with 4 parallel MPI-processes     *
           *              working on a common directory               *
           ************************************************************
------------------------------------------------------------------------------
                           ORCA GTO INTEGRAL CALCULATION
                           -- RI-GTO INTEGRALS CHOSEN --
------------------------------------------------------------------------------
------------------------------------------------------------------------------
                   ___                                                        
                  /   \      - P O W E R E D   B Y -                         
                 /     \                                                     
                 |  |  |   _    _      __       _____    __    __             
                 |  |  |  | |  | |    /  \     |  _  \  |  |  /  |          
                  \  \/   | |  | |   /    \    | | | |  |  | /  /          
                 / \  \   | |__| |  /  /\  \   | |_| |  |  |/  /          
                |  |  |   |  __  | /  /__\  \  |    /   |      \           
                |  |  |   | |  | | |   __   |  |    \   |  |\   \          
                \     /   | |  | | |  |  |  |  | |\  \  |  | \   \       
                 \___/    |_|  |_| |__|  |__|  |_| \__\ |__|  \__/        
                                                                              
                      - O R C A' S   B I G   F R I E N D -                    
                                      &                                       
                       - I N T E G R A L  F E E D E R -                       
                                                                              
 v1 FN, 2020, v2 2021                                                         
------------------------------------------------------------------------------


Reading SHARK input file SVPD_PBE_C2_wt_dlpno_neg.SHARKINP.tmp ... ok
----------------------
SHARK INTEGRAL PACKAGE
----------------------

Number of atoms                             ...     11
Number of basis functions                   ...    176
Number of shells                            ...     74
Maximum angular momentum                    ...      2
Integral batch strategy                     ... SHARK/LIBINT Hybrid
RI-J (if used) integral strategy            ... SPLIT-RIJ (Revised 2003 algorithm where possible)
Printlevel                                  ...      1
Contraction scheme used                     ... SEGMENTED contraction
Coulomb Range Separation                    ... NOT USED
Exchange Range Separation                   ... NOT USED
Finite Nucleus Model                        ... NOT USED
Auxiliary Coulomb fitting basis             ... AVAILABLE
   # of basis functions in Aux-J            ...    351
   # of shells in Aux-J                     ...    117
   Maximum angular momentum in Aux-J        ...      4
Auxiliary J/K fitting basis                 ... NOT available
Auxiliary Correlation fitting basis         ... NOT available
Auxiliary 'external' fitting basis          ... NOT available
Integral threshold                          ...     2.500000e-11
Primitive cut-off                           ...     2.500000e-12
Primitive pair pre-selection threshold      ...     2.500000e-12

Calculating pre-screening integrals         ... done (  0.0 sec) Dimension = 74
Organizing shell pair data                  ... done (  0.0 sec)
Shell pair information
Total number of shell pairs                 ...      2775
Shell pairs after pre-screening             ...      2724
Total number of primitive shell pairs       ...      7853
Primitive shell pairs kept                  ...      6370
          la=0 lb=0:    609 shell pairs
          la=1 lb=0:    926 shell pairs
          la=1 lb=1:    374 shell pairs
          la=2 lb=0:    416 shell pairs
          la=2 lb=1:    321 shell pairs
          la=2 lb=2:     78 shell pairs

Calculating one electron integrals          ... done (  0.0 sec)
Calculating RI/J V-Matrix + Cholesky decomp.... done (  0.0 sec)
Calculating Nuclear repulsion               ... done (  0.0 sec) ENN=    360.922481652448 Eh

SHARK setup successfully completed in   0.2 seconds

Maximum memory used throughout the entire GTOINT-calculation: 8.9 MB


           ************************************************************
           *        Program running with 4 parallel MPI-processes     *
           *              working on a common directory               *
           ************************************************************
-------------------------------------------------------------------------------
                                 ORCA SCF
-------------------------------------------------------------------------------

------------
SCF SETTINGS
------------
Hamiltonian:
 Density Functional     Method          .... DFT(GTOs)
 Exchange Functional    Exchange        .... PBE
   PBE kappa parameter   XKappa         ....  0.804000
   PBE mue parameter    XMuePBE         ....  0.219520
 Correlation Functional Correlation     .... PBE
   PBE beta parameter  CBetaPBE         ....  0.066725
 LDA part of GGA corr.  LDAOpt          .... PW91-LDA
 Gradients option       PostSCFGGA      .... off
   Density functional embedding theory  .... OFF
   NL short-range parameter             ....  6.400000
 RI-approximation to the Coulomb term is turned on
   Number of AuxJ basis functions       .... 351


General Settings:
 Integral files         IntName         .... SVPD_PBE_C2_wt_dlpno_neg
 Hartree-Fock type      HFTyp           .... RHF
 Total Charge           Charge          ....    0
 Multiplicity           Mult            ....    1
 Number of Electrons    NEL             ....   58
 Basis Dimension        Dim             ....  176
 Nuclear Repulsion      ENuc            ....    360.9224816524 Eh

Convergence Acceleration:
 DIIS                   CNVDIIS         .... on
   Start iteration      DIISMaxIt       ....    12
   Startup error        DIISStart       ....  0.200000
   # of expansion vecs  DIISMaxEq       ....     5
   Bias factor          DIISBfac        ....   1.050
   Max. coefficient     DIISMaxC        ....  10.000
 Trust-Rad. Augm. Hess. CNVTRAH         .... auto
   Auto Start mean grad. ratio tolernc. ....  1.125000
   Auto Start start iteration           ....    20
   Auto Start num. interpolation iter.  ....    10
   Max. Number of Micro iterations      ....    16
   Max. Number of Macro iterations      .... Maxiter - #DIIS iter
   Number of Davidson start vectors     ....     2
   Converg. threshold I  (grad. norm)   ....   1.000e-05
   Converg. threshold II (energy diff.) ....   1.000e-08
   Grad. Scal. Fac. for Micro threshold ....   0.100
   Minimum threshold for Micro iter.    ....   0.010
   NR start threshold (gradient norm)   ....   0.001
   Initial trust radius                 ....   0.400
   Minimum AH scaling param. (alpha)    ....   1.000
   Maximum AH scaling param. (alpha)    .... 1000.000
   Orbital update algorithm             .... Taylor
   White noise on init. David. guess    .... on
   Maximum white noise                  ....   0.010
   Quad. conv. algorithm                .... NR
 SOSCF                  CNVSOSCF        .... on
   Start iteration      SOSCFMaxIt      ....   150
   Startup grad/error   SOSCFStart      ....  0.003300
 Level Shifting         CNVShift        .... on
   Level shift para.    LevelShift      ....    0.2500
   Turn off err/grad.   ShiftErr        ....    0.0010
 Zerner damping         CNVZerner       .... off
 Static damping         CNVDamp         .... on
   Fraction old density DampFac         ....    0.7000
   Max. Damping (<1)    DampMax         ....    0.9800
   Min. Damping (>=0)   DampMin         ....    0.0000
   Turn off err/grad.   DampErr         ....    0.1000
 Fernandez-Rico         CNVRico         .... off

SCF Procedure:
 Maximum # iterations   MaxIter         ....   150
 SCF integral mode      SCFMode         .... Direct
   Integral package                     .... SHARK and LIBINT hybrid scheme
 Reset frequency        DirectResetFreq ....    20
 Integral Threshold     Thresh          ....  2.500e-11 Eh
 Primitive CutOff       TCut            ....  2.500e-12 Eh

Convergence Tolerance:
 Convergence Check Mode ConvCheckMode   .... Total+1el-Energy
 Convergence forced     ConvForced      .... 0
 Energy Change          TolE            ....  1.000e-08 Eh
 1-El. energy change                    ....  1.000e-05 Eh
 Orbital Gradient       TolG            ....  1.000e-05
 Orbital Rotation angle TolX            ....  1.000e-05
 DIIS Error             TolErr          ....  5.000e-07


Diagonalization of the overlap matrix:
Smallest eigenvalue                        ... 2.523e-04
Time for diagonalization                   ...    0.008 sec
Threshold for overlap eigenvalues          ... 1.000e-08
Number of eigenvalues below threshold      ... 0
Time for construction of square roots      ...    0.006 sec
Total time needed                          ...    0.015 sec

Time for model grid setup =    0.083 sec

------------------------------
INITIAL GUESS: MODEL POTENTIAL
------------------------------
Loading Hartree-Fock densities                     ... done
Calculating cut-offs                               ... done
Initializing the effective Hamiltonian             ... done
Setting up the integral package (SHARK)            ... done
Starting the Coulomb interaction                   ... done (   0.0 sec)
Reading the grid                                   ... done
Mapping shells                                     ... done
Starting the XC term evaluation                    ... done (   0.1 sec)
  promolecular density results
     # of electrons  =     57.997228320
     EX              =    -63.041598237
     EC              =     -2.061405305
     EX+EC           =    -65.103003542
Transforming the Hamiltonian                       ... done (   0.0 sec)
Diagonalizing the Hamiltonian                      ... done (   0.0 sec)
Back transforming the eigenvectors                 ... done (   0.0 sec)
Now organizing SCF variables                       ... done
                      ------------------
                      INITIAL GUESS DONE (   0.2 sec)
                      ------------------
-------------------
DFT GRID GENERATION
-------------------

General Integration Accuracy     IntAcc      ... 4.388
Radial Grid Type                 RadialGrid  ... OptM3 with GC (2021)
Angular Grid (max. ang.)         AngularGrid ... 4 (Lebedev-302)
Angular grid pruning method      GridPruning ... 4 (adaptive)
Weight generation scheme         WeightScheme... Becke
Basis function cutoff            BFCut       ... 1.0000e-11
Integration weight cutoff        WCut        ... 1.0000e-14
Angular grids for H and He will be reduced by one unit
Partially contracted basis set               ... off
Rotationally invariant grid construction     ... off

Total number of grid points                  ...    56064
Total number of batches                      ...      882
Average number of points per batch           ...       63
Average number of grid points per atom       ...     5097
Time for grid setup =    0.397 sec

--------------
SCF ITERATIONS
--------------
ITER       Energy         Delta-E        Max-DP      RMS-DP      [F,P]     Damp
               ***  Starting incremental Fock matrix formation  ***
  0   -726.4174188958   0.000000000000 0.26618378  0.00415129  0.2854684 0.7000
  1   -726.5985697508  -0.181150854967 0.09155451  0.00189456  0.0703005 0.7000
                               ***Turning on DIIS***
  2   -726.6365823325  -0.038012581745 0.07214045  0.00189320  0.0284739 0.0000
  3   -726.7483571076  -0.111774775026 0.05192113  0.00127924  0.0455593 0.0000
  4   -726.7538714029  -0.005514295308 0.03043727  0.00053565  0.0394731 0.0000
  5   -726.7584504084  -0.004579005549 0.00830705  0.00019900  0.0081714 0.0000
  6   -726.7587871342  -0.000336725741 0.00205670  0.00006516  0.0040233 0.0000
                      *** Initiating the SOSCF procedure ***
                           *** Shutting down DIIS ***
                      *** Re-Reading the Fockian *** 
                      *** Removing any level shift *** 
ITER      Energy       Delta-E        Grad      Rot      Max-DP    RMS-DP
  7   -726.75883489  -0.0000477564  0.000215  0.000215  0.000966  0.000024
               *** Restarting incremental Fock matrix formation ***
  8   -726.75883822  -0.0000033286  0.000196  0.000304  0.001064  0.000022
  9   -726.75883612   0.0000020992  0.000349  0.000201  0.000660  0.000013
 10   -726.75883896  -0.0000028392  0.000032  0.000091  0.000268  0.000007
 11   -726.75883868   0.0000002758  0.000085  0.000069  0.000195  0.000005
 12   -726.75883901  -0.0000003251  0.000007  0.000021  0.000071  0.000002
 13   -726.75883900   0.0000000110  0.000014  0.000016  0.000057  0.000001
 14   -726.75883901  -0.0000000138  0.000004  0.000007  0.000019  0.000001
 15   -726.75883901  -0.0000000018  0.000006  0.000006  0.000017  0.000000
                 **** Energy Check signals convergence ****
              ***Rediagonalizing the Fockian in SOSCF/NRSCF***

               *****************************************************
               *                     SUCCESS                       *
               *           SCF CONVERGED AFTER  16 CYCLES          *
               *****************************************************


----------------
TOTAL SCF ENERGY
----------------

Total Energy       :         -726.75883901 Eh          -19776.11341 eV

Components:
Nuclear Repulsion  :          360.92248165 Eh            9821.20003 eV
Electronic Energy  :        -1087.68132066 Eh          -29597.31343 eV
One Electron Energy:        -1716.37748518 Eh          -46705.00581 eV
Two Electron Energy:          628.69616451 Eh           17107.69237 eV

Virial components:
Potential Energy   :        -1450.05290202 Eh          -39457.94547 eV
Kinetic Energy     :          723.29406301 Eh           19681.83206 eV
Virial Ratio       :            2.00479027


DFT components:
N(Alpha)           :       29.000062953304 electrons
N(Beta)            :       29.000062953304 electrons
N(Total)           :       58.000125906607 electrons
E(X)               :      -63.514580805036 Eh       
E(C)               :       -2.064209477588 Eh       
E(XC)              :      -65.578790282624 Eh       
DFET-embed. en.    :        0.000000000000 Eh       

---------------
SCF CONVERGENCE
---------------

  Last Energy change         ...    8.7778e-10  Tolerance :   1.0000e-08
  Last MAX-Density change    ...    4.3046e-06  Tolerance :   1.0000e-07
  Last RMS-Density change    ...    1.7953e-07  Tolerance :   5.0000e-09
  Last Orbital Gradient      ...    5.1272e-07  Tolerance :   1.0000e-05
  Last Orbital Rotation      ...    9.7536e-07  Tolerance :   1.0000e-05

             **** THE GBW FILE WAS UPDATED (SVPD_PBE_C2_wt_dlpno_neg.gbw) ****
             **** DENSITY SVPD_PBE_C2_wt_dlpno_neg.scfp WAS UPDATED ****
             **** ENERGY FILE WAS UPDATED (SVPD_PBE_C2_wt_dlpno_neg.en.tmp) ****
             **** THE GBW FILE WAS UPDATED (SVPD_PBE_C2_wt_dlpno_neg.gbw) ****
             **** DENSITY SVPD_PBE_C2_wt_dlpno_neg.scfp WAS UPDATED ****
----------------
ORBITAL ENERGIES
----------------

  NO   OCC          E(Eh)            E(eV) 
   0   2.0000     -88.309218     -2403.0160 
   1   2.0000     -24.380531      -663.4280 
   2   2.0000     -18.781796      -511.0787 
   3   2.0000     -18.765669      -510.6398 
   4   2.0000      -9.962154      -271.0840 
   5   2.0000      -9.918764      -269.9033 
   6   2.0000      -7.914421      -215.3623 
   7   2.0000      -5.945571      -161.7872 
   8   2.0000      -5.939279      -161.6160 
   9   2.0000      -5.937717      -161.5735 
  10   2.0000      -1.257185       -34.2097 
  11   2.0000      -1.020850       -27.7788 
  12   2.0000      -0.916064       -24.9274 
  13   2.0000      -0.749617       -20.3981 
  14   2.0000      -0.667028       -18.1507 
  15   2.0000      -0.609602       -16.5881 
  16   2.0000      -0.522325       -14.2132 
  17   2.0000      -0.514183       -13.9916 
  18   2.0000      -0.497939       -13.5496 
  19   2.0000      -0.447304       -12.1718 
  20   2.0000      -0.433384       -11.7930 
  21   2.0000      -0.396759       -10.7964 
  22   2.0000      -0.389515       -10.5992 
  23   2.0000      -0.369696       -10.0599 
  24   2.0000      -0.348182        -9.4745 
  25   2.0000      -0.340779        -9.2731 
  26   2.0000      -0.295365        -8.0373 
  27   2.0000      -0.280366        -7.6292 
  28   2.0000      -0.260902        -7.0995 
  29   0.0000      -0.027295        -0.7427 
  30   0.0000      -0.009277        -0.2524 
  31   0.0000       0.016489         0.4487 
  32   0.0000       0.023307         0.6342 
  33   0.0000       0.025533         0.6948 
  34   0.0000       0.032232         0.8771 
  35   0.0000       0.046839         1.2746 
  36   0.0000       0.056382         1.5342 
  37   0.0000       0.060157         1.6370 
  38   0.0000       0.085375         2.3232 
  39   0.0000       0.089683         2.4404 
  40   0.0000       0.091076         2.4783 
  41   0.0000       0.097373         2.6496 
  42   0.0000       0.122202         3.3253 
  43   0.0000       0.123331         3.3560 
  44   0.0000       0.127075         3.4579 
  45   0.0000       0.146901         3.9974 
  46   0.0000       0.149612         4.0711 
  47   0.0000       0.157964         4.2984 
  48   0.0000       0.161172         4.3857 
  49   0.0000       0.167250         4.5511 
  50   0.0000       0.202138         5.5005 
  51   0.0000       0.217246         5.9116 
  52   0.0000       0.218144         5.9360 
  53   0.0000       0.223421         6.0796 
  54   0.0000       0.236326         6.4308 
  55   0.0000       0.241651         6.5757 
  56   0.0000       0.248996         6.7755 
  57   0.0000       0.263684         7.1752 
  58   0.0000       0.271515         7.3883 
  59   0.0000       0.288083         7.8391 
  60   0.0000       0.290540         7.9060 
  61   0.0000       0.302986         8.2447 
  62   0.0000       0.307534         8.3684 
  63   0.0000       0.313621         8.5341 
  64   0.0000       0.320937         8.7331 
  65   0.0000       0.326779         8.8921 
  66   0.0000       0.338546         9.2123 
  67   0.0000       0.344568         9.3762 
  68   0.0000       0.352074         9.5804 
  69   0.0000       0.367580        10.0024 
  70   0.0000       0.380548        10.3552 
  71   0.0000       0.383302        10.4302 
  72   0.0000       0.388757        10.5786 
  73   0.0000       0.427267        11.6265 
  74   0.0000       0.432103        11.7581 
  75   0.0000       0.436568        11.8796 
  76   0.0000       0.437308        11.8998 
  77   0.0000       0.445456        12.1215 
  78   0.0000       0.448174        12.1954 
  79   0.0000       0.459304        12.4983 
  80   0.0000       0.474374        12.9084 
  81   0.0000       0.481845        13.1117 
  82   0.0000       0.484066        13.1721 
  83   0.0000       0.492070        13.3899 
  84   0.0000       0.507808        13.8182 
  85   0.0000       0.531611        14.4659 
  86   0.0000       0.537621        14.6294 
  87   0.0000       0.564517        15.3613 
  88   0.0000       0.573677        15.6105 
  89   0.0000       0.596269        16.2253 
  90   0.0000       0.619510        16.8577 
  91   0.0000       0.643634        17.5142 
  92   0.0000       0.649608        17.6767 
  93   0.0000       0.663031        18.0420 
  94   0.0000       0.667713        18.1694 
  95   0.0000       0.678119        18.4526 
  96   0.0000       0.708408        19.2768 
  97   0.0000       0.720196        19.5975 
  98   0.0000       0.736098        20.0302 
  99   0.0000       0.757111        20.6020 
 100   0.0000       0.771966        21.0063 
 101   0.0000       0.800094        21.7717 
 102   0.0000       0.809369        22.0241 
 103   0.0000       0.869629        23.6638 
 104   0.0000       0.891460        24.2579 
 105   0.0000       0.903950        24.5977 
 106   0.0000       0.922518        25.1030 
 107   0.0000       0.927517        25.2390 
 108   0.0000       0.941513        25.6199 
 109   0.0000       0.957564        26.0567 
 110   0.0000       0.961826        26.1726 
 111   0.0000       0.965660        26.2770 
 112   0.0000       0.967359        26.3232 
 113   0.0000       1.005343        27.3568 
 114   0.0000       1.029113        28.0036 
 115   0.0000       1.064380        28.9633 
 116   0.0000       1.092732        29.7348 
 117   0.0000       1.108902        30.1748 
 118   0.0000       1.173983        31.9457 
 119   0.0000       1.183951        32.2169 
 120   0.0000       1.192899        32.4604 
 121   0.0000       1.211292        32.9609 
 122   0.0000       1.262329        34.3497 
 123   0.0000       1.280902        34.8551 
 124   0.0000       1.336317        36.3630 
 125   0.0000       1.438893        39.1543 
 126   0.0000       1.449543        39.4441 
 127   0.0000       1.477338        40.2004 
 128   0.0000       1.517553        41.2947 
 129   0.0000       1.525659        41.5153 
 130   0.0000       1.545918        42.0666 
 131   0.0000       1.570998        42.7490 
 132   0.0000       1.602595        43.6088 
 133   0.0000       1.608942        43.7815 
 134   0.0000       1.637541        44.5598 
 135   0.0000       1.674278        45.5594 
 136   0.0000       1.687156        45.9098 
 137   0.0000       1.750379        47.6302 
 138   0.0000       1.765482        48.0412 
 139   0.0000       1.792137        48.7665 
 140   0.0000       1.813979        49.3609 
 141   0.0000       1.842504        50.1371 
 142   0.0000       1.915660        52.1277 
 143   0.0000       1.921542        52.2878 
 144   0.0000       1.946112        52.9564 
 145   0.0000       1.954339        53.1803 
 146   0.0000       2.083438        56.6932 
 147   0.0000       2.099364        57.1266 
 148   0.0000       2.159506        58.7631 
 149   0.0000       2.176092        59.2145 
 150   0.0000       2.258795        61.4649 
 151   0.0000       2.343474        63.7692 
 152   0.0000       2.402070        65.3637 
 153   0.0000       2.461126        66.9707 
 154   0.0000       2.549962        69.3880 
 155   0.0000       2.555334        69.5342 
 156   0.0000       2.738507        74.5186 
 157   0.0000       2.749030        74.8049 
 158   0.0000       2.762893        75.1821 
 159   0.0000       2.783489        75.7426 
 160   0.0000       2.800361        76.2017 
 161   0.0000       2.804078        76.3029 
 162   0.0000       2.807889        76.4065 
 163   0.0000       2.849394        77.5360 
 164   0.0000       2.910450        79.1974 
 165   0.0000       2.946994        80.1918 
 166   0.0000       2.958238        80.4977 
 167   0.0000       3.041570        82.7653 
 168   0.0000       3.071371        83.5763 
 169   0.0000       3.167923        86.2036 
 170   0.0000       3.175351        86.4057 
 171   0.0000       3.207051        87.2683 
 172   0.0000       3.214865        87.4809 
 173   0.0000       3.248707        88.4018 
 174   0.0000       3.449331        93.8611 
 175   0.0000       3.630178        98.7822 

                    ********************************
                    * MULLIKEN POPULATION ANALYSIS *
                    ********************************

-----------------------
MULLIKEN ATOMIC CHARGES
-----------------------
   0 C :    0.777751
   1 C :   -0.432044
   2 H :   -0.010113
   3 H :    0.050226
   4 S :    1.383644
   5 O :   -0.651981
   6 F :   -0.369117
   7 O :   -0.600340
   8 H :   -0.037150
   9 H :   -0.069169
  10 H :   -0.041708
Sum of atomic charges:   -0.0000000

--------------------------------
MULLIKEN REDUCED ORBITAL CHARGES
--------------------------------
  0 C s       :     2.393470  s :     2.393470
      pz      :     0.833344  p :     2.697711
      px      :     0.921484
      py      :     0.942883
      dz2     :     0.007552  d :     0.131067
      dxz     :     0.014994
      dyz     :     0.007858
      dx2y2   :     0.038829
      dxy     :     0.061834
  1 C s       :     2.913287  s :     2.913287
      pz      :     0.926537  p :     3.038410
      px      :     1.098718
      py      :     1.013155
      dz2     :     0.173988  d :     0.480346
      dxz     :     0.051041
      dyz     :     0.045834
      dx2y2   :     0.088378
      dxy     :     0.121105
  2 H s       :     0.954909  s :     0.954909
      pz      :     0.002575  p :     0.055204
      px      :     0.007839
      py      :     0.044790
  3 H s       :     0.907077  s :     0.907077
      pz      :    -0.003513  p :     0.042697
      px      :     0.035313
      py      :     0.010896
  4 S s       :     5.038524  s :     5.038524
      pz      :     3.086992  p :     8.788134
      px      :     2.819796
      py      :     2.881347
      dz2     :     0.136537  d :     0.789698
      dxz     :     0.108678
      dyz     :     0.159328
      dx2y2   :     0.193435
      dxy     :     0.191719
  5 O s       :     3.968488  s :     3.968488
      pz      :     1.718351  p :     4.662589
      px      :     1.409399
      py      :     1.534839
      dz2     :     0.002642  d :     0.020904
      dxz     :     0.003504
      dyz     :     0.005356
      dx2y2   :     0.006785
      dxy     :     0.002618
  6 F s       :     3.972397  s :     3.972397
      pz      :     1.840518  p :     5.372342
      px      :     1.652529
      py      :     1.879295
      dz2     :     0.006514  d :     0.024378
      dxz     :     0.004956
      dyz     :     0.004764
      dx2y2   :     0.004626
      dxy     :     0.003518
  7 O s       :     3.950131  s :     3.950131
      pz      :     1.694371  p :     4.626251
      px      :     1.638957
      py      :     1.292924
      dz2     :     0.003159  d :     0.023957
      dxz     :     0.002859
      dyz     :     0.006517
      dx2y2   :     0.006282
      dxy     :     0.005141
  8 H s       :     0.980965  s :     0.980965
      pz      :     0.009402  p :     0.056186
      px      :    -0.015752
      py      :     0.062535
  9 H s       :     1.058138  s :     1.058138
      pz      :     0.031395  p :     0.011031
      px      :     0.010274
      py      :    -0.030638
 10 H s       :     0.988432  s :     0.988432
      pz      :    -0.003324  p :     0.053275
      px      :     0.019767
      py      :     0.036832


                     *******************************
                     * LOEWDIN POPULATION ANALYSIS *
                     *******************************

----------------------
LOEWDIN ATOMIC CHARGES
----------------------
   0 C :    0.145706
   1 C :   -0.112810
   2 H :    0.020822
   3 H :    0.026560
   4 S :    1.072925
   5 O :   -0.459616
   6 F :   -0.251508
   7 O :   -0.436103
   8 H :   -0.002456
   9 H :   -0.002336
  10 H :   -0.001186

-------------------------------
LOEWDIN REDUCED ORBITAL CHARGES
-------------------------------
  0 C s       :     2.694965  s :     2.694965
      pz      :     0.902333  p :     2.769633
      px      :     0.917375
      py      :     0.949925
      dz2     :     0.105680  d :     0.389697
      dxz     :     0.079319
      dyz     :     0.040709
      dx2y2   :     0.064783
      dxy     :     0.099205
  1 C s       :     2.728749  s :     2.728749
      pz      :     0.836678  p :     2.739494
      px      :     0.942869
      py      :     0.959948
      dz2     :     0.196183  d :     0.644566
      dxz     :     0.134913
      dyz     :     0.100426
      dx2y2   :     0.080682
      dxy     :     0.132361
  2 H s       :     0.718799  s :     0.718799
      pz      :     0.066310  p :     0.260378
      px      :     0.072212
      py      :     0.121856
  3 H s       :     0.715719  s :     0.715719
      pz      :     0.062456  p :     0.257721
      px      :     0.100069
      py      :     0.095196
  4 S s       :     4.678669  s :     4.678669
      pz      :     2.825001  p :     8.414397
      px      :     2.762846
      py      :     2.826550
      dz2     :     0.343422  d :     1.834009
      dxz     :     0.325154
      dyz     :     0.318293
      dx2y2   :     0.401374
      dxy     :     0.445766
  5 O s       :     3.598763  s :     3.598763
      pz      :     1.615947  p :     4.634756
      px      :     1.463947
      py      :     1.554862
      dz2     :     0.030054  d :     0.226097
      dxz     :     0.038322
      dyz     :     0.029148
      dx2y2   :     0.063812
      dxy     :     0.064760
  6 F s       :     3.710831  s :     3.710831
      pz      :     1.791442  p :     5.301487
      px      :     1.689614
      py      :     1.820432
      dz2     :     0.048087  d :     0.239190
      dxz     :     0.058599
      dyz     :     0.021248
      dx2y2   :     0.052376
      dxy     :     0.058880
  7 O s       :     3.569234  s :     3.569234
      pz      :     1.601141  p :     4.619546
      px      :     1.565532
      py      :     1.452873
      dz2     :     0.035665  d :     0.247323
      dxz     :     0.017675
      dyz     :     0.061631
      dx2y2   :     0.063429
      dxy     :     0.068922
  8 H s       :     0.722232  s :     0.722232
      pz      :     0.082735  p :     0.280225
      px      :     0.073747
      py      :     0.123743
  9 H s       :     0.729778  s :     0.729778
      pz      :     0.118651  p :     0.272558
      px      :     0.078988
      py      :     0.074919
 10 H s       :     0.722963  s :     0.722963
      pz      :     0.075959  p :     0.278223
      px      :     0.101996
      py      :     0.100268


                      *****************************
                      * MAYER POPULATION ANALYSIS *
                      *****************************

  NA   - Mulliken gross atomic population
  ZA   - Total nuclear charge
  QA   - Mulliken gross atomic charge
  VA   - Mayer's total valence
  BVA  - Mayer's bonded valence
  FA   - Mayer's free valence

  ATOM       NA         ZA         QA         VA         BVA        FA
  0 C      5.2222     6.0000     0.7778     3.9179     3.9179    -0.0000
  1 C      6.4320     6.0000    -0.4320     5.0862     5.0862    -0.0000
  2 H      1.0101     1.0000    -0.0101     1.1636     1.1636    -0.0000
  3 H      0.9498     1.0000     0.0502     1.1163     1.1163    -0.0000
  4 S     14.6164    16.0000     1.3836     4.7739     4.7739    -0.0000
  5 O      8.6520     8.0000    -0.6520     1.7057     1.7057     0.0000
  6 F      9.3691     9.0000    -0.3691     0.8394     0.8394    -0.0000
  7 O      8.6003     8.0000    -0.6003     1.7883     1.7883     0.0000
  8 H      1.0372     1.0000    -0.0372     1.1296     1.1296    -0.0000
  9 H      1.0692     1.0000    -0.0692     0.9850     0.9850    -0.0000
 10 H      1.0417     1.0000    -0.0417     1.1201     1.1201    -0.0000

  Mayer bond orders larger than 0.100000
B(  0-C ,  1-C ) :   1.4002 B(  0-C ,  8-H ) :   0.7989 B(  0-C ,  9-H ) :   0.7288 
B(  0-C , 10-H ) :   0.8102 B(  1-C ,  2-H ) :   0.9718 B(  1-C ,  3-H ) :   0.9396 
B(  1-C ,  4-S ) :   0.9504 B(  1-C ,  8-H ) :   0.2067 B(  1-C ,  9-H ) :   0.2269 
B(  1-C , 10-H ) :   0.2019 B(  4-S ,  5-O ) :   1.4919 B(  4-S ,  6-F ) :   0.7019 
B(  4-S ,  7-O ) :   1.5389 

-------
TIMINGS
-------

Total SCF time: 0 days 0 hours 0 min 6 sec 

Total time                  ....       6.048 sec
Sum of individual times     ....       5.877 sec  ( 97.2%)

Fock matrix formation       ....       5.105 sec  ( 84.4%)
  Split-RI-J                ....       1.171 sec  ( 22.9% of F)
  XC integration            ....       3.889 sec  ( 76.2% of F)
    Basis function eval.    ....       1.266 sec  ( 32.6% of XC)
    Density eval.           ....       0.897 sec  ( 23.1% of XC)
    XC-Functional eval.     ....       0.233 sec  (  6.0% of XC)
    XC-Potential eval.      ....       1.174 sec  ( 30.2% of XC)
Diagonalization             ....       0.062 sec  (  1.0%)
Density matrix formation    ....       0.006 sec  (  0.1%)
Population analysis         ....       0.008 sec  (  0.1%)
Initial guess               ....       0.126 sec  (  2.1%)
Orbital Transformation      ....       0.000 sec  (  0.0%)
Orbital Orthonormalization  ....       0.000 sec  (  0.0%)
DIIS solution               ....       0.039 sec  (  0.6%)
SOSCF solution              ....       0.051 sec  (  0.8%)
Grid generation             ....       0.480 sec  (  7.9%)

Maximum memory used throughout the entire SCF-calculation: 19.2 MB


-------------------------------------------------------------------------------
                          DFT DISPERSION CORRECTION                            
                                                                               
                              DFTD3 V3.1  Rev 1                                
                          USING Becke-Johnson damping                          
-------------------------------------------------------------------------------
The PBE functional is recognized
Active option DFTDOPT                   ...         4   

molecular C6(AA) [au] = 1445.717713 


            DFT-D V3
 parameters
 s6 scaling factor         :     1.0000 
 a1 scaling factor         :     0.4289 
 s8 scaling factor         :     0.7875 
 a2 scaling factor         :     4.4407 
 ad hoc parameters k1-k3   :    16.0000     1.3333    -4.0000 

 Edisp/kcal,au: -5.765720425998  -0.009188259380 
 E6   /kcal   :  -4.006175539 
 E8   /kcal   :  -1.759544887 
 % E8         :  30.517346602 

-------------------------   ----------------
Dispersion correction           -0.009188259
-------------------------   ----------------


-------------------------   --------------------
FINAL SINGLE POINT ENERGY      -726.768027271538
-------------------------   --------------------


                            ***************************************
                            *     ORCA property calculations      *
                            ***************************************

                                    ---------------------
                                    Active property flags
                                    ---------------------
   (+) Dipole Moment


------------------------------------------------------------------------------
                       ORCA ELECTRIC PROPERTIES CALCULATION
------------------------------------------------------------------------------

Dipole Moment Calculation                       ... on
Quadrupole Moment Calculation                   ... off
Polarizability Calculation                      ... off
GBWName                                         ... SVPD_PBE_C2_wt_dlpno_neg.gbw
Electron density file                           ... SVPD_PBE_C2_wt_dlpno_neg.scfp
The origin for moment calculation is the CENTER OF MASS  = ( 8.221756, -13.125951 -9.373304)

-------------
DIPOLE MOMENT
-------------
                                X             Y             Z
Electronic contribution:     -2.53278       1.68951      -9.67411
Nuclear contribution   :      1.40145      -1.67996      10.91024
                        -----------------------------------------
Total Dipole Moment    :     -1.13133       0.00955       1.23613
                        -----------------------------------------
Magnitude (a.u.)       :      1.67571
Magnitude (Debye)      :      4.25932



--------------------
Rotational spectrum 
--------------------
 
Rotational constants in cm-1:     0.155875     0.079864     0.077188 
Rotational constants in MHz :  4673.017506  2394.277415  2314.027118 

 Dipole components along the rotational axes: 
x,y,z [a.u.] :     0.920413     1.389014     0.177460 
x,y,z [Debye]:     2.339504     3.530594     0.451066 

 

Timings for individual modules:

Sum of individual times         ...       10.074 sec (=   0.168 min)
GTO integral calculation        ...        2.402 sec (=   0.040 min)  23.8 %
SCF iterations                  ...        7.672 sec (=   0.128 min)  76.2 %
                             ****ORCA TERMINATED NORMALLY****
TOTAL RUN TIME: 0 days 0 hours 0 minutes 10 seconds 724 msec
