
                                        *****************
                                        * O   R   C   A *
                                        *****************

                                            #,                                       
                                            ###                                      
                                            ####                                     
                                            #####                                    
                                            ######                                   
                                           ########,                                 
                                     ,,################,,,,,                         
                               ,,#################################,,                 
                          ,,##########################################,,             
                       ,#########################################, ''#####,          
                    ,#############################################,,   '####,        
                  ,##################################################,,,,####,       
                ,###########''''           ''''###############################       
              ,#####''   ,,,,##########,,,,          '''####'''          '####       
            ,##' ,,,,###########################,,,                        '##       
           ' ,,###''''                  '''############,,,                           
         ,,##''                                '''############,,,,        ,,,,,,###''
      ,#''                                            '''#######################'''  
     '                                                          ''''####''''         
             ,#######,   #######,   ,#######,      ##                                
            ,#'     '#,  ##    ##  ,#'     '#,    #''#        ######   ,####,        
            ##       ##  ##   ,#'  ##            #'  '#       #        #'  '#        
            ##       ##  #######   ##           ,######,      #####,   #    #        
            '#,     ,#'  ##    ##  '#,     ,#' ,#      #,         ##   #,  ,#        
             '#######'   ##     ##  '#######'  #'      '#     #####' # '####'        



                  #######################################################
                  #                        -***-                        #
                  #          Department of theory and spectroscopy      #
                  #    Directorship and core code : Frank Neese         #
                  #        Max Planck Institute fuer Kohlenforschung    #
                  #                Kaiser Wilhelm Platz 1               #
                  #                 D-45470 Muelheim/Ruhr               #
                  #                      Germany                        #
                  #                                                     #
                  #                  All rights reserved                #
                  #                        -***-                        #
                  #######################################################


                         Program Version 5.0.0 -  RELEASE  -
                                (SVN: $Rev: 19529$)
                ($Date: 2021-06-28 11:36:33 +0200 (Mo, 28 Jun 2021) $)


 With contributions from (in alphabetic order):
   Daniel Aravena         : Magnetic Suceptibility
   Michael Atanasov       : Ab Initio Ligand Field Theory (pilot matlab implementation)
   Alexander A. Auer      : GIAO ZORA, VPT2 properties, NMR spectrum
   Ute Becker             : Parallelization
   Giovanni Bistoni       : ED, misc. LED, open-shell LED, HFLD
   Martin Brehm           : Molecular dynamics
   Dmytro Bykov           : SCF Hessian
   Vijay G. Chilkuri      : MRCI spin determinant printing, contributions to CSF-ICE
   Dipayan Datta          : RHF DLPNO-CCSD density
   Achintya Kumar Dutta   : EOM-CC, STEOM-CC
   Dmitry Ganyushin       : Spin-Orbit,Spin-Spin,Magnetic field MRCI
   Miquel Garcia          : C-PCM Hessian, Gaussian charge scheme
   Yang Guo               : DLPNO-NEVPT2, F12-NEVPT2, CIM, IAO-localization
   Andreas Hansen         : Spin unrestricted coupled pair/coupled cluster methods
   Benjamin Helmich-Paris : MC-RPA, TRAH-SCF, COSX integrals
   Lee Huntington         : MR-EOM, pCC
   Robert Izsak           : Overlap fitted RIJCOSX, COSX-SCS-MP3, EOM
   Marcus Kettner         : VPT2
   Christian Kollmar      : KDIIS, OOCD, Brueckner-CCSD(T), CCSD density, CASPT2, CASPT2-K
   Simone Kossmann        : Meta GGA functionals, TD-DFT gradient, OOMP2, MP2 Hessian
   Martin Krupicka        : Initial AUTO-CI
   Lucas Lang             : DCDCAS
   Marvin Lechner         : AUTO-CI (C++ implementation), FIC-MRCC
   Dagmar Lenk            : GEPOL surface, SMD
   Dimitrios Liakos       : Extrapolation schemes; Compound Job, initial MDCI parallelization
   Dimitrios Manganas     : Further ROCIS development; embedding schemes
   Dimitrios Pantazis     : SARC Basis sets
   Anastasios Papadopoulos: AUTO-CI, single reference methods and gradients
   Taras Petrenko         : DFT Hessian,TD-DFT gradient, ASA, ECA, R-Raman, ABS, FL, XAS/XES, NRVS
   Peter Pinski           : DLPNO-MP2, DLPNO-MP2 Gradient
   Christoph Reimann      : Effective Core Potentials
   Marius Retegan         : Local ZFS, SOC
   Christoph Riplinger    : Optimizer, TS searches, QM/MM, DLPNO-CCSD(T), (RO)-DLPNO pert. Triples
   Tobias Risthaus        : Range-separated hybrids, TD-DFT gradient, RPA, STAB
   Michael Roemelt        : Original ROCIS implementation
   Masaaki Saitow         : Open-shell DLPNO-CCSD energy and density
   Barbara Sandhoefer     : DKH picture change effects
   Avijit Sen             : IP-ROCIS
   Kantharuban Sivalingam : CASSCF convergence, NEVPT2, FIC-MRCI
   Bernardo de Souza      : ESD, SOC TD-DFT
   Georgi Stoychev        : AutoAux, RI-MP2 NMR
   Willem Van den Heuvel  : Paramagnetic NMR
   Boris Wezisla          : Elementary symmetry handling
   Frank Wennmohs         : Technical directorship


 We gratefully acknowledge several colleagues who have allowed us to
 interface, adapt or use parts of their codes:
   Stefan Grimme, W. Hujo, H. Kruse, P. Pracht,  : VdW corrections, initial TS optimization,
                  C. Bannwarth, S. Ehlert          DFT functionals, gCP, sTDA/sTD-DF
   Ed Valeev, F. Pavosevic, A. Kumar             : LibInt (2-el integral package), F12 methods
   Garnet Chan, S. Sharma, J. Yang, R. Olivares  : DMRG
   Ulf Ekstrom                                   : XCFun DFT Library
   Mihaly Kallay                                 : mrcc  (arbitrary order and MRCC methods)
   Jiri Pittner, Ondrej Demel                    : Mk-CCSD
   Frank Weinhold                                : gennbo (NPA and NBO analysis)
   Christopher J. Cramer and Donald G. Truhlar   : smd solvation model
   Lars Goerigk                                  : TD-DFT with DH, B97 family of functionals
   V. Asgeirsson, H. Jonsson                     : NEB implementation
   FAccTs GmbH                                   : IRC, NEB, NEB-TS, DLPNO-Multilevel, CI-OPT
                                                   MM, QMMM, 2- and 3-layer-ONIOM, Crystal-QMMM,
                                                   LR-CPCM, SF, NACMEs, symmetry and pop. for TD-DFT,
                                                   nearIR, NL-DFT gradient (VV10), updates on ESD,
                                                   ML-optimized integration grids
   S Lehtola, MJT Oliveira, MAL Marques          : LibXC Library
   Liviu Ungur et al                             : ANISO software


 Your calculation uses the libint2 library for the computation of 2-el integrals
 For citations please refer to: http://libint.valeyev.net

 Your ORCA version has been built with support for libXC version: 5.1.0
 For citations please refer to: https://tddft.org/programs/libxc/

 This ORCA versions uses:
   CBLAS   interface :  Fast vector & matrix operations
   LAPACKE interface :  Fast linear algebra routines
   SCALAPACK package :  Parallel linear algebra routines
   Shared memory     :  Shared parallel matrices
   BLAS/LAPACK       :  OpenBLAS 0.3.15  USE64BITINT DYNAMIC_ARCH NO_AFFINITY Haswell SINGLE_THREADED
        Core in use  :  Haswell
   Copyright (c) 2011-2014, The OpenBLAS Project


Your calculation utilizes the atom-pairwise dispersion correction
with the Becke-Johnson damping scheme (D3BJ)
Cite in your paper:
S.Grimme, S.Ehrlich, L.Goerigk, J Comput Chem, (2011), 32, 1456–1465 
S.Grimme, J.Antony, S.Ehrlich and H.Krieg, J.Chem.Phys., 132, (2010), 154104 
   

================================================================================

----- Orbital basis set information -----
Your calculation utilizes the basis: def2-SVPD
   F. Weigend and R. Ahlrichs, Phys. Chem. Chem. Phys. 7, 3297 (2005).
   D. Rappoport and F. Furche, J. Chem. Phys. 133 134105 (2010).

----- AuxJ basis set information -----
Your calculation utilizes the auxiliary basis: def2/J
   F. Weigend, Phys. Chem. Chem. Phys. 8, 1057 (2006).

================================================================================
                                        WARNINGS
                       Please study these warnings very carefully!
================================================================================


INFO   : the flag for use of the SHARK integral package has been found!

================================================================================
                                       INPUT FILE
================================================================================
NAME = 14Feb_SVPD_B3LYP_A_wt_wb97_typ1_neg.com
|  1> !B3LYP D3BJ RIJCOSX def2-SVPD def2/J TightSCF 
|  2> *xyz -1 1
|  3> C          1.36401        0.46874       -2.81376
|  4> C          0.96805        1.63064       -3.71575
|  5> C         -0.50835        1.72268       -4.12430
|  6> S         -1.32861        0.14674       -4.43578
|  7> H         -0.59151        2.29496       -5.04722
|  8> H         -1.11411        2.23561       -3.37436
|  9> O         -2.57135        0.47573       -5.06834
| 10> O         -1.51496       -0.40051       -3.06342
| 11> H          1.57869        1.52065       -4.61273
| 12> H          1.26665        2.57599       -3.25045
| 13> O         -0.37793       -0.62756       -5.20114
| 14> H          1.07115       -0.45339       -3.27071
| 15> H          0.87480        0.56905       -1.86745
| 16> H          2.42423        0.47442       -2.66954
| 17> *
| 18> %MaxCore 64000
| 19> 
| 20> %pal nprocs 4
| 21> end  
| 22> 
| 23> %scf
| 24>   MaxIter 150
| 25> end
| 26> 
| 27> 
| 28>                          ****END OF INPUT****
================================================================================

                       ****************************
                       * Single Point Calculation *
                       ****************************

---------------------------------
CARTESIAN COORDINATES (ANGSTROEM)
---------------------------------
  C      1.364010    0.468740   -2.813760
  C      0.968050    1.630640   -3.715750
  C     -0.508350    1.722680   -4.124300
  S     -1.328610    0.146740   -4.435780
  H     -0.591510    2.294960   -5.047220
  H     -1.114110    2.235610   -3.374360
  O     -2.571350    0.475730   -5.068340
  O     -1.514960   -0.400510   -3.063420
  H      1.578690    1.520650   -4.612730
  H      1.266650    2.575990   -3.250450
  O     -0.377930   -0.627560   -5.201140
  H      1.071150   -0.453390   -3.270710
  H      0.874800    0.569050   -1.867450
  H      2.424230    0.474420   -2.669540

----------------------------
CARTESIAN COORDINATES (A.U.)
----------------------------
  NO LB      ZA    FRAG     MASS         X           Y           Z
   0 C     6.0000    0    12.011    2.577605    0.885790   -5.317236
   1 C     6.0000    0    12.011    1.829349    3.081463   -7.021750
   2 C     6.0000    0    12.011   -0.960642    3.255393   -7.793797
   3 S    16.0000    0    32.060   -2.510709    0.277298   -8.382409
   4 H     1.0000    0     1.008   -1.117792    4.336846   -9.537864
   5 H     1.0000    0     1.008   -2.105363    4.224691   -6.376616
   6 O     8.0000    0    15.999   -4.859147    0.898999   -9.577775
   7 O     8.0000    0    15.999   -2.862860   -0.756854   -5.789025
   8 H     1.0000    0     1.008    2.983292    2.873612   -8.716796
   9 H     1.0000    0     1.008    2.393622    4.867916   -6.142460
  10 O     8.0000    0    15.999   -0.714184   -1.185917   -9.828730
  11 H     1.0000    0     1.008    2.024180   -0.856783   -6.180746
  12 H     1.0000    0     1.008    1.653132    1.075349   -3.528969
  13 H     1.0000    0     1.008    4.581131    0.896524   -5.044700

--------------------------------
INTERNAL COORDINATES (ANGSTROEM)
--------------------------------
 C      0   0   0     0.000000000000     0.00000000     0.00000000
 C      1   0   0     1.523279978106     0.00000000     0.00000000
 C      2   1   0     1.534647003092   116.96568617     0.00000000
 S      3   2   1     1.803727568565   115.53546249   322.90144051
 H      3   2   1     1.089128693222   109.30283314   203.30991491
 H      3   2   1     1.091994673110   112.27278736    84.70975044
 O      4   3   2     1.432748854929   105.66825675   192.14354175
 O      4   3   2     1.489154409254   102.64124569    74.09180184
 H      2   1   3     1.090665911313   105.33878468   238.76675031
 H      2   1   3     1.095149611925   109.63156545   124.54247218
 O      4   3   2     1.445374997016   105.09290493   316.90648081
 H      1   2   3     1.069997205137   109.47106768    55.45750128
 H      1   2   3     1.069995858076   109.47134320   295.45658927
 H      1   2   3     1.069999121121   109.47074976   175.45731649

---------------------------
INTERNAL COORDINATES (A.U.)
---------------------------
 C      0   0   0     0.000000000000     0.00000000     0.00000000
 C      1   0   0     2.878581983907     0.00000000     0.00000000
 C      2   1   0     2.900062548087   116.96568617     0.00000000
 S      3   2   1     3.408551124791   115.53546249   322.90144051
 H      3   2   1     2.058154954786   109.30283314   203.30991491
 H      3   2   1     2.063570871878   112.27278736    84.70975044
 O      4   3   2     2.707502954505   105.66825675   192.14354175
 O      4   3   2     2.814094004611   102.64124569    74.09180184
 H      2   1   3     2.061059875985   105.33878468   238.76675031
 H      2   1   3     2.069532842209   109.63156545   124.54247218
 O      4   3   2     2.731362905178   105.09290493   316.90648081
 H      1   2   3     2.022001681769   109.47106768    55.45750128
 H      1   2   3     2.021999136194   109.47134320   295.45658927
 H      1   2   3     2.022005302455   109.47074976   175.45731649

---------------------
BASIS SET INFORMATION
---------------------
There are 4 groups of distinct atoms

 Group   1 Type C   : 8s4p2d contracted to 4s2p2d pattern {5111/31/11}
 Group   2 Type S   : 11s8p2d contracted to 5s4p2d pattern {53111/5111/11}
 Group   3 Type H   : 4s2p contracted to 2s2p pattern {31/11}
 Group   4 Type O   : 8s5p2d contracted to 4s3p2d pattern {5111/311/11}

Atom   0C    basis set group =>   1
Atom   1C    basis set group =>   1
Atom   2C    basis set group =>   1
Atom   3S    basis set group =>   2
Atom   4H    basis set group =>   3
Atom   5H    basis set group =>   3
Atom   6O    basis set group =>   4
Atom   7O    basis set group =>   4
Atom   8H    basis set group =>   3
Atom   9H    basis set group =>   3
Atom  10O    basis set group =>   4
Atom  11H    basis set group =>   3
Atom  12H    basis set group =>   3
Atom  13H    basis set group =>   3
---------------------------------
AUXILIARY/J BASIS SET INFORMATION
---------------------------------
There are 4 groups of distinct atoms

 Group   1 Type C   : 12s5p4d2f1g contracted to 6s4p3d1f1g pattern {711111/2111/211/2/1}
 Group   2 Type S   : 14s5p5d2f1g contracted to 8s4p3d1f1g pattern {71111111/2111/311/2/1}
 Group   3 Type H   : 5s2p1d contracted to 3s1p1d pattern {311/2/1}
 Group   4 Type O   : 12s5p4d2f1g contracted to 6s4p3d1f1g pattern {711111/2111/211/2/1}

Atom   0C    basis set group =>   1
Atom   1C    basis set group =>   1
Atom   2C    basis set group =>   1
Atom   3S    basis set group =>   2
Atom   4H    basis set group =>   3
Atom   5H    basis set group =>   3
Atom   6O    basis set group =>   4
Atom   7O    basis set group =>   4
Atom   8H    basis set group =>   3
Atom   9H    basis set group =>   3
Atom  10O    basis set group =>   4
Atom  11H    basis set group =>   3
Atom  12H    basis set group =>   3
Atom  13H    basis set group =>   3


           ************************************************************
           *        Program running with 4 parallel MPI-processes     *
           *              working on a common directory               *
           ************************************************************
------------------------------------------------------------------------------
                           ORCA GTO INTEGRAL CALCULATION
                           -- RI-GTO INTEGRALS CHOSEN --
------------------------------------------------------------------------------
------------------------------------------------------------------------------
                   ___                                                        
                  /   \      - P O W E R E D   B Y -                         
                 /     \                                                     
                 |  |  |   _    _      __       _____    __    __             
                 |  |  |  | |  | |    /  \     |  _  \  |  |  /  |          
                  \  \/   | |  | |   /    \    | | | |  |  | /  /          
                 / \  \   | |__| |  /  /\  \   | |_| |  |  |/  /          
                |  |  |   |  __  | /  /__\  \  |    /   |      \           
                |  |  |   | |  | | |   __   |  |    \   |  |\   \          
                \     /   | |  | | |  |  |  |  | |\  \  |  | \   \       
                 \___/    |_|  |_| |__|  |__|  |_| \__\ |__|  \__/        
                                                                              
                      - O R C A' S   B I G   F R I E N D -                    
                                      &                                       
                       - I N T E G R A L  F E E D E R -                       
                                                                              
 v1 FN, 2020, v2 2021                                                         
------------------------------------------------------------------------------


Reading SHARK input file 14Feb_SVPD_B3LYP_A_wt_wb97_typ1_neg.SHARKINP.tmp ... ok
----------------------
SHARK INTEGRAL PACKAGE
----------------------

Number of atoms                             ...     14
Number of basis functions                   ...    212
Number of shells                            ...     90
Maximum angular momentum                    ...      2
Integral batch strategy                     ... SHARK/LIBINT Hybrid
RI-J (if used) integral strategy            ... SPLIT-RIJ (Revised 2003 algorithm where possible)
Printlevel                                  ...      1
Contraction scheme used                     ... SEGMENTED contraction
Coulomb Range Separation                    ... NOT USED
Exchange Range Separation                   ... NOT USED
Finite Nucleus Model                        ... NOT USED
Auxiliary Coulomb fitting basis             ... AVAILABLE
   # of basis functions in Aux-J            ...    422
   # of shells in Aux-J                     ...    142
   Maximum angular momentum in Aux-J        ...      4
Auxiliary J/K fitting basis                 ... NOT available
Auxiliary Correlation fitting basis         ... NOT available
Auxiliary 'external' fitting basis          ... NOT available
Integral threshold                          ...     2.500000e-11
Primitive cut-off                           ...     2.500000e-12
Primitive pair pre-selection threshold      ...     2.500000e-12

Calculating pre-screening integrals         ... done (  0.1 sec) Dimension = 90
Organizing shell pair data                  ... done (  0.0 sec)
Shell pair information
Total number of shell pairs                 ...      4095
Shell pairs after pre-screening             ...      4014
Total number of primitive shell pairs       ...     11447
Primitive shell pairs kept                  ...      9185
          la=0 lb=0:    915 shell pairs
          la=1 lb=0:   1386 shell pairs
          la=1 lb=1:    556 shell pairs
          la=2 lb=0:    595 shell pairs
          la=2 lb=1:    458 shell pairs
          la=2 lb=2:    104 shell pairs

Calculating one electron integrals          ... done (  0.0 sec)
Calculating RI/J V-Matrix + Cholesky decomp.... done (  0.0 sec)
Calculating Nuclear repulsion               ... done (  0.0 sec) ENN=    438.645754394161 Eh

SHARK setup successfully completed in   0.2 seconds

Maximum memory used throughout the entire GTOINT-calculation: 8.9 MB


           ************************************************************
           *        Program running with 4 parallel MPI-processes     *
           *              working on a common directory               *
           ************************************************************
-------------------------------------------------------------------------------
                                 ORCA SCF
-------------------------------------------------------------------------------

------------
SCF SETTINGS
------------
Hamiltonian:
 Density Functional     Method          .... DFT(GTOs)
 Exchange Functional    Exchange        .... B88
   X-Alpha parameter    XAlpha          ....  0.666667
   Becke's b parameter  XBeta           ....  0.004200
 Correlation Functional Correlation     .... LYP
 LDA part of GGA corr.  LDAOpt          .... VWN-5
 Gradients option       PostSCFGGA      .... off
 Hybrid DFT is turned on
   Fraction HF Exchange ScalHFX         ....  0.200000
   Scaling of DF-GGA-X  ScalDFX         ....  0.720000
   Scaling of DF-GGA-C  ScalDFC         ....  0.810000
   Scaling of DF-LDA-C  ScalLDAC        ....  1.000000
   Perturbative correction              ....  0.000000
   Density functional embedding theory  .... OFF
   NL short-range parameter             ....  4.800000
 RI-approximation to the Coulomb term is turned on
   Number of AuxJ basis functions       .... 422
   RIJ-COSX (HFX calculated with COS-X)).... on


General Settings:
 Integral files         IntName         .... 14Feb_SVPD_B3LYP_A_wt_wb97_typ1_neg
 Hartree-Fock type      HFTyp           .... RHF
 Total Charge           Charge          ....   -1
 Multiplicity           Mult            ....    1
 Number of Electrons    NEL             ....   66
 Basis Dimension        Dim             ....  212
 Nuclear Repulsion      ENuc            ....    438.6457543942 Eh

Convergence Acceleration:
 DIIS                   CNVDIIS         .... on
   Start iteration      DIISMaxIt       ....    12
   Startup error        DIISStart       ....  0.200000
   # of expansion vecs  DIISMaxEq       ....     5
   Bias factor          DIISBfac        ....   1.050
   Max. coefficient     DIISMaxC        ....  10.000
 Trust-Rad. Augm. Hess. CNVTRAH         .... auto
   Auto Start mean grad. ratio tolernc. ....  1.125000
   Auto Start start iteration           ....    20
   Auto Start num. interpolation iter.  ....    10
   Max. Number of Micro iterations      ....    16
   Max. Number of Macro iterations      .... Maxiter - #DIIS iter
   Number of Davidson start vectors     ....     2
   Converg. threshold I  (grad. norm)   ....   1.000e-05
   Converg. threshold II (energy diff.) ....   1.000e-08
   Grad. Scal. Fac. for Micro threshold ....   0.100
   Minimum threshold for Micro iter.    ....   0.010
   NR start threshold (gradient norm)   ....   0.001
   Initial trust radius                 ....   0.400
   Minimum AH scaling param. (alpha)    ....   1.000
   Maximum AH scaling param. (alpha)    .... 1000.000
   Orbital update algorithm             .... Taylor
   White noise on init. David. guess    .... on
   Maximum white noise                  ....   0.010
   Quad. conv. algorithm                .... NR
 SOSCF                  CNVSOSCF        .... on
   Start iteration      SOSCFMaxIt      ....   150
   Startup grad/error   SOSCFStart      ....  0.003300
 Level Shifting         CNVShift        .... on
   Level shift para.    LevelShift      ....    0.2500
   Turn off err/grad.   ShiftErr        ....    0.0010
 Zerner damping         CNVZerner       .... off
 Static damping         CNVDamp         .... on
   Fraction old density DampFac         ....    0.7000
   Max. Damping (<1)    DampMax         ....    0.9800
   Min. Damping (>=0)   DampMin         ....    0.0000
   Turn off err/grad.   DampErr         ....    0.1000
 Fernandez-Rico         CNVRico         .... off

SCF Procedure:
 Maximum # iterations   MaxIter         ....   150
 SCF integral mode      SCFMode         .... Direct
   Integral package                     .... SHARK and LIBINT hybrid scheme
 Reset frequency        DirectResetFreq ....    20
 Integral Threshold     Thresh          ....  2.500e-11 Eh
 Primitive CutOff       TCut            ....  2.500e-12 Eh

Convergence Tolerance:
 Convergence Check Mode ConvCheckMode   .... Total+1el-Energy
 Convergence forced     ConvForced      .... 0
 Energy Change          TolE            ....  1.000e-08 Eh
 1-El. energy change                    ....  1.000e-05 Eh
 Orbital Gradient       TolG            ....  1.000e-05
 Orbital Rotation angle TolX            ....  1.000e-05
 DIIS Error             TolErr          ....  5.000e-07


Diagonalization of the overlap matrix:
Smallest eigenvalue                        ... 1.611e-04
Time for diagonalization                   ...    0.011 sec
Threshold for overlap eigenvalues          ... 1.000e-08
Number of eigenvalues below threshold      ... 0
Time for construction of square roots      ...    0.008 sec
Total time needed                          ...    0.020 sec

Time for model grid setup =    0.104 sec

------------------------------
INITIAL GUESS: MODEL POTENTIAL
------------------------------
Loading Hartree-Fock densities                     ... done
Calculating cut-offs                               ... done
Initializing the effective Hamiltonian             ... done
Setting up the integral package (SHARK)            ... done
Starting the Coulomb interaction                   ... done (   0.1 sec)
Reading the grid                                   ... done
Mapping shells                                     ... done
Starting the XC term evaluation                    ... done (   0.1 sec)
  promolecular density results
     # of electrons  =     64.993314960
     EX              =    -67.239548261
     EC              =     -2.360370733
     EX+EC           =    -69.599918994
Transforming the Hamiltonian                       ... done (   0.0 sec)
Diagonalizing the Hamiltonian                      ... done (   0.0 sec)
Back transforming the eigenvectors                 ... done (   0.0 sec)
Now organizing SCF variables                       ... done
                      ------------------
                      INITIAL GUESS DONE (   0.3 sec)
                      ------------------
-------------------
DFT GRID GENERATION
-------------------

General Integration Accuracy     IntAcc      ... 4.388
Radial Grid Type                 RadialGrid  ... OptM3 with GC (2021)
Angular Grid (max. ang.)         AngularGrid ... 4 (Lebedev-302)
Angular grid pruning method      GridPruning ... 4 (adaptive)
Weight generation scheme         WeightScheme... Becke
Basis function cutoff            BFCut       ... 1.0000e-11
Integration weight cutoff        WCut        ... 1.0000e-14
Angular grids for H and He will be reduced by one unit
Partially contracted basis set               ... off
Rotationally invariant grid construction     ... off

Total number of grid points                  ...    68578
Total number of batches                      ...     1080
Average number of points per batch           ...       63
Average number of grid points per atom       ...     4898
Time for grid setup =    0.466 sec

--------------------
COSX GRID GENERATION
--------------------

GRIDX 1
-------
General Integration Accuracy     IntAcc      ... 3.816
Radial Grid Type                 RadialGrid  ... OptM3 with GC (2021)
Angular Grid (max. ang.)         AngularGrid ... 1 (Lebedev-50)
Angular grid pruning method      GridPruning ... 4 (adaptive)
Weight generation scheme         WeightScheme... Becke
Basis function cutoff            BFCut       ... 1.0000e-11
Integration weight cutoff        WCut        ... 1.0000e-14
Angular grids for H and He will be reduced by one unit
Partially contracted basis set               ... on
Rotationally invariant grid construction     ... off

Total number of grid points                  ...     8517
Total number of batches                      ...      142
Average number of points per batch           ...       59
Average number of grid points per atom       ...      608
UseSFitting                                  ... on

GRIDX 2
-------
General Integration Accuracy     IntAcc      ... 4.020
Radial Grid Type                 RadialGrid  ... OptM3 with GC (2021)
Angular Grid (max. ang.)         AngularGrid ... 2 (Lebedev-110)
Angular grid pruning method      GridPruning ... 4 (adaptive)
Weight generation scheme         WeightScheme... Becke
Basis function cutoff            BFCut       ... 1.0000e-11
Integration weight cutoff        WCut        ... 1.0000e-14
Angular grids for H and He will be reduced by one unit
Partially contracted basis set               ... on
Rotationally invariant grid construction     ... off

Total number of grid points                  ...    19998
Total number of batches                      ...      318
Average number of points per batch           ...       62
Average number of grid points per atom       ...     1428
UseSFitting                                  ... on

GRIDX 3
-------
General Integration Accuracy     IntAcc      ... 4.338
Radial Grid Type                 RadialGrid  ... OptM3 with GC (2021)
Angular Grid (max. ang.)         AngularGrid ... 3 (Lebedev-194)
Angular grid pruning method      GridPruning ... 4 (adaptive)
Weight generation scheme         WeightScheme... Becke
Basis function cutoff            BFCut       ... 1.0000e-11
Integration weight cutoff        WCut        ... 1.0000e-14
Angular grids for H and He will be reduced by one unit
Partially contracted basis set               ... on
Rotationally invariant grid construction     ... off

Total number of grid points                  ...    45434
Total number of batches                      ...      717
Average number of points per batch           ...       63
Average number of grid points per atom       ...     3245
UseSFitting                                  ... on

Time for X-Grid setup             =    0.427 sec

--------------
SCF ITERATIONS
--------------
ITER       Energy         Delta-E        Max-DP      RMS-DP      [F,P]     Damp
               ***  Starting incremental Fock matrix formation  ***
  0   -741.3730149051   0.000000000000 0.17435132  0.00345182  0.3057030 0.7000
  1   -741.5949053378  -0.221890432662 0.08843771  0.00201411  0.1199666 0.7000
                               ***Turning on DIIS***
  2   -741.6696978070  -0.074792469252 0.16005488  0.00315718  0.0383030 0.0000
  3   -741.7969480967  -0.127250289717 0.05409650  0.00124302  0.0694791 0.0000
  4   -741.8236159732  -0.026667876455 0.01535850  0.00036800  0.0168758 0.0000
  5   -741.8250737529  -0.001457779684 0.00341768  0.00014839  0.0055579 0.0000
                      *** Initiating the SOSCF procedure ***
                           *** Shutting down DIIS ***
                      *** Re-Reading the Fockian *** 
                      *** Removing any level shift *** 
ITER      Energy       Delta-E        Grad      Rot      Max-DP    RMS-DP
  6   -741.82519532  -0.0001215661  0.000233  0.000233  0.003822  0.000109
               *** Restarting incremental Fock matrix formation ***
  7   -741.82512307   0.0000722490  0.000204  0.000443  0.001551  0.000049
  8   -741.82511579   0.0000072787  0.000429  0.000312  0.001059  0.000022
  9   -741.82512557  -0.0000097803  0.000024  0.000040  0.000269  0.000005
 10   -741.82512553   0.0000000439  0.000037  0.000026  0.000159  0.000003
 11   -741.82512562  -0.0000000925  0.000004  0.000007  0.000020  0.000001
 12   -741.82512562   0.0000000014  0.000006  0.000004  0.000013  0.000000
                  ***Gradient check signals convergence***
              ***Rediagonalizing the Fockian in SOSCF/NRSCF***

               *****************************************************
               *                     SUCCESS                       *
               *           SCF CONVERGED AFTER  13 CYCLES          *
               *****************************************************

Old exchange energy                            =    -13.612798071 Eh
New exchange energy                            =    -13.612834326 Eh
Exchange energy change after final integration =     -0.000036255 Eh
Total energy after final integration           =   -741.825161873 Eh
Final COS-X integration done in                =     2.980 sec

----------------
TOTAL SCF ENERGY
----------------

Total Energy       :         -741.82516187 Eh          -20186.08890 eV

Components:
Nuclear Repulsion  :          438.64575439 Eh           11936.15780 eV
Electronic Energy  :        -1180.47091627 Eh          -32122.24670 eV
One Electron Energy:        -1902.15652777 Eh          -51760.31056 eV
Two Electron Energy:          721.68561150 Eh           19638.06387 eV
Max COSX asymmetry :            0.00000464 Eh               0.00013 eV

Virial components:
Potential Energy   :        -1479.82949351 Eh          -40268.20771 eV
Kinetic Energy     :          738.00433164 Eh           20082.11882 eV
Virial Ratio       :            2.00517725


DFT components:
N(Alpha)           :       33.000233992708 electrons
N(Beta)            :       33.000233992708 electrons
N(Total)           :       66.000467985416 electrons
E(X)               :      -54.113517001205 Eh       
E(C)               :       -2.806216473601 Eh       
E(XC)              :      -56.919733474806 Eh       
DFET-embed. en.    :        0.000000000000 Eh       

---------------
SCF CONVERGENCE
---------------

  Last Energy change         ...    1.4620e-10  Tolerance :   1.0000e-08
  Last MAX-Density change    ...    2.2204e-15  Tolerance :   1.0000e-07
  Last RMS-Density change    ...    3.8220e-17  Tolerance :   5.0000e-09
  Last Orbital Gradient      ...    3.7725e-07  Tolerance :   1.0000e-05
  Last Orbital Rotation      ...    5.8256e-07  Tolerance :   1.0000e-05

             **** THE GBW FILE WAS UPDATED (14Feb_SVPD_B3LYP_A_wt_wb97_typ1_neg.gbw) ****
             **** DENSITY 14Feb_SVPD_B3LYP_A_wt_wb97_typ1_neg.scfp WAS UPDATED ****
             **** ENERGY FILE WAS UPDATED (14Feb_SVPD_B3LYP_A_wt_wb97_typ1_neg.en.tmp) ****
             **** THE GBW FILE WAS UPDATED (14Feb_SVPD_B3LYP_A_wt_wb97_typ1_neg.gbw) ****
             **** DENSITY 14Feb_SVPD_B3LYP_A_wt_wb97_typ1_neg.scfp WAS UPDATED ****
----------------
ORBITAL ENERGIES
----------------

  NO   OCC          E(Eh)            E(eV) 
   0   2.0000     -88.884209     -2418.6623 
   1   2.0000     -18.926662      -515.0207 
   2   2.0000     -18.924578      -514.9639 
   3   2.0000     -18.907967      -514.5119 
   4   2.0000     -10.051211      -273.5074 
   5   2.0000     -10.043734      -273.3039 
   6   2.0000     -10.024762      -272.7876 
   7   2.0000      -7.937795      -215.9984 
   8   2.0000      -5.906803      -160.7323 
   9   2.0000      -5.906574      -160.7261 
  10   2.0000      -5.906060      -160.7121 
  11   2.0000      -0.936582       -25.4857 
  12   2.0000      -0.801441       -21.8083 
  13   2.0000      -0.770190       -20.9579 
  14   2.0000      -0.645449       -17.5636 
  15   2.0000      -0.556906       -15.1542 
  16   2.0000      -0.462287       -12.5795 
  17   2.0000      -0.377977       -10.2853 
  18   2.0000      -0.331224        -9.0131 
  19   2.0000      -0.316658        -8.6167 
  20   2.0000      -0.296491        -8.0679 
  21   2.0000      -0.281226        -7.6525 
  22   2.0000      -0.263509        -7.1704 
  23   2.0000      -0.248039        -6.7495 
  24   2.0000      -0.222481        -6.0540 
  25   2.0000      -0.216177        -5.8825 
  26   2.0000      -0.196585        -5.3494 
  27   2.0000      -0.157429        -4.2839 
  28   2.0000      -0.153498        -4.1769 
  29   2.0000      -0.124015        -3.3746 
  30   2.0000      -0.112863        -3.0712 
  31   2.0000      -0.099683        -2.7125 
  32   2.0000      -0.070806        -1.9267 
  33   0.0000       0.136484         3.7139 
  34   0.0000       0.162206         4.4139 
  35   0.0000       0.170137         4.6297 
  36   0.0000       0.174034         4.7357 
  37   0.0000       0.197027         5.3614 
  38   0.0000       0.199470         5.4278 
  39   0.0000       0.214105         5.8261 
  40   0.0000       0.222720         6.0605 
  41   0.0000       0.234024         6.3681 
  42   0.0000       0.252474         6.8702 
  43   0.0000       0.259956         7.0738 
  44   0.0000       0.269337         7.3290 
  45   0.0000       0.279849         7.6151 
  46   0.0000       0.285890         7.7795 
  47   0.0000       0.287644         7.8272 
  48   0.0000       0.295086         8.0297 
  49   0.0000       0.304748         8.2926 
  50   0.0000       0.316561         8.6141 
  51   0.0000       0.327623         8.9151 
  52   0.0000       0.332035         9.0351 
  53   0.0000       0.332602         9.0505 
  54   0.0000       0.345472         9.4008 
  55   0.0000       0.347472         9.4552 
  56   0.0000       0.356579         9.7030 
  57   0.0000       0.367840        10.0094 
  58   0.0000       0.375921        10.2293 
  59   0.0000       0.377393        10.2694 
  60   0.0000       0.384404        10.4602 
  61   0.0000       0.398450        10.8424 
  62   0.0000       0.402632        10.9562 
  63   0.0000       0.415908        11.3174 
  64   0.0000       0.420363        11.4387 
  65   0.0000       0.434727        11.8295 
  66   0.0000       0.436970        11.8905 
  67   0.0000       0.443849        12.0777 
  68   0.0000       0.455543        12.3959 
  69   0.0000       0.461459        12.5570 
  70   0.0000       0.474927        12.9234 
  71   0.0000       0.479397        13.0450 
  72   0.0000       0.489579        13.3221 
  73   0.0000       0.497308        13.5324 
  74   0.0000       0.506023        13.7696 
  75   0.0000       0.513699        13.9785 
  76   0.0000       0.524573        14.2744 
  77   0.0000       0.531767        14.4701 
  78   0.0000       0.537553        14.6276 
  79   0.0000       0.544258        14.8100 
  80   0.0000       0.546698        14.8764 
  81   0.0000       0.558639        15.2013 
  82   0.0000       0.573864        15.6156 
  83   0.0000       0.578384        15.7386 
  84   0.0000       0.586649        15.9635 
  85   0.0000       0.590719        16.0743 
  86   0.0000       0.604930        16.4610 
  87   0.0000       0.611112        16.6292 
  88   0.0000       0.622687        16.9442 
  89   0.0000       0.625385        17.0176 
  90   0.0000       0.643336        17.5061 
  91   0.0000       0.649302        17.6684 
  92   0.0000       0.654622        17.8132 
  93   0.0000       0.658910        17.9299 
  94   0.0000       0.667714        18.1694 
  95   0.0000       0.672930        18.3114 
  96   0.0000       0.687967        18.7205 
  97   0.0000       0.694302        18.8929 
  98   0.0000       0.700077        19.0501 
  99   0.0000       0.707456        19.2509 
 100   0.0000       0.720407        19.6033 
 101   0.0000       0.727706        19.8019 
 102   0.0000       0.735043        20.0015 
 103   0.0000       0.745723        20.2922 
 104   0.0000       0.756787        20.5932 
 105   0.0000       0.769336        20.9347 
 106   0.0000       0.789244        21.4764 
 107   0.0000       0.807295        21.9676 
 108   0.0000       0.830201        22.5909 
 109   0.0000       0.842015        22.9124 
 110   0.0000       0.857755        23.3407 
 111   0.0000       0.858436        23.3592 
 112   0.0000       0.871800        23.7229 
 113   0.0000       0.885723        24.1017 
 114   0.0000       0.895798        24.3759 
 115   0.0000       0.900040        24.4913 
 116   0.0000       0.914323        24.8800 
 117   0.0000       0.942142        25.6370 
 118   0.0000       0.984186        26.7811 
 119   0.0000       0.993093        27.0234 
 120   0.0000       1.031423        28.0664 
 121   0.0000       1.066712        29.0267 
 122   0.0000       1.075050        29.2536 
 123   0.0000       1.107382        30.1334 
 124   0.0000       1.109789        30.1989 
 125   0.0000       1.124548        30.6005 
 126   0.0000       1.132127        30.8068 
 127   0.0000       1.149645        31.2834 
 128   0.0000       1.165719        31.7208 
 129   0.0000       1.177140        32.0316 
 130   0.0000       1.184628        32.2354 
 131   0.0000       1.193626        32.4802 
 132   0.0000       1.197816        32.5942 
 133   0.0000       1.212354        32.9898 
 134   0.0000       1.236341        33.6425 
 135   0.0000       1.264098        34.3979 
 136   0.0000       1.300928        35.4000 
 137   0.0000       1.310585        35.6628 
 138   0.0000       1.333790        36.2943 
 139   0.0000       1.361259        37.0417 
 140   0.0000       1.373074        37.3633 
 141   0.0000       1.414544        38.4917 
 142   0.0000       1.453498        39.5517 
 143   0.0000       1.475065        40.1386 
 144   0.0000       1.483275        40.3620 
 145   0.0000       1.492459        40.6119 
 146   0.0000       1.509001        41.0620 
 147   0.0000       1.587862        43.2079 
 148   0.0000       1.627437        44.2848 
 149   0.0000       1.644684        44.7541 
 150   0.0000       1.693269        46.0762 
 151   0.0000       1.730848        47.0988 
 152   0.0000       1.735655        47.2296 
 153   0.0000       1.759617        47.8816 
 154   0.0000       1.771587        48.2073 
 155   0.0000       1.790045        48.7096 
 156   0.0000       1.805180        49.1214 
 157   0.0000       1.826843        49.7109 
 158   0.0000       1.855613        50.4938 
 159   0.0000       1.862350        50.6771 
 160   0.0000       1.869918        50.8830 
 161   0.0000       1.887074        51.3499 
 162   0.0000       1.906908        51.8896 
 163   0.0000       1.911973        52.0274 
 164   0.0000       1.956845        53.2485 
 165   0.0000       2.042505        55.5794 
 166   0.0000       2.054720        55.9118 
 167   0.0000       2.077703        56.5372 
 168   0.0000       2.112048        57.4717 
 169   0.0000       2.132682        58.0332 
 170   0.0000       2.148728        58.4699 
 171   0.0000       2.178626        59.2834 
 172   0.0000       2.191305        59.6284 
 173   0.0000       2.222783        60.4850 
 174   0.0000       2.232736        60.7558 
 175   0.0000       2.249308        61.2068 
 176   0.0000       2.277382        61.9707 
 177   0.0000       2.315310        63.0028 
 178   0.0000       2.375958        64.6531 
 179   0.0000       2.396494        65.2119 
 180   0.0000       2.460888        66.9642 
 181   0.0000       2.489178        67.7340 
 182   0.0000       2.553368        69.4807 
 183   0.0000       2.625584        71.4458 
 184   0.0000       2.656195        72.2787 
 185   0.0000       2.731346        74.3237 
 186   0.0000       2.746335        74.7316 
 187   0.0000       2.807191        76.3876 
 188   0.0000       2.877477        78.3001 
 189   0.0000       2.897743        78.8516 
 190   0.0000       2.987565        81.2958 
 191   0.0000       3.031742        82.4979 
 192   0.0000       3.063934        83.3739 
 193   0.0000       3.065409        83.4140 
 194   0.0000       3.089421        84.0674 
 195   0.0000       3.104827        84.4866 
 196   0.0000       3.114014        84.7366 
 197   0.0000       3.133164        85.2577 
 198   0.0000       3.142500        85.5118 
 199   0.0000       3.157073        85.9083 
 200   0.0000       3.162813        86.0645 
 201   0.0000       3.169977        86.2595 
 202   0.0000       3.230634        87.9100 
 203   0.0000       3.257422        88.6390 
 204   0.0000       3.279843        89.2491 
 205   0.0000       3.308151        90.0194 
 206   0.0000       3.332029        90.6691 
 207   0.0000       3.336454        90.7895 
 208   0.0000       3.385036        92.1115 
 209   0.0000       3.527812        95.9967 
 210   0.0000       3.758484       102.2735 
 211   0.0000       3.806323       103.5753 

                    ********************************
                    * MULLIKEN POPULATION ANALYSIS *
                    ********************************

-----------------------
MULLIKEN ATOMIC CHARGES
-----------------------
   0 C :    0.974765
   1 C :   -0.117085
   2 C :    0.303154
   3 S :    1.298598
   4 H :   -0.155180
   5 H :   -0.064255
   6 O :   -0.823953
   7 O :   -0.831882
   8 H :   -0.052984
   9 H :   -0.252953
  10 O :   -0.809142
  11 H :   -0.115277
  12 H :   -0.116091
  13 H :   -0.237718
Sum of atomic charges:   -1.0000000

--------------------------------
MULLIKEN REDUCED ORBITAL CHARGES
--------------------------------
  0 C s       :     2.265303  s :     2.265303
      pz      :     0.934957  p :     2.627686
      px      :     0.725240
      py      :     0.967489
      dz2     :     0.039226  d :     0.132246
      dxz     :     0.004206
      dyz     :     0.024874
      dx2y2   :     0.046224
      dxy     :     0.017716
  1 C s       :     2.692217  s :     2.692217
      pz      :     0.941320  p :     2.823010
      px      :     0.954703
      py      :     0.926987
      dz2     :     0.144617  d :     0.601858
      dxz     :     0.145244
      dyz     :     0.058310
      dx2y2   :     0.118402
      dxy     :     0.135285
  2 C s       :     2.669687  s :     2.669687
      pz      :     0.860012  p :     2.795210
      px      :     1.003847
      py      :     0.931351
      dz2     :     0.013666  d :     0.231949
      dxz     :     0.096887
      dyz     :    -0.007095
      dx2y2   :     0.066015
      dxy     :     0.062476
  3 S s       :     4.946769  s :     4.946769
      pz      :     2.887880  p :     8.833443
      px      :     2.899647
      py      :     3.045916
      dz2     :     0.208305  d :     0.921190
      dxz     :     0.208511
      dyz     :     0.149690
      dx2y2   :     0.168424
      dxy     :     0.186260
  4 H s       :     1.105744  s :     1.105744
      pz      :     0.041407  p :     0.049436
      px      :    -0.022000
      py      :     0.030029
  5 H s       :     1.023143  s :     1.023143
      pz      :     0.002807  p :     0.041112
      px      :     0.012498
      py      :     0.025807
  6 O s       :     3.974227  s :     3.974227
      pz      :     1.705111  p :     4.836480
      px      :     1.381724
      py      :     1.749645
      dz2     :     0.000694  d :     0.013246
      dxz     :    -0.000301
      dyz     :     0.002440
      dx2y2   :     0.003490
      dxy     :     0.006922
  7 O s       :     3.954922  s :     3.954922
      pz      :     1.324603  p :     4.866767
      px      :     1.818935
      py      :     1.723229
      dz2     :     0.009133  d :     0.010192
      dxz     :    -0.003695
      dyz     :    -0.000270
      dx2y2   :     0.004550
      dxy     :     0.000474
  8 H s       :     1.052648  s :     1.052648
      pz      :     0.028479  p :     0.000336
      px      :     0.008167
      py      :    -0.036310
  9 H s       :     1.231656  s :     1.231656
      pz      :    -0.010216  p :     0.021297
      px      :    -0.021032
      py      :     0.052545
 10 O s       :     3.961951  s :     3.961951
      pz      :     1.662498  p :     4.837509
      px      :     1.551745
      py      :     1.623266
      dz2     :    -0.000767  d :     0.009682
      dxz     :     0.006309
      dyz     :    -0.000238
      dx2y2   :     0.001526
      dxy     :     0.002853
 11 H s       :     1.032991  s :     1.032991
      pz      :     0.041025  p :     0.082285
      px      :    -0.003457
      py      :     0.044718
 12 H s       :     1.107671  s :     1.107671
      pz      :     0.041225  p :     0.008420
      px      :    -0.023480
      py      :    -0.009325
 13 H s       :     1.236069  s :     1.236069
      pz      :    -0.032748  p :     0.001648
      px      :     0.044821
      py      :    -0.010425


                     *******************************
                     * LOEWDIN POPULATION ANALYSIS *
                     *******************************

----------------------
LOEWDIN ATOMIC CHARGES
----------------------
   0 C :    0.115690
   1 C :   -0.085010
   2 C :   -0.081391
   3 S :    0.862563
   4 H :   -0.006362
   5 H :    0.002011
   6 O :   -0.565304
   7 O :   -0.588304
   8 H :    0.009554
   9 H :    0.001674
  10 O :   -0.564742
  11 H :   -0.042055
  12 H :   -0.021527
  13 H :   -0.036797

-------------------------------
LOEWDIN REDUCED ORBITAL CHARGES
-------------------------------
  0 C s       :     2.691696  s :     2.691696
      pz      :     0.919332  p :     2.745794
      px      :     0.904854
      py      :     0.921608
      dz2     :     0.115248  d :     0.446820
      dxz     :     0.061311
      dyz     :     0.084499
      dx2y2   :     0.133297
      dxy     :     0.052464
  1 C s       :     2.685540  s :     2.685540
      pz      :     0.909058  p :     2.697423
      px      :     0.892223
      py      :     0.896143
      dz2     :     0.118958  d :     0.702046
      dxz     :     0.169113
      dyz     :     0.111171
      dx2y2   :     0.164045
      dxy     :     0.138759
  2 C s       :     2.722401  s :     2.722401
      pz      :     0.929067  p :     2.727758
      px      :     0.904950
      py      :     0.893741
      dz2     :     0.071953  d :     0.631232
      dxz     :     0.138181
      dyz     :     0.123547
      dx2y2   :     0.144673
      dxy     :     0.152878
  3 S s       :     4.669310  s :     4.669310
      pz      :     2.821280  p :     8.463772
      px      :     2.824347
      py      :     2.818146
      dz2     :     0.426996  d :     2.004355
      dxz     :     0.439398
      dyz     :     0.365447
      dx2y2   :     0.370309
      dxy     :     0.402204
  4 H s       :     0.734086  s :     0.734086
      pz      :     0.115437  p :     0.272276
      px      :     0.068581
      py      :     0.088258
  5 H s       :     0.732239  s :     0.732239
      pz      :     0.101254  p :     0.265750
      px      :     0.079140
      py      :     0.085357
  6 O s       :     3.551520  s :     3.551520
      pz      :     1.636198  p :     4.761545
      px      :     1.495455
      py      :     1.629892
      dz2     :     0.044527  d :     0.252239
      dxz     :     0.064346
      dyz     :     0.026225
      dx2y2   :     0.053972
      dxy     :     0.063171
  7 O s       :     3.570542  s :     3.570542
      pz      :     1.450745  p :     4.772463
      px      :     1.681193
      py      :     1.640524
      dz2     :     0.076670  d :     0.245299
      dxz     :     0.064285
      dyz     :     0.065292
      dx2y2   :     0.020057
      dxy     :     0.018995
  8 H s       :     0.728257  s :     0.728257
      pz      :     0.109219  p :     0.262189
      px      :     0.081861
      py      :     0.071108
  9 H s       :     0.742619  s :     0.742619
      pz      :     0.078486  p :     0.255707
      px      :     0.070270
      py      :     0.106951
 10 O s       :     3.550211  s :     3.550211
      pz      :     1.618777  p :     4.757650
      px      :     1.548061
      py      :     1.590812
      dz2     :     0.051188  d :     0.256882
      dxz     :     0.058307
      dyz     :     0.042192
      dx2y2   :     0.053501
      dxy     :     0.051694
 11 H s       :     0.707587  s :     0.707587
      pz      :     0.110916  p :     0.334469
      px      :     0.109153
      py      :     0.114400
 12 H s       :     0.740702  s :     0.740702
      pz      :     0.114911  p :     0.280825
      px      :     0.095368
      py      :     0.070546
 13 H s       :     0.757347  s :     0.757347
      pz      :     0.075555  p :     0.279449
      px      :     0.131968
      py      :     0.071927


                      *****************************
                      * MAYER POPULATION ANALYSIS *
                      *****************************

  NA   - Mulliken gross atomic population
  ZA   - Total nuclear charge
  QA   - Mulliken gross atomic charge
  VA   - Mayer's total valence
  BVA  - Mayer's bonded valence
  FA   - Mayer's free valence

  ATOM       NA         ZA         QA         VA         BVA        FA
  0 C      5.0252     6.0000     0.9748     3.7250     3.7250    -0.0000
  1 C      6.1171     6.0000    -0.1171     5.3270     5.3270     0.0000
  2 C      5.6968     6.0000     0.3032     4.3384     4.3384     0.0000
  3 S     14.7014    16.0000     1.2986     5.0365     5.0365     0.0000
  4 H      1.1552     1.0000    -0.1552     1.1107     1.1107     0.0000
  5 H      1.0643     1.0000    -0.0643     1.0717     1.0717    -0.0000
  6 O      8.8240     8.0000    -0.8240     1.4795     1.4795    -0.0000
  7 O      8.8319     8.0000    -0.8319     1.3748     1.3748     0.0000
  8 H      1.0530     1.0000    -0.0530     0.9783     0.9783    -0.0000
  9 H      1.2530     1.0000    -0.2530     1.0539     1.0539    -0.0000
 10 O      8.8091     8.0000    -0.8091     1.4598     1.4598    -0.0000
 11 H      1.1153     1.0000    -0.1153     1.1638     1.1638    -0.0000
 12 H      1.1161     1.0000    -0.1161     0.9537     0.9537    -0.0000
 13 H      1.2377     1.0000    -0.2377     0.9354     0.9354     0.0000

  Mayer bond orders larger than 0.100000
B(  0-C ,  1-C ) :   1.3116 B(  0-C ,  8-H ) :   0.1113 B(  0-C ,  9-H ) :   0.1095 
B(  0-C , 11-H ) :   0.7735 B(  0-C , 12-H ) :   0.7088 B(  0-C , 13-H ) :   0.6613 
B(  1-C ,  2-C ) :   1.2543 B(  1-C ,  4-H ) :   0.1675 B(  1-C ,  5-H ) :   0.1598 
B(  1-C ,  8-H ) :   0.8363 B(  1-C ,  9-H ) :   0.8091 B(  1-C , 11-H ) :   0.2273 
B(  1-C , 12-H ) :   0.2323 B(  1-C , 13-H ) :   0.2627 B(  2-C ,  3-S ) :   0.8861 
B(  2-C ,  4-H ) :   0.8668 B(  2-C ,  5-H ) :   0.8800 B(  2-C ,  8-H ) :   0.1294 
B(  2-C ,  9-H ) :   0.1396 B(  3-S ,  6-O ) :   1.3729 B(  3-S ,  7-O ) :   1.2462 
B(  3-S , 10-O ) :   1.2685 

-------
TIMINGS
-------

Total SCF time: 0 days 0 hours 0 min 23 sec 

Total time                  ....      23.533 sec
Sum of individual times     ....      23.338 sec  ( 99.2%)

Fock matrix formation       ....      21.987 sec  ( 93.4%)
  Split-RI-J                ....       1.562 sec  (  7.1% of F)
  Chain of spheres X        ....      16.247 sec  ( 73.9% of F)
  XC integration            ....       4.130 sec  ( 18.8% of F)
    Basis function eval.    ....       1.349 sec  ( 32.7% of XC)
    Density eval.           ....       1.054 sec  ( 25.5% of XC)
    XC-Functional eval.     ....       0.211 sec  (  5.1% of XC)
    XC-Potential eval.      ....       1.346 sec  ( 32.6% of XC)
Diagonalization             ....       0.070 sec  (  0.3%)
Density matrix formation    ....       0.006 sec  (  0.0%)
Population analysis         ....       0.008 sec  (  0.0%)
Initial guess               ....       0.174 sec  (  0.7%)
Orbital Transformation      ....       0.000 sec  (  0.0%)
Orbital Orthonormalization  ....       0.000 sec  (  0.0%)
DIIS solution               ....       0.048 sec  (  0.2%)
SOSCF solution              ....       0.049 sec  (  0.2%)
Grid generation             ....       0.997 sec  (  4.2%)

Maximum memory used throughout the entire SCF-calculation: 55.9 MB


-------------------------------------------------------------------------------
                          DFT DISPERSION CORRECTION                            
                                                                               
                              DFTD3 V3.1  Rev 1                                
                          USING Becke-Johnson damping                          
-------------------------------------------------------------------------------
The B3LYP functional is recognized
Active option DFTDOPT                   ...         4   

molecular C6(AA) [au] = 2189.451720 


            DFT-D V3
 parameters
 s6 scaling factor         :     1.0000 
 a1 scaling factor         :     0.3981 
 s8 scaling factor         :     1.9889 
 a2 scaling factor         :     4.4211 
 ad hoc parameters k1-k3   :    16.0000     1.3333    -4.0000 

 Edisp/kcal,au: -14.587924591121  -0.023247335121 
 E6   /kcal   :  -6.760760452 
 E8   /kcal   :  -7.827164139 
 % E8         :  53.655090484 

-------------------------   ----------------
Dispersion correction           -0.023247335
-------------------------   ----------------


-------------------------   --------------------
FINAL SINGLE POINT ENERGY      -741.848409208619
-------------------------   --------------------


                            ***************************************
                            *     ORCA property calculations      *
                            ***************************************

                                    ---------------------
                                    Active property flags
                                    ---------------------
   (+) Dipole Moment


------------------------------------------------------------------------------
                       ORCA ELECTRIC PROPERTIES CALCULATION
------------------------------------------------------------------------------

Dipole Moment Calculation                       ... on
Quadrupole Moment Calculation                   ... off
Polarizability Calculation                      ... off
GBWName                                         ... 14Feb_SVPD_B3LYP_A_wt_wb97_typ1_neg.gbw
Electron density file                           ... 14Feb_SVPD_B3LYP_A_wt_wb97_typ1_neg.scfp
The origin for moment calculation is the CENTER OF MASS  = (-1.328300,  0.783619 -7.791975)

-------------
DIPOLE MOMENT
-------------
                                X             Y             Z
Electronic contribution:     -8.31574      -4.42841      -4.07198
Nuclear contribution   :      9.76868       5.90538       4.47074
                        -----------------------------------------
Total Dipole Moment    :      1.45294       1.47696       0.39876
                        -----------------------------------------
Magnitude (a.u.)       :      2.10985
Magnitude (Debye)      :      5.36282



--------------------
Rotational spectrum 
--------------------
 
Rotational constants in cm-1:     0.135183     0.058485     0.054837 
Rotational constants in MHz :  4052.676901  1753.343161  1643.972690 

 Dipole components along the rotational axes: 
x,y,z [a.u.] :    -1.836385    -1.032420     0.115205 
x,y,z [Debye]:    -4.667719    -2.624204     0.292828 

 

Timings for individual modules:

Sum of individual times         ...       24.216 sec (=   0.404 min)
GTO integral calculation        ...        0.468 sec (=   0.008 min)   1.9 %
SCF iterations                  ...       23.747 sec (=   0.396 min)  98.1 %
                             ****ORCA TERMINATED NORMALLY****
TOTAL RUN TIME: 0 days 0 hours 0 minutes 24 seconds 611 msec
