
                                        *****************
                                        * O   R   C   A *
                                        *****************

                                            #,                                       
                                            ###                                      
                                            ####                                     
                                            #####                                    
                                            ######                                   
                                           ########,                                 
                                     ,,################,,,,,                         
                               ,,#################################,,                 
                          ,,##########################################,,             
                       ,#########################################, ''#####,          
                    ,#############################################,,   '####,        
                  ,##################################################,,,,####,       
                ,###########''''           ''''###############################       
              ,#####''   ,,,,##########,,,,          '''####'''          '####       
            ,##' ,,,,###########################,,,                        '##       
           ' ,,###''''                  '''############,,,                           
         ,,##''                                '''############,,,,        ,,,,,,###''
      ,#''                                            '''#######################'''  
     '                                                          ''''####''''         
             ,#######,   #######,   ,#######,      ##                                
            ,#'     '#,  ##    ##  ,#'     '#,    #''#        ######   ,####,        
            ##       ##  ##   ,#'  ##            #'  '#       #        #'  '#        
            ##       ##  #######   ##           ,######,      #####,   #    #        
            '#,     ,#'  ##    ##  '#,     ,#' ,#      #,         ##   #,  ,#        
             '#######'   ##     ##  '#######'  #'      '#     #####' # '####'        



                  #######################################################
                  #                        -***-                        #
                  #          Department of theory and spectroscopy      #
                  #    Directorship and core code : Frank Neese         #
                  #        Max Planck Institute fuer Kohlenforschung    #
                  #                Kaiser Wilhelm Platz 1               #
                  #                 D-45470 Muelheim/Ruhr               #
                  #                      Germany                        #
                  #                                                     #
                  #                  All rights reserved                #
                  #                        -***-                        #
                  #######################################################


                         Program Version 5.0.0 -  RELEASE  -
                                (SVN: $Rev: 19529$)
                ($Date: 2021-06-28 11:36:33 +0200 (Mo, 28 Jun 2021) $)


 With contributions from (in alphabetic order):
   Daniel Aravena         : Magnetic Suceptibility
   Michael Atanasov       : Ab Initio Ligand Field Theory (pilot matlab implementation)
   Alexander A. Auer      : GIAO ZORA, VPT2 properties, NMR spectrum
   Ute Becker             : Parallelization
   Giovanni Bistoni       : ED, misc. LED, open-shell LED, HFLD
   Martin Brehm           : Molecular dynamics
   Dmytro Bykov           : SCF Hessian
   Vijay G. Chilkuri      : MRCI spin determinant printing, contributions to CSF-ICE
   Dipayan Datta          : RHF DLPNO-CCSD density
   Achintya Kumar Dutta   : EOM-CC, STEOM-CC
   Dmitry Ganyushin       : Spin-Orbit,Spin-Spin,Magnetic field MRCI
   Miquel Garcia          : C-PCM Hessian, Gaussian charge scheme
   Yang Guo               : DLPNO-NEVPT2, F12-NEVPT2, CIM, IAO-localization
   Andreas Hansen         : Spin unrestricted coupled pair/coupled cluster methods
   Benjamin Helmich-Paris : MC-RPA, TRAH-SCF, COSX integrals
   Lee Huntington         : MR-EOM, pCC
   Robert Izsak           : Overlap fitted RIJCOSX, COSX-SCS-MP3, EOM
   Marcus Kettner         : VPT2
   Christian Kollmar      : KDIIS, OOCD, Brueckner-CCSD(T), CCSD density, CASPT2, CASPT2-K
   Simone Kossmann        : Meta GGA functionals, TD-DFT gradient, OOMP2, MP2 Hessian
   Martin Krupicka        : Initial AUTO-CI
   Lucas Lang             : DCDCAS
   Marvin Lechner         : AUTO-CI (C++ implementation), FIC-MRCC
   Dagmar Lenk            : GEPOL surface, SMD
   Dimitrios Liakos       : Extrapolation schemes; Compound Job, initial MDCI parallelization
   Dimitrios Manganas     : Further ROCIS development; embedding schemes
   Dimitrios Pantazis     : SARC Basis sets
   Anastasios Papadopoulos: AUTO-CI, single reference methods and gradients
   Taras Petrenko         : DFT Hessian,TD-DFT gradient, ASA, ECA, R-Raman, ABS, FL, XAS/XES, NRVS
   Peter Pinski           : DLPNO-MP2, DLPNO-MP2 Gradient
   Christoph Reimann      : Effective Core Potentials
   Marius Retegan         : Local ZFS, SOC
   Christoph Riplinger    : Optimizer, TS searches, QM/MM, DLPNO-CCSD(T), (RO)-DLPNO pert. Triples
   Tobias Risthaus        : Range-separated hybrids, TD-DFT gradient, RPA, STAB
   Michael Roemelt        : Original ROCIS implementation
   Masaaki Saitow         : Open-shell DLPNO-CCSD energy and density
   Barbara Sandhoefer     : DKH picture change effects
   Avijit Sen             : IP-ROCIS
   Kantharuban Sivalingam : CASSCF convergence, NEVPT2, FIC-MRCI
   Bernardo de Souza      : ESD, SOC TD-DFT
   Georgi Stoychev        : AutoAux, RI-MP2 NMR
   Willem Van den Heuvel  : Paramagnetic NMR
   Boris Wezisla          : Elementary symmetry handling
   Frank Wennmohs         : Technical directorship


 We gratefully acknowledge several colleagues who have allowed us to
 interface, adapt or use parts of their codes:
   Stefan Grimme, W. Hujo, H. Kruse, P. Pracht,  : VdW corrections, initial TS optimization,
                  C. Bannwarth, S. Ehlert          DFT functionals, gCP, sTDA/sTD-DF
   Ed Valeev, F. Pavosevic, A. Kumar             : LibInt (2-el integral package), F12 methods
   Garnet Chan, S. Sharma, J. Yang, R. Olivares  : DMRG
   Ulf Ekstrom                                   : XCFun DFT Library
   Mihaly Kallay                                 : mrcc  (arbitrary order and MRCC methods)
   Jiri Pittner, Ondrej Demel                    : Mk-CCSD
   Frank Weinhold                                : gennbo (NPA and NBO analysis)
   Christopher J. Cramer and Donald G. Truhlar   : smd solvation model
   Lars Goerigk                                  : TD-DFT with DH, B97 family of functionals
   V. Asgeirsson, H. Jonsson                     : NEB implementation
   FAccTs GmbH                                   : IRC, NEB, NEB-TS, DLPNO-Multilevel, CI-OPT
                                                   MM, QMMM, 2- and 3-layer-ONIOM, Crystal-QMMM,
                                                   LR-CPCM, SF, NACMEs, symmetry and pop. for TD-DFT,
                                                   nearIR, NL-DFT gradient (VV10), updates on ESD,
                                                   ML-optimized integration grids
   S Lehtola, MJT Oliveira, MAL Marques          : LibXC Library
   Liviu Ungur et al                             : ANISO software


 Your calculation uses the libint2 library for the computation of 2-el integrals
 For citations please refer to: http://libint.valeyev.net

 Your ORCA version has been built with support for libXC version: 5.1.0
 For citations please refer to: https://tddft.org/programs/libxc/

 This ORCA versions uses:
   CBLAS   interface :  Fast vector & matrix operations
   LAPACKE interface :  Fast linear algebra routines
   SCALAPACK package :  Parallel linear algebra routines
   Shared memory     :  Shared parallel matrices
   BLAS/LAPACK       :  OpenBLAS 0.3.15  USE64BITINT DYNAMIC_ARCH NO_AFFINITY Haswell SINGLE_THREADED
        Core in use  :  Haswell
   Copyright (c) 2011-2014, The OpenBLAS Project


XCFun DFT library Copyright 2009-2010 Ulf Ekstrom and contributors.
See http://admol.org/xcfun for more information.
This is free software; see the source code for copying conditions.
There is ABSOLUTELY NO WARRANTY; not even for MERCHANTABILITY or FITNESS FOR A PARTICULAR PURPOSE.
For details see the documentation.
Scientific users of this library should cite U. Ekstrom, L. Visscher, R. Bast, A. J. Thorvaldsen and K. Ruud;
J.Chem.Theor.Comp. 2010, DOI: 10.1021/ct100117s
XCFun Version 0.99 

================================================================================

----- Orbital basis set information -----
Your calculation utilizes the basis: def2-TZVPD
   F. Weigend and R. Ahlrichs, Phys. Chem. Chem. Phys. 7, 3297 (2005).
   D. Rappoport and F. Furche, J. Chem. Phys. 133 134105 (2010).

----- AuxJ basis set information -----
Your calculation utilizes the auxiliary basis: def2/J
   F. Weigend, Phys. Chem. Chem. Phys. 8, 1057 (2006).

================================================================================
                                        WARNINGS
                       Please study these warnings very carefully!
================================================================================


INFO   : the flag for use of the SHARK integral package has been found!

================================================================================
                                       INPUT FILE
================================================================================
NAME = TZVPD_CAMB3LYP_C1_wt_dlpno_pos.com
|  1> !CAM-B3LYP RIJCOSX def2-TZVPD def2/J TightSCF
|  2> *xyz 0 1 
|  3> C          0.81607       -2.10149       -2.18655
|  4> H          1.69623       -2.36869       -1.60046
|  5> C          1.10055       -2.46749       -3.59927
|  6> C          0.51624       -0.61363       -2.03937
|  7> H         -0.02007       -2.71285       -1.84084
|  8> H          1.70061       -1.75723       -4.07838
|  9> H          0.29386       -2.35977       -4.25632
| 10> H          1.50132       -3.42848       -3.69491
| 11> H         -0.34841       -0.36504       -2.61858
| 12> H          1.35358       -0.04503       -2.38643
| 13> H          0.33317       -0.38682       -1.00984
| 14> *
| 15> %MaxCore 64000
| 16> 
| 17> %pal nprocs 4
| 18> end  
| 19> 
| 20> %scf
| 21>   MaxIter 150
| 22> end
| 23> 
| 24> 
| 25>                          ****END OF INPUT****
================================================================================

                       ****************************
                       * Single Point Calculation *
                       ****************************

---------------------------------
CARTESIAN COORDINATES (ANGSTROEM)
---------------------------------
  C      0.816070   -2.101490   -2.186550
  H      1.696230   -2.368690   -1.600460
  C      1.100550   -2.467490   -3.599270
  C      0.516240   -0.613630   -2.039370
  H     -0.020070   -2.712850   -1.840840
  H      1.700610   -1.757230   -4.078380
  H      0.293860   -2.359770   -4.256320
  H      1.501320   -3.428480   -3.694910
  H     -0.348410   -0.365040   -2.618580
  H      1.353580   -0.045030   -2.386430
  H      0.333170   -0.386820   -1.009840

----------------------------
CARTESIAN COORDINATES (A.U.)
----------------------------
  NO LB      ZA    FRAG     MASS         X           Y           Z
   0 C     6.0000    0    12.011    1.542149   -3.971241   -4.131981
   1 H     1.0000    0     1.008    3.205410   -4.476175   -3.024431
   2 C     6.0000    0    12.011    2.079738   -4.662880   -6.801635
   3 C     6.0000    0    12.011    0.975552   -1.159593   -3.853851
   4 H     1.0000    0     1.008   -0.037927   -5.126544   -3.478683
   5 H     1.0000    0     1.008    3.213687   -3.320683   -7.707021
   6 H     1.0000    0     1.008    0.555315   -4.459319   -8.043279
   7 H     1.0000    0     1.008    2.837084   -6.478888   -6.982368
   8 H     1.0000    0     1.008   -0.658399   -0.689826   -4.948399
   9 H     1.0000    0     1.008    2.557896   -0.085094   -4.509699
  10 H     1.0000    0     1.008    0.629600   -0.730984   -1.908321

--------------------------------
INTERNAL COORDINATES (ANGSTROEM)
--------------------------------
 C      0   0   0     0.000000000000     0.00000000     0.00000000
 H      1   0   0     1.090678208135     0.00000000     0.00000000
 C      1   2   0     1.486829737663   107.20969654     0.00000000
 C      1   2   3     1.524889294637   110.23327792   238.23497714
 H      1   2   3     1.091973696249   108.09753525   116.23750786
 H      3   1   2     1.045986454645   112.19915537   280.57074603
 H      3   1   2     1.045976604423   115.08391716   173.58599447
 H      3   1   2     1.045593316065   112.73631811    47.10374094
 H      4   1   2     1.070000390047   109.47083399   180.00016847
 H      4   1   2     1.069997607100   109.47052368    60.00053848
 H      4   1   2     1.069995056951   109.47133092   300.00053156

---------------------------
INTERNAL COORDINATES (A.U.)
---------------------------
 C      0   0   0     0.000000000000     0.00000000     0.00000000
 H      1   0   0     2.061083113611     0.00000000     0.00000000
 C      1   2   0     2.809701011954   107.20969654     0.00000000
 C      1   2   3     2.881623151413   110.23327792   238.23497714
 H      1   2   3     2.063531231357   108.09753525   116.23750786
 H      3   1   2     1.976627939070   112.19915537   280.57074603
 H      3   1   2     1.976609324848   115.08391716   173.58599447
 H      3   1   2     1.975885014822   112.73631811    47.10374094
 H      4   1   2     2.022007700377   109.47083399   180.00016847
 H      4   1   2     2.022002441370   109.47052368    60.00053848
 H      4   1   2     2.021997622287   109.47133092   300.00053156

---------------------
BASIS SET INFORMATION
---------------------
There are 2 groups of distinct atoms

 Group   1 Type C   : 12s6p3d1f contracted to 6s3p3d1f pattern {621111/411/111/1}
 Group   2 Type H   : 5s2p contracted to 3s2p pattern {311/11}

Atom   0C    basis set group =>   1
Atom   1H    basis set group =>   2
Atom   2C    basis set group =>   1
Atom   3C    basis set group =>   1
Atom   4H    basis set group =>   2
Atom   5H    basis set group =>   2
Atom   6H    basis set group =>   2
Atom   7H    basis set group =>   2
Atom   8H    basis set group =>   2
Atom   9H    basis set group =>   2
Atom  10H    basis set group =>   2
---------------------------------
AUXILIARY/J BASIS SET INFORMATION
---------------------------------
There are 2 groups of distinct atoms

 Group   1 Type C   : 12s5p4d2f1g contracted to 6s4p3d1f1g pattern {711111/2111/211/2/1}
 Group   2 Type H   : 5s2p1d contracted to 3s1p1d pattern {311/2/1}

Atom   0C    basis set group =>   1
Atom   1H    basis set group =>   2
Atom   2C    basis set group =>   1
Atom   3C    basis set group =>   1
Atom   4H    basis set group =>   2
Atom   5H    basis set group =>   2
Atom   6H    basis set group =>   2
Atom   7H    basis set group =>   2
Atom   8H    basis set group =>   2
Atom   9H    basis set group =>   2
Atom  10H    basis set group =>   2


           ************************************************************
           *        Program running with 4 parallel MPI-processes     *
           *              working on a common directory               *
           ************************************************************
------------------------------------------------------------------------------
                           ORCA GTO INTEGRAL CALCULATION
                           -- RI-GTO INTEGRALS CHOSEN --
------------------------------------------------------------------------------
------------------------------------------------------------------------------
                   ___                                                        
                  /   \      - P O W E R E D   B Y -                         
                 /     \                                                     
                 |  |  |   _    _      __       _____    __    __             
                 |  |  |  | |  | |    /  \     |  _  \  |  |  /  |          
                  \  \/   | |  | |   /    \    | | | |  |  | /  /          
                 / \  \   | |__| |  /  /\  \   | |_| |  |  |/  /          
                |  |  |   |  __  | /  /__\  \  |    /   |      \           
                |  |  |   | |  | | |   __   |  |    \   |  |\   \          
                \     /   | |  | | |  |  |  |  | |\  \  |  | \   \       
                 \___/    |_|  |_| |__|  |__|  |_| \__\ |__|  \__/        
                                                                              
                      - O R C A' S   B I G   F R I E N D -                    
                                      &                                       
                       - I N T E G R A L  F E E D E R -                       
                                                                              
 v1 FN, 2020, v2 2021                                                         
------------------------------------------------------------------------------


Reading SHARK input file TZVPD_CAMB3LYP_C1_wt_dlpno_pos.SHARKINP.tmp ... ok
----------------------
SHARK INTEGRAL PACKAGE
----------------------

Number of atoms                             ...     11
Number of basis functions                   ...    183
Number of shells                            ...     79
Maximum angular momentum                    ...      3
Integral batch strategy                     ... SHARK/LIBINT Hybrid
RI-J (if used) integral strategy            ... SPLIT-RIJ (Revised 2003 algorithm where possible)
Printlevel                                  ...      1
Contraction scheme used                     ... SEGMENTED contraction
Coulomb Range Separation                    ... NOT USED
Exchange Range Separation                   ... Long Range
   Mu parameter                             ...  0.330000
   Scaling (regular/separated)              ...  0.190000  0.460000
Finite Nucleus Model                        ... NOT USED
Auxiliary Coulomb fitting basis             ... AVAILABLE
   # of basis functions in Aux-J            ...    235
   # of shells in Aux-J                     ...     85
   Maximum angular momentum in Aux-J        ...      4
Auxiliary J/K fitting basis                 ... NOT available
Auxiliary Correlation fitting basis         ... NOT available
Auxiliary 'external' fitting basis          ... NOT available
Integral threshold                          ...     2.500000e-11
Primitive cut-off                           ...     2.500000e-12
Primitive pair pre-selection threshold      ...     2.500000e-12

Calculating pre-screening integrals         ... done (  0.1 sec) Dimension = 79
Organizing shell pair data                  ... done (  0.0 sec)
Shell pair information
Total number of shell pairs                 ...      3160
Shell pairs after pre-screening             ...      3137
Total number of primitive shell pairs       ...      7593
Primitive shell pairs kept                  ...      6669
          la=0 lb=0:    884 shell pairs
          la=1 lb=0:   1046 shell pairs
          la=1 lb=1:    325 shell pairs
          la=2 lb=0:    378 shell pairs
          la=2 lb=1:    225 shell pairs
          la=2 lb=2:     45 shell pairs
          la=3 lb=0:    126 shell pairs
          la=3 lb=1:     75 shell pairs
          la=3 lb=2:     27 shell pairs
          la=3 lb=3:      6 shell pairs

Calculating one electron integrals          ... done (  0.0 sec)
Calculating RI/J V-Matrix + Cholesky decomp.... done (  0.0 sec)
Calculating Nuclear repulsion               ... done (  0.0 sec) ENN=     84.242459195857 Eh

SHARK setup successfully completed in   0.2 seconds

Maximum memory used throughout the entire GTOINT-calculation: 13.8 MB


           ************************************************************
           *        Program running with 4 parallel MPI-processes     *
           *              working on a common directory               *
           ************************************************************
-------------------------------------------------------------------------------
                                 ORCA SCF
-------------------------------------------------------------------------------

------------
SCF SETTINGS
------------
Hamiltonian:
 Density Functional     Method          .... DFT(GTOs)
 Exchange Functional    Exchange        .... WB88
 Correlation Functional Correlation     .... LYP
 LDA part of GGA corr.  LDAOpt          .... VWN-5
 Gradients option       PostSCFGGA      .... off
 Hybrid DFT is turned on
   Fraction HF Exchange ScalHFX         ....  0.190000
   Scaling of DF-GGA-X  ScalDFX         ....  0.350000
   Scaling of DF-GGA-C  ScalDFC         ....  0.810000
   Scaling of DF-LDA-C  ScalLDAC        ....  1.000000
   Perturbative correction              ....  0.000000
   Density functional embedding theory  .... OFF
 Long-range corrected/Screened/Range-Separated Hybrid DFT is turned on
   Amount of maximum screened exact exchange              ....  0.460000
   Range separation parameter mu (erf(mu*r12)/r12)        ....  0.330000
 RI-approximation to the Coulomb term is turned on
   Number of AuxJ basis functions       .... 235
   RIJ-COSX (HFX calculated with COS-X)).... on


General Settings:
 Integral files         IntName         .... TZVPD_CAMB3LYP_C1_wt_dlpno_pos
 Hartree-Fock type      HFTyp           .... RHF
 Total Charge           Charge          ....    0
 Multiplicity           Mult            ....    1
 Number of Electrons    NEL             ....   26
 Basis Dimension        Dim             ....  183
 Nuclear Repulsion      ENuc            ....     84.2424591959 Eh

Convergence Acceleration:
 DIIS                   CNVDIIS         .... on
   Start iteration      DIISMaxIt       ....    12
   Startup error        DIISStart       ....  0.200000
   # of expansion vecs  DIISMaxEq       ....     5
   Bias factor          DIISBfac        ....   1.050
   Max. coefficient     DIISMaxC        ....  10.000
 Trust-Rad. Augm. Hess. CNVTRAH         .... auto
   Auto Start mean grad. ratio tolernc. ....  1.125000
   Auto Start start iteration           ....    20
   Auto Start num. interpolation iter.  ....    10
   Max. Number of Micro iterations      ....    16
   Max. Number of Macro iterations      .... Maxiter - #DIIS iter
   Number of Davidson start vectors     ....     2
   Converg. threshold I  (grad. norm)   ....   1.000e-05
   Converg. threshold II (energy diff.) ....   1.000e-08
   Grad. Scal. Fac. for Micro threshold ....   0.100
   Minimum threshold for Micro iter.    ....   0.010
   NR start threshold (gradient norm)   ....   0.001
   Initial trust radius                 ....   0.400
   Minimum AH scaling param. (alpha)    ....   1.000
   Maximum AH scaling param. (alpha)    .... 1000.000
   Orbital update algorithm             .... Taylor
   White noise on init. David. guess    .... on
   Maximum white noise                  ....   0.010
   Quad. conv. algorithm                .... NR
 SOSCF                  CNVSOSCF        .... on
   Start iteration      SOSCFMaxIt      ....   150
   Startup grad/error   SOSCFStart      ....  0.003300
 Level Shifting         CNVShift        .... on
   Level shift para.    LevelShift      ....    0.2500
   Turn off err/grad.   ShiftErr        ....    0.0010
 Zerner damping         CNVZerner       .... off
 Static damping         CNVDamp         .... on
   Fraction old density DampFac         ....    0.7000
   Max. Damping (<1)    DampMax         ....    0.9800
   Min. Damping (>=0)   DampMin         ....    0.0000
   Turn off err/grad.   DampErr         ....    0.1000
 Fernandez-Rico         CNVRico         .... off

SCF Procedure:
 Maximum # iterations   MaxIter         ....   150
 SCF integral mode      SCFMode         .... Direct
   Integral package                     .... SHARK and LIBINT hybrid scheme
 Reset frequency        DirectResetFreq ....    20
 Integral Threshold     Thresh          ....  2.500e-11 Eh
 Primitive CutOff       TCut            ....  2.500e-12 Eh

Convergence Tolerance:
 Convergence Check Mode ConvCheckMode   .... Total+1el-Energy
 Convergence forced     ConvForced      .... 0
 Energy Change          TolE            ....  1.000e-08 Eh
 1-El. energy change                    ....  1.000e-05 Eh
 Orbital Gradient       TolG            ....  1.000e-05
 Orbital Rotation angle TolX            ....  1.000e-05
 DIIS Error             TolErr          ....  5.000e-07


Diagonalization of the overlap matrix:
Smallest eigenvalue                        ... 1.021e-05
Time for diagonalization                   ...    0.010 sec
Threshold for overlap eigenvalues          ... 1.000e-08
Number of eigenvalues below threshold      ... 0
Time for construction of square roots      ...    0.007 sec
Total time needed                          ...    0.018 sec

Time for model grid setup =    0.085 sec

------------------------------
INITIAL GUESS: MODEL POTENTIAL
------------------------------
Loading Hartree-Fock densities                     ... done
Calculating cut-offs                               ... done
Initializing the effective Hamiltonian             ... done
Setting up the integral package (SHARK)            ... done
Starting the Coulomb interaction                   ... done (   0.1 sec)
Reading the grid                                   ... done
Mapping shells                                     ... done
Starting the XC term evaluation                    ... done (   0.1 sec)
  promolecular density results
     # of electrons  =     25.996607448
     EX              =    -17.734139332
     EC              =     -0.824115159
     EX+EC           =    -18.558254491
Transforming the Hamiltonian                       ... done (   0.0 sec)
Diagonalizing the Hamiltonian                      ... done (   0.0 sec)
Back transforming the eigenvectors                 ... done (   0.0 sec)
Now organizing SCF variables                       ... done
                      ------------------
                      INITIAL GUESS DONE (   0.2 sec)
                      ------------------
-------------------
DFT GRID GENERATION
-------------------

General Integration Accuracy     IntAcc      ... 4.388
Radial Grid Type                 RadialGrid  ... OptM3 with GC (2021)
Angular Grid (max. ang.)         AngularGrid ... 4 (Lebedev-302)
Angular grid pruning method      GridPruning ... 4 (adaptive)
Weight generation scheme         WeightScheme... Becke
Basis function cutoff            BFCut       ... 1.0000e-11
Integration weight cutoff        WCut        ... 1.0000e-14
Angular grids for H and He will be reduced by one unit
Partially contracted basis set               ... off
Rotationally invariant grid construction     ... off

Total number of grid points                  ...    46387
Total number of batches                      ...      730
Average number of points per batch           ...       63
Average number of grid points per atom       ...     4217
Time for grid setup =    0.289 sec

--------------------
COSX GRID GENERATION
--------------------

GRIDX 1
-------
General Integration Accuracy     IntAcc      ... 3.816
Radial Grid Type                 RadialGrid  ... OptM3 with GC (2021)
Angular Grid (max. ang.)         AngularGrid ... 1 (Lebedev-50)
Angular grid pruning method      GridPruning ... 4 (adaptive)
Weight generation scheme         WeightScheme... Becke
Basis function cutoff            BFCut       ... 1.0000e-11
Integration weight cutoff        WCut        ... 1.0000e-14
Angular grids for H and He will be reduced by one unit
Partially contracted basis set               ... on
Rotationally invariant grid construction     ... off

Total number of grid points                  ...     5837
Total number of batches                      ...       97
Average number of points per batch           ...       60
Average number of grid points per atom       ...      531
UseSFitting                                  ... on

GRIDX 2
-------
General Integration Accuracy     IntAcc      ... 4.020
Radial Grid Type                 RadialGrid  ... OptM3 with GC (2021)
Angular Grid (max. ang.)         AngularGrid ... 2 (Lebedev-110)
Angular grid pruning method      GridPruning ... 4 (adaptive)
Weight generation scheme         WeightScheme... Becke
Basis function cutoff            BFCut       ... 1.0000e-11
Integration weight cutoff        WCut        ... 1.0000e-14
Angular grids for H and He will be reduced by one unit
Partially contracted basis set               ... on
Rotationally invariant grid construction     ... off

Total number of grid points                  ...    13405
Total number of batches                      ...      217
Average number of points per batch           ...       61
Average number of grid points per atom       ...     1219
UseSFitting                                  ... on

GRIDX 3
-------
General Integration Accuracy     IntAcc      ... 4.338
Radial Grid Type                 RadialGrid  ... OptM3 with GC (2021)
Angular Grid (max. ang.)         AngularGrid ... 3 (Lebedev-194)
Angular grid pruning method      GridPruning ... 4 (adaptive)
Weight generation scheme         WeightScheme... Becke
Basis function cutoff            BFCut       ... 1.0000e-11
Integration weight cutoff        WCut        ... 1.0000e-14
Angular grids for H and He will be reduced by one unit
Partially contracted basis set               ... on
Rotationally invariant grid construction     ... off

Total number of grid points                  ...    30574
Total number of batches                      ...      482
Average number of points per batch           ...       63
Average number of grid points per atom       ...     2779
UseSFitting                                  ... on

Time for X-Grid setup             =    0.277 sec

--------------
SCF ITERATIONS
--------------
ITER       Energy         Delta-E        Max-DP      RMS-DP      [F,P]     Damp
               ***  Starting incremental Fock matrix formation  ***
  0   -118.9316452050   0.000000000000 0.17452053  0.00295878  0.2032867 0.7000
  1   -119.0024170178  -0.070771812834 0.12163743  0.00214563  0.1160145 0.7000
                               ***Turning on DIIS***
  2   -119.0360465696  -0.033629551844 0.17786771  0.00417796  0.0537401 0.0000
  3   -119.0854071773  -0.049360607644 0.08398331  0.00116813  0.0531921 0.0000
  4   -119.0963542646  -0.010947087301 0.02066389  0.00026663  0.0085929 0.0000
                      *** Initiating the SOSCF procedure ***
                           *** Shutting down DIIS ***
                      *** Re-Reading the Fockian *** 
                      *** Removing any level shift *** 
ITER      Energy       Delta-E        Grad      Rot      Max-DP    RMS-DP
  5   -119.09665182  -0.0002975583  0.000648  0.000648  0.002895  0.000074
               *** Restarting incremental Fock matrix formation ***
  6   -119.09666630  -0.0000144794  0.000260  0.000449  0.001983  0.000056
  7   -119.09666742  -0.0000011215  0.000112  0.000067  0.000500  0.000014
  8   -119.09666797  -0.0000005436  0.000007  0.000012  0.000084  0.000004
                  ***Gradient check signals convergence***
              ***Rediagonalizing the Fockian in SOSCF/NRSCF***

               *****************************************************
               *                     SUCCESS                       *
               *           SCF CONVERGED AFTER   9 CYCLES          *
               *****************************************************

Old exchange energy                            =     -5.526020834 Eh
New exchange energy                            =     -5.526010557 Eh
Exchange energy change after final integration =      0.000010277 Eh
Total energy after final integration           =   -119.096657695 Eh
Final COS-X integration done in                =     3.652 sec

----------------
TOTAL SCF ENERGY
----------------

Total Energy       :         -119.09665770 Eh           -3240.78481 eV

Components:
Nuclear Repulsion  :           84.24245920 Eh            2292.35386 eV
Electronic Energy  :         -203.33911689 Eh           -5533.13867 eV
One Electron Energy:         -325.06751041 Eh           -8845.53666 eV
Two Electron Energy:          121.72839352 Eh            3312.39799 eV
Max COSX asymmetry :            0.00000083 Eh               0.00002 eV

Virial components:
Potential Energy   :         -237.91276374 Eh           -6473.93543 eV
Kinetic Energy     :          118.81610604 Eh            3233.15062 eV
Virial Ratio       :            2.00236123


DFT components:
N(Alpha)           :       12.999982085860 electrons
N(Beta)            :       12.999982085860 electrons
N(Total)           :       25.999964171720 electrons
E(XC)              :      -13.785585580225 Eh       
DFET-embed. en.    :        0.000000000000 Eh       

---------------
SCF CONVERGENCE
---------------

  Last Energy change         ...   -5.1363e-09  Tolerance :   1.0000e-08
  Last MAX-Density change    ...    8.8818e-16  Tolerance :   1.0000e-07
  Last RMS-Density change    ...    1.5991e-17  Tolerance :   5.0000e-09
  Last Orbital Gradient      ...    2.4447e-06  Tolerance :   1.0000e-05
  Last Orbital Rotation      ...    2.5963e-06  Tolerance :   1.0000e-05

             **** THE GBW FILE WAS UPDATED (TZVPD_CAMB3LYP_C1_wt_dlpno_pos.gbw) ****
             **** DENSITY TZVPD_CAMB3LYP_C1_wt_dlpno_pos.scfp WAS UPDATED ****
             **** ENERGY FILE WAS UPDATED (TZVPD_CAMB3LYP_C1_wt_dlpno_pos.en.tmp) ****
             **** THE GBW FILE WAS UPDATED (TZVPD_CAMB3LYP_C1_wt_dlpno_pos.gbw) ****
             **** DENSITY TZVPD_CAMB3LYP_C1_wt_dlpno_pos.scfp WAS UPDATED ****
----------------
ORBITAL ENERGIES
----------------

  NO   OCC          E(Eh)            E(eV) 
   0   2.0000     -10.230696      -278.3914 
   1   2.0000     -10.220324      -278.1091 
   2   2.0000     -10.207357      -277.7563 
   3   2.0000      -0.873219       -23.7615 
   4   2.0000      -0.768841       -20.9212 
   5   2.0000      -0.666799       -18.1445 
   6   2.0000      -0.531732       -14.4692 
   7   2.0000      -0.516440       -14.0530 
   8   2.0000      -0.480635       -13.0787 
   9   2.0000      -0.443198       -12.0600 
  10   2.0000      -0.406756       -11.0684 
  11   2.0000      -0.401473       -10.9246 
  12   2.0000      -0.385327       -10.4853 
  13   0.0000       0.040020         1.0890 
  14   0.0000       0.061147         1.6639 
  15   0.0000       0.062867         1.7107 
  16   0.0000       0.090470         2.4618 
  17   0.0000       0.111036         3.0214 
  18   0.0000       0.124959         3.4003 
  19   0.0000       0.128481         3.4961 
  20   0.0000       0.133553         3.6342 
  21   0.0000       0.151896         4.1333 
  22   0.0000       0.166992         4.5441 
  23   0.0000       0.174749         4.7552 
  24   0.0000       0.178066         4.8454 
  25   0.0000       0.198705         5.4070 
  26   0.0000       0.202634         5.5139 
  27   0.0000       0.214209         5.8289 
  28   0.0000       0.225147         6.1266 
  29   0.0000       0.254900         6.9362 
  30   0.0000       0.260343         7.0843 
  31   0.0000       0.267903         7.2900 
  32   0.0000       0.280015         7.6196 
  33   0.0000       0.286799         7.8042 
  34   0.0000       0.294645         8.0177 
  35   0.0000       0.307725         8.3736 
  36   0.0000       0.313505         8.5309 
  37   0.0000       0.316666         8.6169 
  38   0.0000       0.324793         8.8381 
  39   0.0000       0.339940         9.2502 
  40   0.0000       0.342677         9.3247 
  41   0.0000       0.344770         9.3817 
  42   0.0000       0.348245         9.4762 
  43   0.0000       0.351436         9.5630 
  44   0.0000       0.356050         9.6886 
  45   0.0000       0.363480         9.8908 
  46   0.0000       0.386098        10.5063 
  47   0.0000       0.391888        10.6638 
  48   0.0000       0.407884        11.0991 
  49   0.0000       0.412601        11.2274 
  50   0.0000       0.438696        11.9375 
  51   0.0000       0.445776        12.1302 
  52   0.0000       0.450202        12.2506 
  53   0.0000       0.453780        12.3480 
  54   0.0000       0.457847        12.4587 
  55   0.0000       0.460789        12.5387 
  56   0.0000       0.468712        12.7543 
  57   0.0000       0.473925        12.8961 
  58   0.0000       0.481930        13.1140 
  59   0.0000       0.488738        13.2992 
  60   0.0000       0.496421        13.5083 
  61   0.0000       0.516722        14.0607 
  62   0.0000       0.536100        14.5880 
  63   0.0000       0.560747        15.2587 
  64   0.0000       0.568211        15.4618 
  65   0.0000       0.571584        15.5536 
  66   0.0000       0.633492        17.2382 
  67   0.0000       0.663755        18.0617 
  68   0.0000       0.689396        18.7594 
  69   0.0000       0.699859        19.0441 
  70   0.0000       0.702096        19.1050 
  71   0.0000       0.721881        19.6434 
  72   0.0000       0.732344        19.9281 
  73   0.0000       0.739866        20.1328 
  74   0.0000       0.744832        20.2679 
  75   0.0000       0.756409        20.5829 
  76   0.0000       0.767367        20.8811 
  77   0.0000       0.779159        21.2020 
  78   0.0000       0.784943        21.3594 
  79   0.0000       0.791099        21.5269 
  80   0.0000       0.805441        21.9172 
  81   0.0000       0.810940        22.0668 
  82   0.0000       0.844049        22.9678 
  83   0.0000       0.885375        24.0923 
  84   0.0000       0.900194        24.4955 
  85   0.0000       0.989892        26.9363 
  86   0.0000       1.014074        27.5944 
  87   0.0000       1.023279        27.8448 
  88   0.0000       1.057906        28.7871 
  89   0.0000       1.107404        30.1340 
  90   0.0000       1.129268        30.7289 
  91   0.0000       1.218636        33.1608 
  92   0.0000       1.237400        33.6714 
  93   0.0000       1.285923        34.9917 
  94   0.0000       1.290512        35.1166 
  95   0.0000       1.321577        35.9619 
  96   0.0000       1.350292        36.7433 
  97   0.0000       1.365985        37.1703 
  98   0.0000       1.412419        38.4339 
  99   0.0000       1.455300        39.6007 
 100   0.0000       1.715028        46.6683 
 101   0.0000       1.803447        49.0743 
 102   0.0000       1.808545        49.2130 
 103   0.0000       1.821971        49.5783 
 104   0.0000       1.832626        49.8683 
 105   0.0000       1.874712        51.0135 
 106   0.0000       1.892521        51.4981 
 107   0.0000       1.893963        51.5374 
 108   0.0000       1.902673        51.7744 
 109   0.0000       1.906867        51.8885 
 110   0.0000       1.941618        52.8341 
 111   0.0000       1.957937        53.2782 
 112   0.0000       1.995506        54.3005 
 113   0.0000       2.000134        54.4264 
 114   0.0000       2.097995        57.0894 
 115   0.0000       2.109136        57.3925 
 116   0.0000       2.120554        57.7032 
 117   0.0000       2.158772        58.7432 
 118   0.0000       2.218872        60.3786 
 119   0.0000       2.291624        62.3583 
 120   0.0000       2.362936        64.2988 
 121   0.0000       2.401310        65.3430 
 122   0.0000       2.448167        66.6180 
 123   0.0000       2.482600        67.5550 
 124   0.0000       2.498473        67.9869 
 125   0.0000       2.552151        69.4476 
 126   0.0000       2.577650        70.1414 
 127   0.0000       2.586578        70.3844 
 128   0.0000       2.604999        70.8856 
 129   0.0000       2.658184        72.3329 
 130   0.0000       2.702521        73.5393 
 131   0.0000       2.716528        73.9205 
 132   0.0000       2.737588        74.4936 
 133   0.0000       2.773110        75.4602 
 134   0.0000       2.794454        76.0410 
 135   0.0000       2.806915        76.3800 
 136   0.0000       2.817531        76.6689 
 137   0.0000       2.841773        77.3286 
 138   0.0000       2.876024        78.2606 
 139   0.0000       2.931938        79.7821 
 140   0.0000       2.944006        80.1105 
 141   0.0000       3.020636        82.1957 
 142   0.0000       3.074217        83.6537 
 143   0.0000       3.167098        86.1811 
 144   0.0000       3.187309        86.7311 
 145   0.0000       3.195079        86.9425 
 146   0.0000       3.249120        88.4131 
 147   0.0000       3.281482        89.2937 
 148   0.0000       3.341499        90.9268 
 149   0.0000       3.357846        91.3716 
 150   0.0000       3.368633        91.6652 
 151   0.0000       3.374124        91.8146 
 152   0.0000       3.463829        94.2556 
 153   0.0000       3.503323        95.3303 
 154   0.0000       3.510060        95.5136 
 155   0.0000       3.533364        96.1477 
 156   0.0000       3.600854        97.9842 
 157   0.0000       3.634223        98.8922 
 158   0.0000       3.660505        99.6074 
 159   0.0000       3.703134       100.7674 
 160   0.0000       3.763263       102.4036 
 161   0.0000       3.775281       102.7306 
 162   0.0000       3.798944       103.3745 
 163   0.0000       3.980062       108.3030 
 164   0.0000       4.044147       110.0468 
 165   0.0000       4.057877       110.4204 
 166   0.0000       4.156454       113.1029 
 167   0.0000       4.171884       113.5227 
 168   0.0000       4.195084       114.1540 
 169   0.0000       4.259638       115.9106 
 170   0.0000       4.460744       121.3830 
 171   0.0000       4.572836       124.4332 
 172   0.0000       4.581028       124.6561 
 173   0.0000       4.667504       127.0092 
 174   0.0000       4.717821       128.3784 
 175   0.0000       4.802150       130.6731 
 176   0.0000       4.828020       131.3771 
 177   0.0000       4.917587       133.8143 
 178   0.0000       5.024173       136.7147 
 179   0.0000       5.044210       137.2599 
 180   0.0000      22.652599       616.4086 
 181   0.0000      22.699928       617.6964 
 182   0.0000      22.792550       620.2168 

                    ********************************
                    * MULLIKEN POPULATION ANALYSIS *
                    ********************************

-----------------------
MULLIKEN ATOMIC CHARGES
-----------------------
   0 C :   -0.027504
   1 H :    0.252224
   2 C :   -1.305219
   3 C :   -1.133219
   4 H :    0.240876
   5 H :    0.362419
   6 H :    0.376695
   7 H :    0.304571
   8 H :    0.315002
   9 H :    0.321657
  10 H :    0.292499
Sum of atomic charges:   -0.0000000

--------------------------------
MULLIKEN REDUCED ORBITAL CHARGES
--------------------------------
  0 C s       :     3.137821  s :     3.137821
      pz      :     0.939985  p :     3.055798
      px      :     1.179379
      py      :     0.936434
      dz2     :    -0.009296  d :    -0.172190
      dxz     :    -0.061111
      dyz     :    -0.039631
      dx2y2   :    -0.016491
      dxy     :    -0.045661
      f0      :     0.001474  f :     0.006075
      f+1     :     0.000981
      f-1     :     0.000959
      f+2     :     0.000697
      f-2     :     0.000221
      f+3     :     0.000825
      f-3     :     0.000919
  1 H s       :     0.678782  s :     0.678782
      pz      :     0.026287  p :     0.068994
      px      :     0.029224
      py      :     0.013483
  2 C s       :     3.568773  s :     3.568773
      pz      :     1.015176  p :     3.665965
      px      :     1.358815
      py      :     1.291974
      dz2     :    -0.002714  d :     0.066820
      dxz     :     0.016103
      dyz     :    -0.003941
      dx2y2   :     0.017831
      dxy     :     0.039540
      f0      :     0.001108  f :     0.003662
      f+1     :     0.000928
      f-1     :     0.000694
      f+2     :     0.000225
      f-2     :     0.000168
      f+3     :     0.000444
      f-3     :     0.000094
  3 C s       :     3.474747  s :     3.474747
      pz      :     1.298340  p :     3.588563
      px      :     1.323587
      py      :     0.966636
      dz2     :     0.028504  d :     0.066394
      dxz     :     0.051119
      dyz     :    -0.003975
      dx2y2   :    -0.002375
      dxy     :    -0.006878
      f0      :     0.000922  f :     0.003515
      f+1     :     0.000250
      f-1     :     0.000237
      f+2     :     0.000482
      f-2     :     0.000009
      f+3     :     0.000738
      f-3     :     0.000876
  4 H s       :     0.692779  s :     0.692779
      pz      :     0.020011  p :     0.066345
      px      :     0.023014
      py      :     0.023320
  5 H s       :     0.584207  s :     0.584207
      pz      :     0.013385  p :     0.053375
      px      :     0.022651
      py      :     0.017339
  6 H s       :     0.572577  s :     0.572577
      pz      :     0.018882  p :     0.050728
      px      :     0.017234
      py      :     0.014612
  7 H s       :     0.609957  s :     0.609957
      pz      :     0.019194  p :     0.085472
      px      :     0.034233
      py      :     0.032045
  8 H s       :     0.619613  s :     0.619613
      pz      :     0.021339  p :     0.065385
      px      :     0.032814
      py      :     0.011232
  9 H s       :     0.612900  s :     0.612900
      pz      :     0.018863  p :     0.065444
      px      :     0.026302
      py      :     0.020279
 10 H s       :     0.628239  s :     0.628239
      pz      :     0.032303  p :     0.079263
      px      :     0.029844
      py      :     0.017115


                     *******************************
                     * LOEWDIN POPULATION ANALYSIS *
                     *******************************

----------------------
LOEWDIN ATOMIC CHARGES
----------------------
   0 C :   -0.320153
   1 H :    0.103034
   2 C :   -0.142539
   3 C :   -0.118817
   4 H :    0.104220
   5 H :    0.058318
   6 H :    0.060353
   7 H :    0.060203
   8 H :    0.067509
   9 H :    0.066491
  10 H :    0.061381

-------------------------------
LOEWDIN REDUCED ORBITAL CHARGES
-------------------------------
  0 C s       :     2.680933  s :     2.680933
      pz      :     0.947297  p :     2.812196
      px      :     0.932259
      py      :     0.932639
      dz2     :     0.148135  d :     0.782973
      dxz     :     0.166559
      dyz     :     0.197536
      dx2y2   :     0.111908
      dxy     :     0.158836
      f0      :     0.009114  f :     0.044051
      f+1     :     0.005648
      f-1     :     0.008042
      f+2     :     0.006229
      f-2     :     0.004454
      f+3     :     0.004889
      f-3     :     0.005675
  1 H s       :     0.693385  s :     0.693385
      pz      :     0.065389  p :     0.203581
      px      :     0.085084
      py      :     0.053108
  2 C s       :     2.707107  s :     2.707107
      pz      :     0.958646  p :     2.902034
      px      :     0.980435
      py      :     0.962953
      dz2     :     0.122503  d :     0.502913
      dxz     :     0.169387
      dyz     :     0.108247
      dx2y2   :     0.046407
      dxy     :     0.056369
      f0      :     0.006864  f :     0.030485
      f+1     :     0.005181
      f-1     :     0.006163
      f+2     :     0.004556
      f-2     :     0.003799
      f+3     :     0.003200
      f-3     :     0.000722
  3 C s       :     2.726964  s :     2.726964
      pz      :     0.968114  p :     2.897118
      px      :     0.973072
      py      :     0.955932
      dz2     :     0.080131  d :     0.466935
      dxz     :     0.053584
      dyz     :     0.107056
      dx2y2   :     0.088264
      dxy     :     0.137900
      f0      :     0.005101  f :     0.027800
      f+1     :     0.001101
      f-1     :     0.003139
      f+2     :     0.005165
      f-2     :     0.002883
      f+3     :     0.004787
      f-3     :     0.005624
  4 H s       :     0.694412  s :     0.694412
      pz      :     0.056407  p :     0.201368
      px      :     0.081684
      py      :     0.063277
  5 H s       :     0.701262  s :     0.701262
      pz      :     0.064748  p :     0.240420
      px      :     0.086839
      py      :     0.088833
  6 H s       :     0.705649  s :     0.705649
      pz      :     0.070155  p :     0.233998
      px      :     0.098650
      py      :     0.065193
  7 H s       :     0.713740  s :     0.713740
      pz      :     0.055445  p :     0.226057
      px      :     0.070668
      py      :     0.099944
  8 H s       :     0.707449  s :     0.707449
      pz      :     0.077208  p :     0.225042
      px      :     0.090597
      py      :     0.057238
  9 H s       :     0.706105  s :     0.706105
      pz      :     0.068762  p :     0.227404
      px      :     0.090957
      py      :     0.067685
 10 H s       :     0.713612  s :     0.713612
      pz      :     0.105771  p :     0.225007
      px      :     0.061875
      py      :     0.057360


                      *****************************
                      * MAYER POPULATION ANALYSIS *
                      *****************************

  NA   - Mulliken gross atomic population
  ZA   - Total nuclear charge
  QA   - Mulliken gross atomic charge
  VA   - Mayer's total valence
  BVA  - Mayer's bonded valence
  FA   - Mayer's free valence

  ATOM       NA         ZA         QA         VA         BVA        FA
  0 C      6.0275     6.0000    -0.0275     2.7897     2.7897    -0.0000
  1 H      0.7478     1.0000     0.2522     1.0042     1.0042    -0.0000
  2 C      7.3052     6.0000    -1.3052     3.5006     3.5006    -0.0000
  3 C      7.1332     6.0000    -1.1332     3.6113     3.6113    -0.0000
  4 H      0.7591     1.0000     0.2409     1.0105     1.0105    -0.0000
  5 H      0.6376     1.0000     0.3624     0.9464     0.9464    -0.0000
  6 H      0.6233     1.0000     0.3767     0.9426     0.9426    -0.0000
  7 H      0.6954     1.0000     0.3046     1.0265     1.0265    -0.0000
  8 H      0.6850     1.0000     0.3150     1.0182     1.0182    -0.0000
  9 H      0.6783     1.0000     0.3217     1.0009     1.0009    -0.0000
 10 H      0.7075     1.0000     0.2925     1.0530     1.0530    -0.0000

  Mayer bond orders larger than 0.100000
B(  0-C ,  1-H ) :   0.9817 B(  0-C ,  2-C ) :   0.5525 B(  0-C ,  3-C ) :   0.5806 
B(  0-C ,  4-H ) :   0.9774 B(  2-C ,  5-H ) :   0.9365 B(  2-C ,  6-H ) :   0.9400 
B(  2-C ,  7-H ) :   0.9777 B(  3-C ,  8-H ) :   0.9683 B(  3-C ,  9-H ) :   0.9676 
B(  3-C , 10-H ) :   0.9911 

-------
TIMINGS
-------

Total SCF time: 0 days 0 hours 0 min 19 sec 

Total time                  ....      19.819 sec
Sum of individual times     ....      19.635 sec  ( 99.1%)

Fock matrix formation       ....      18.710 sec  ( 94.4%)
  Split-RI-J                ....       0.722 sec  (  3.9% of F)
  Chain of spheres X        ....      15.467 sec  ( 82.7% of F)
  XC integration            ....       2.490 sec  ( 13.3% of F)
    Basis function eval.    ....       0.677 sec  ( 27.2% of XC)
    Density eval.           ....       0.535 sec  ( 21.5% of XC)
    XC-Functional eval.     ....       0.332 sec  ( 13.3% of XC)
    XC-Potential eval.      ....       0.858 sec  ( 34.5% of XC)
Diagonalization             ....       0.053 sec  (  0.3%)
Density matrix formation    ....       0.004 sec  (  0.0%)
Population analysis         ....       0.008 sec  (  0.0%)
Initial guess               ....       0.156 sec  (  0.8%)
Orbital Transformation      ....       0.000 sec  (  0.0%)
Orbital Orthonormalization  ....       0.000 sec  (  0.0%)
DIIS solution               ....       0.029 sec  (  0.1%)
SOSCF solution              ....       0.024 sec  (  0.1%)
Grid generation             ....       0.651 sec  (  3.3%)

Maximum memory used throughout the entire SCF-calculation: 66.6 MB

-------------------------   --------------------
FINAL SINGLE POINT ENERGY      -119.096657695297
-------------------------   --------------------


                            ***************************************
                            *     ORCA property calculations      *
                            ***************************************

                                    ---------------------
                                    Active property flags
                                    ---------------------
   (+) Dipole Moment


------------------------------------------------------------------------------
                       ORCA ELECTRIC PROPERTIES CALCULATION
------------------------------------------------------------------------------

Dipole Moment Calculation                       ... on
Quadrupole Moment Calculation                   ... off
Polarizability Calculation                      ... off
GBWName                                         ... TZVPD_CAMB3LYP_C1_wt_dlpno_pos.gbw
Electron density file                           ... TZVPD_CAMB3LYP_C1_wt_dlpno_pos.scfp
The origin for moment calculation is the CENTER OF MASS  = ( 1.533459, -3.247449 -4.955876)

-------------
DIPOLE MOMENT
-------------
                                X             Y             Z
Electronic contribution:     -0.01868      -0.30799       0.46406
Nuclear contribution   :      0.01737       0.30387      -0.47422
                        -----------------------------------------
Total Dipole Moment    :     -0.00131      -0.00412      -0.01016
                        -----------------------------------------
Magnitude (a.u.)       :      0.01104
Magnitude (Debye)      :      0.02805



--------------------
Rotational spectrum 
--------------------
 
Rotational constants in cm-1:     1.006891     0.295208     0.258491 
Rotational constants in MHz : 30185.831813  8850.104914  7749.351732 

 Dipole components along the rotational axes: 
x,y,z [a.u.] :    -0.009123    -0.005148     0.003472 
x,y,z [Debye]:    -0.023190    -0.013085     0.008824 

 

Timings for individual modules:

Sum of individual times         ...       24.213 sec (=   0.404 min)
GTO integral calculation        ...        2.344 sec (=   0.039 min)   9.7 %
SCF iterations                  ...       21.869 sec (=   0.364 min)  90.3 %
                             ****ORCA TERMINATED NORMALLY****
TOTAL RUN TIME: 0 days 0 hours 0 minutes 24 seconds 725 msec
