
                                        *****************
                                        * O   R   C   A *
                                        *****************

                                            #,                                       
                                            ###                                      
                                            ####                                     
                                            #####                                    
                                            ######                                   
                                           ########,                                 
                                     ,,################,,,,,                         
                               ,,#################################,,                 
                          ,,##########################################,,             
                       ,#########################################, ''#####,          
                    ,#############################################,,   '####,        
                  ,##################################################,,,,####,       
                ,###########''''           ''''###############################       
              ,#####''   ,,,,##########,,,,          '''####'''          '####       
            ,##' ,,,,###########################,,,                        '##       
           ' ,,###''''                  '''############,,,                           
         ,,##''                                '''############,,,,        ,,,,,,###''
      ,#''                                            '''#######################'''  
     '                                                          ''''####''''         
             ,#######,   #######,   ,#######,      ##                                
            ,#'     '#,  ##    ##  ,#'     '#,    #''#        ######   ,####,        
            ##       ##  ##   ,#'  ##            #'  '#       #        #'  '#        
            ##       ##  #######   ##           ,######,      #####,   #    #        
            '#,     ,#'  ##    ##  '#,     ,#' ,#      #,         ##   #,  ,#        
             '#######'   ##     ##  '#######'  #'      '#     #####' # '####'        



                  #######################################################
                  #                        -***-                        #
                  #          Department of theory and spectroscopy      #
                  #    Directorship and core code : Frank Neese         #
                  #        Max Planck Institute fuer Kohlenforschung    #
                  #                Kaiser Wilhelm Platz 1               #
                  #                 D-45470 Muelheim/Ruhr               #
                  #                      Germany                        #
                  #                                                     #
                  #                  All rights reserved                #
                  #                        -***-                        #
                  #######################################################


                         Program Version 5.0.0 -  RELEASE  -
                                (SVN: $Rev: 19529$)
                ($Date: 2021-06-28 11:36:33 +0200 (Mo, 28 Jun 2021) $)


 With contributions from (in alphabetic order):
   Daniel Aravena         : Magnetic Suceptibility
   Michael Atanasov       : Ab Initio Ligand Field Theory (pilot matlab implementation)
   Alexander A. Auer      : GIAO ZORA, VPT2 properties, NMR spectrum
   Ute Becker             : Parallelization
   Giovanni Bistoni       : ED, misc. LED, open-shell LED, HFLD
   Martin Brehm           : Molecular dynamics
   Dmytro Bykov           : SCF Hessian
   Vijay G. Chilkuri      : MRCI spin determinant printing, contributions to CSF-ICE
   Dipayan Datta          : RHF DLPNO-CCSD density
   Achintya Kumar Dutta   : EOM-CC, STEOM-CC
   Dmitry Ganyushin       : Spin-Orbit,Spin-Spin,Magnetic field MRCI
   Miquel Garcia          : C-PCM Hessian, Gaussian charge scheme
   Yang Guo               : DLPNO-NEVPT2, F12-NEVPT2, CIM, IAO-localization
   Andreas Hansen         : Spin unrestricted coupled pair/coupled cluster methods
   Benjamin Helmich-Paris : MC-RPA, TRAH-SCF, COSX integrals
   Lee Huntington         : MR-EOM, pCC
   Robert Izsak           : Overlap fitted RIJCOSX, COSX-SCS-MP3, EOM
   Marcus Kettner         : VPT2
   Christian Kollmar      : KDIIS, OOCD, Brueckner-CCSD(T), CCSD density, CASPT2, CASPT2-K
   Simone Kossmann        : Meta GGA functionals, TD-DFT gradient, OOMP2, MP2 Hessian
   Martin Krupicka        : Initial AUTO-CI
   Lucas Lang             : DCDCAS
   Marvin Lechner         : AUTO-CI (C++ implementation), FIC-MRCC
   Dagmar Lenk            : GEPOL surface, SMD
   Dimitrios Liakos       : Extrapolation schemes; Compound Job, initial MDCI parallelization
   Dimitrios Manganas     : Further ROCIS development; embedding schemes
   Dimitrios Pantazis     : SARC Basis sets
   Anastasios Papadopoulos: AUTO-CI, single reference methods and gradients
   Taras Petrenko         : DFT Hessian,TD-DFT gradient, ASA, ECA, R-Raman, ABS, FL, XAS/XES, NRVS
   Peter Pinski           : DLPNO-MP2, DLPNO-MP2 Gradient
   Christoph Reimann      : Effective Core Potentials
   Marius Retegan         : Local ZFS, SOC
   Christoph Riplinger    : Optimizer, TS searches, QM/MM, DLPNO-CCSD(T), (RO)-DLPNO pert. Triples
   Tobias Risthaus        : Range-separated hybrids, TD-DFT gradient, RPA, STAB
   Michael Roemelt        : Original ROCIS implementation
   Masaaki Saitow         : Open-shell DLPNO-CCSD energy and density
   Barbara Sandhoefer     : DKH picture change effects
   Avijit Sen             : IP-ROCIS
   Kantharuban Sivalingam : CASSCF convergence, NEVPT2, FIC-MRCI
   Bernardo de Souza      : ESD, SOC TD-DFT
   Georgi Stoychev        : AutoAux, RI-MP2 NMR
   Willem Van den Heuvel  : Paramagnetic NMR
   Boris Wezisla          : Elementary symmetry handling
   Frank Wennmohs         : Technical directorship


 We gratefully acknowledge several colleagues who have allowed us to
 interface, adapt or use parts of their codes:
   Stefan Grimme, W. Hujo, H. Kruse, P. Pracht,  : VdW corrections, initial TS optimization,
                  C. Bannwarth, S. Ehlert          DFT functionals, gCP, sTDA/sTD-DF
   Ed Valeev, F. Pavosevic, A. Kumar             : LibInt (2-el integral package), F12 methods
   Garnet Chan, S. Sharma, J. Yang, R. Olivares  : DMRG
   Ulf Ekstrom                                   : XCFun DFT Library
   Mihaly Kallay                                 : mrcc  (arbitrary order and MRCC methods)
   Jiri Pittner, Ondrej Demel                    : Mk-CCSD
   Frank Weinhold                                : gennbo (NPA and NBO analysis)
   Christopher J. Cramer and Donald G. Truhlar   : smd solvation model
   Lars Goerigk                                  : TD-DFT with DH, B97 family of functionals
   V. Asgeirsson, H. Jonsson                     : NEB implementation
   FAccTs GmbH                                   : IRC, NEB, NEB-TS, DLPNO-Multilevel, CI-OPT
                                                   MM, QMMM, 2- and 3-layer-ONIOM, Crystal-QMMM,
                                                   LR-CPCM, SF, NACMEs, symmetry and pop. for TD-DFT,
                                                   nearIR, NL-DFT gradient (VV10), updates on ESD,
                                                   ML-optimized integration grids
   S Lehtola, MJT Oliveira, MAL Marques          : LibXC Library
   Liviu Ungur et al                             : ANISO software


 Your calculation uses the libint2 library for the computation of 2-el integrals
 For citations please refer to: http://libint.valeyev.net

 Your ORCA version has been built with support for libXC version: 5.1.0
 For citations please refer to: https://tddft.org/programs/libxc/

 This ORCA versions uses:
   CBLAS   interface :  Fast vector & matrix operations
   LAPACKE interface :  Fast linear algebra routines
   SCALAPACK package :  Parallel linear algebra routines
   Shared memory     :  Shared parallel matrices
   BLAS/LAPACK       :  OpenBLAS 0.3.15  USE64BITINT DYNAMIC_ARCH NO_AFFINITY Haswell SINGLE_THREADED
        Core in use  :  Haswell
   Copyright (c) 2011-2014, The OpenBLAS Project


================================================================================

----- Orbital basis set information -----
Your calculation utilizes the basis: def2-SVP
   F. Weigend and R. Ahlrichs, Phys. Chem. Chem. Phys. 7, 3297 (2005).

----- AuxJ basis set information -----
Your calculation utilizes the auxiliary basis: def2/J
   F. Weigend, Phys. Chem. Chem. Phys. 8, 1057 (2006).

================================================================================
                                        WARNINGS
                       Please study these warnings very carefully!
================================================================================


INFO   : the flag for use of the SHARK integral package has been found!

================================================================================
                                       INPUT FILE
================================================================================
NAME = SVP_LC_PBE_C1_wt_dlpno_pos.com
|  1> !LC-PBE RIJCOSX def2-SVP def2/J TightSCF
|  2> *xyz 0 1 
|  3> C         -4.38262       -1.67089        1.21620
|  4> C         -5.76354       -1.91517        0.70501
|  5> C         -3.28173       -2.19127        0.29436
|  6> H         -5.84081       -2.11520       -0.30065
|  7> H         -6.40882       -1.14866        0.93612
|  8> H         -6.17478       -2.79061        1.05143
|  9> H         -4.32862       -2.13922        2.19810
| 10> H         -4.26158       -0.59740        1.35725
| 11> H         -3.36057       -1.71407       -0.66008
| 12> H         -3.38775       -3.24919        0.17403
| 13> H         -2.32559       -1.97514        0.72329
| 14> *
| 15> %MaxCore 64000
| 16> 
| 17> %pal nprocs 4
| 18> end  
| 19> 
| 20> %scf
| 21>   MaxIter 150
| 22> end
| 23> 
| 24>                          ****END OF INPUT****
================================================================================

                       ****************************
                       * Single Point Calculation *
                       ****************************

---------------------------------
CARTESIAN COORDINATES (ANGSTROEM)
---------------------------------
  C     -4.382620   -1.670890    1.216200
  C     -5.763540   -1.915170    0.705010
  C     -3.281730   -2.191270    0.294360
  H     -5.840810   -2.115200   -0.300650
  H     -6.408820   -1.148660    0.936120
  H     -6.174780   -2.790610    1.051430
  H     -4.328620   -2.139220    2.198100
  H     -4.261580   -0.597400    1.357250
  H     -3.360570   -1.714070   -0.660080
  H     -3.387750   -3.249190    0.174030
  H     -2.325590   -1.975140    0.723290

----------------------------
CARTESIAN COORDINATES (A.U.)
----------------------------
  NO LB      ZA    FRAG     MASS         X           Y           Z
   0 C     6.0000    0    12.011   -8.281952   -3.157524    2.298285
   1 C     6.0000    0    12.011  -10.891512   -3.619147    1.332276
   2 C     6.0000    0    12.011   -6.201571   -4.140900    0.556260
   3 H     1.0000    0     1.008  -11.037531   -3.997149   -0.568146
   4 H     1.0000    0     1.008  -12.110915   -2.170653    1.769010
   5 H     1.0000    0     1.008  -11.668643   -5.273489    1.986915
   6 H     1.0000    0     1.008   -8.179906   -4.042540    4.153807
   7 H     1.0000    0     1.008   -8.053219   -1.128922    2.564831
   8 H     1.0000    0     1.008   -6.350557   -3.239123   -1.247370
   9 H     1.0000    0     1.008   -6.401920   -6.140079    0.328869
  10 H     1.0000    0     1.008   -4.394728   -3.732474    1.366820

--------------------------------
INTERNAL COORDINATES (ANGSTROEM)
--------------------------------
 C      0   0   0     0.000000000000     0.00000000     0.00000000
 C      1   0   0     1.492624527770     0.00000000     0.00000000
 C      1   2   0     1.527266552407   113.85360497     0.00000000
 H      2   1   3     1.028267810155   115.86843235   341.16556731
 H      2   1   3     1.028268296993   112.43319480   215.56468231
 H      2   1   3     1.027385199232   113.22217752    92.88225232
 H      1   2   3     1.089209162145   106.51311974   237.05794232
 H      1   2   3     1.089461593724   107.96191473   121.80375847
 H      3   1   2     1.069995934198   109.47116357    59.66703052
 H      3   1   2     1.070006670867   109.47124267   299.66713131
 H      3   1   2     1.069998514672   109.47144710   179.66722770

---------------------------
INTERNAL COORDINATES (A.U.)
---------------------------
 C      0   0   0     0.000000000000     0.00000000     0.00000000
 C      1   0   0     2.820651578258     0.00000000     0.00000000
 C      1   2   0     2.886115517547   113.85360497     0.00000000
 H      2   1   3     1.943144553519   115.86843235   341.16556731
 H      2   1   3     1.943145473510   112.43319480   215.56468231
 H      2   1   3     1.941476660592   113.22217752    92.88225232
 H      1   2   3     2.058307019011   106.51311974   237.05794232
 H      1   2   3     2.058784045564   107.96191473   121.80375847
 H      3   1   2     2.021999280043   109.47116357    59.66703052
 H      3   1   2     2.022019569408   109.47124267   299.66713131
 H      3   1   2     2.022004156432   109.47144710   179.66722770

---------------------
BASIS SET INFORMATION
---------------------
There are 2 groups of distinct atoms

 Group   1 Type C   : 7s4p1d contracted to 3s2p1d pattern {511/31/1}
 Group   2 Type H   : 4s1p contracted to 2s1p pattern {31/1}

Atom   0C    basis set group =>   1
Atom   1C    basis set group =>   1
Atom   2C    basis set group =>   1
Atom   3H    basis set group =>   2
Atom   4H    basis set group =>   2
Atom   5H    basis set group =>   2
Atom   6H    basis set group =>   2
Atom   7H    basis set group =>   2
Atom   8H    basis set group =>   2
Atom   9H    basis set group =>   2
Atom  10H    basis set group =>   2
---------------------------------
AUXILIARY/J BASIS SET INFORMATION
---------------------------------
There are 2 groups of distinct atoms

 Group   1 Type C   : 12s5p4d2f1g contracted to 6s4p3d1f1g pattern {711111/2111/211/2/1}
 Group   2 Type H   : 5s2p1d contracted to 3s1p1d pattern {311/2/1}

Atom   0C    basis set group =>   1
Atom   1C    basis set group =>   1
Atom   2C    basis set group =>   1
Atom   3H    basis set group =>   2
Atom   4H    basis set group =>   2
Atom   5H    basis set group =>   2
Atom   6H    basis set group =>   2
Atom   7H    basis set group =>   2
Atom   8H    basis set group =>   2
Atom   9H    basis set group =>   2
Atom  10H    basis set group =>   2


           ************************************************************
           *        Program running with 4 parallel MPI-processes     *
           *              working on a common directory               *
           ************************************************************
------------------------------------------------------------------------------
                           ORCA GTO INTEGRAL CALCULATION
                           -- RI-GTO INTEGRALS CHOSEN --
------------------------------------------------------------------------------
------------------------------------------------------------------------------
                   ___                                                        
                  /   \      - P O W E R E D   B Y -                         
                 /     \                                                     
                 |  |  |   _    _      __       _____    __    __             
                 |  |  |  | |  | |    /  \     |  _  \  |  |  /  |          
                  \  \/   | |  | |   /    \    | | | |  |  | /  /          
                 / \  \   | |__| |  /  /\  \   | |_| |  |  |/  /          
                |  |  |   |  __  | /  /__\  \  |    /   |      \           
                |  |  |   | |  | | |   __   |  |    \   |  |\   \          
                \     /   | |  | | |  |  |  |  | |\  \  |  | \   \       
                 \___/    |_|  |_| |__|  |__|  |_| \__\ |__|  \__/        
                                                                              
                      - O R C A' S   B I G   F R I E N D -                    
                                      &                                       
                       - I N T E G R A L  F E E D E R -                       
                                                                              
 v1 FN, 2020, v2 2021                                                         
------------------------------------------------------------------------------


Reading SHARK input file SVP_LC_PBE_C1_wt_dlpno_pos.SHARKINP.tmp ... ok
----------------------
SHARK INTEGRAL PACKAGE
----------------------

Number of atoms                             ...     11
Number of basis functions                   ...     82
Number of shells                            ...     42
Maximum angular momentum                    ...      2
Integral batch strategy                     ... SHARK/LIBINT Hybrid
RI-J (if used) integral strategy            ... SPLIT-RIJ (Revised 2003 algorithm where possible)
Printlevel                                  ...      1
Contraction scheme used                     ... SEGMENTED contraction
Coulomb Range Separation                    ... NOT USED
Exchange Range Separation                   ... Long Range
   Mu parameter                             ...  0.470000
   Scaling (regular/separated)              ...  0.000000  1.000000
Finite Nucleus Model                        ... NOT USED
Auxiliary Coulomb fitting basis             ... AVAILABLE
   # of basis functions in Aux-J            ...    235
   # of shells in Aux-J                     ...     85
   Maximum angular momentum in Aux-J        ...      4
Auxiliary J/K fitting basis                 ... NOT available
Auxiliary Correlation fitting basis         ... NOT available
Auxiliary 'external' fitting basis          ... NOT available
Integral threshold                          ...     2.500000e-11
Primitive cut-off                           ...     2.500000e-12
Primitive pair pre-selection threshold      ...     2.500000e-12

Calculating pre-screening integrals         ... done (  0.0 sec) Dimension = 42
Organizing shell pair data                  ... done (  0.0 sec)
Shell pair information
Total number of shell pairs                 ...       903
Shell pairs after pre-screening             ...       902
Total number of primitive shell pairs       ...      2989
Primitive shell pairs kept                  ...      2572
          la=0 lb=0:    324 shell pairs
          la=1 lb=0:    350 shell pairs
          la=1 lb=1:    105 shell pairs
          la=2 lb=0:     75 shell pairs
          la=2 lb=1:     42 shell pairs
          la=2 lb=2:      6 shell pairs

Calculating one electron integrals          ... done (  0.0 sec)
Calculating RI/J V-Matrix + Cholesky decomp.... done (  0.0 sec)
Calculating Nuclear repulsion               ... done (  0.0 sec) ENN=     84.119441237167 Eh

SHARK setup successfully completed in   0.1 seconds

Maximum memory used throughout the entire GTOINT-calculation: 8.8 MB


           ************************************************************
           *        Program running with 4 parallel MPI-processes     *
           *              working on a common directory               *
           ************************************************************
-------------------------------------------------------------------------------
                                 ORCA SCF
-------------------------------------------------------------------------------

------------
SCF SETTINGS
------------
Hamiltonian:
 Density Functional     Method          .... DFT(GTOs)
 Exchange Functional    Exchange        .... LC-PBE
 Correlation Functional Correlation     .... PBE
   PBE beta parameter  CBetaPBE         ....  0.066725
 LDA part of GGA corr.  LDAOpt          .... PW91-LDA
 Gradients option       PostSCFGGA      .... off
   Density functional embedding theory  .... OFF
 Long-range corrected/Screened/Range-Separated Hybrid DFT is turned on
   Amount of maximum screened exact exchange              ....  1.000000
   Range separation parameter mu (erf(mu*r12)/r12)        ....  0.470000
   NL short-range parameter             ....  6.400000
 RI-approximation to the Coulomb term is turned on
   Number of AuxJ basis functions       .... 235
   RIJ-COSX (HFX calculated with COS-X)).... on


General Settings:
 Integral files         IntName         .... SVP_LC_PBE_C1_wt_dlpno_pos
 Hartree-Fock type      HFTyp           .... RHF
 Total Charge           Charge          ....    0
 Multiplicity           Mult            ....    1
 Number of Electrons    NEL             ....   26
 Basis Dimension        Dim             ....   82
 Nuclear Repulsion      ENuc            ....     84.1194412372 Eh

Convergence Acceleration:
 DIIS                   CNVDIIS         .... on
   Start iteration      DIISMaxIt       ....    12
   Startup error        DIISStart       ....  0.200000
   # of expansion vecs  DIISMaxEq       ....     5
   Bias factor          DIISBfac        ....   1.050
   Max. coefficient     DIISMaxC        ....  10.000
 Trust-Rad. Augm. Hess. CNVTRAH         .... auto
   Auto Start mean grad. ratio tolernc. ....  1.125000
   Auto Start start iteration           ....    20
   Auto Start num. interpolation iter.  ....    10
   Max. Number of Micro iterations      ....    16
   Max. Number of Macro iterations      .... Maxiter - #DIIS iter
   Number of Davidson start vectors     ....     2
   Converg. threshold I  (grad. norm)   ....   1.000e-05
   Converg. threshold II (energy diff.) ....   1.000e-08
   Grad. Scal. Fac. for Micro threshold ....   0.100
   Minimum threshold for Micro iter.    ....   0.010
   NR start threshold (gradient norm)   ....   0.001
   Initial trust radius                 ....   0.400
   Minimum AH scaling param. (alpha)    ....   1.000
   Maximum AH scaling param. (alpha)    .... 1000.000
   Orbital update algorithm             .... Taylor
   White noise on init. David. guess    .... on
   Maximum white noise                  ....   0.010
   Quad. conv. algorithm                .... NR
 SOSCF                  CNVSOSCF        .... on
   Start iteration      SOSCFMaxIt      ....   150
   Startup grad/error   SOSCFStart      ....  0.003300
 Level Shifting         CNVShift        .... on
   Level shift para.    LevelShift      ....    0.2500
   Turn off err/grad.   ShiftErr        ....    0.0010
 Zerner damping         CNVZerner       .... off
 Static damping         CNVDamp         .... on
   Fraction old density DampFac         ....    0.7000
   Max. Damping (<1)    DampMax         ....    0.9800
   Min. Damping (>=0)   DampMin         ....    0.0000
   Turn off err/grad.   DampErr         ....    0.1000
 Fernandez-Rico         CNVRico         .... off

SCF Procedure:
 Maximum # iterations   MaxIter         ....   150
 SCF integral mode      SCFMode         .... Direct
   Integral package                     .... SHARK and LIBINT hybrid scheme
 Reset frequency        DirectResetFreq ....    20
 Integral Threshold     Thresh          ....  2.500e-11 Eh
 Primitive CutOff       TCut            ....  2.500e-12 Eh

Convergence Tolerance:
 Convergence Check Mode ConvCheckMode   .... Total+1el-Energy
 Convergence forced     ConvForced      .... 0
 Energy Change          TolE            ....  1.000e-08 Eh
 1-El. energy change                    ....  1.000e-05 Eh
 Orbital Gradient       TolG            ....  1.000e-05
 Orbital Rotation angle TolX            ....  1.000e-05
 DIIS Error             TolErr          ....  5.000e-07


Diagonalization of the overlap matrix:
Smallest eigenvalue                        ... 2.523e-03
Time for diagonalization                   ...    0.002 sec
Threshold for overlap eigenvalues          ... 1.000e-08
Number of eigenvalues below threshold      ... 0
Time for construction of square roots      ...    0.002 sec
Total time needed                          ...    0.004 sec

Time for model grid setup =    0.041 sec

------------------------------
INITIAL GUESS: MODEL POTENTIAL
------------------------------
Loading Hartree-Fock densities                     ... done
Calculating cut-offs                               ... done
Initializing the effective Hamiltonian             ... done
Setting up the integral package (SHARK)            ... done
Starting the Coulomb interaction                   ... done (   0.0 sec)
Reading the grid                                   ... done
Mapping shells                                     ... done
Starting the XC term evaluation                    ... done (   0.0 sec)
  promolecular density results
     # of electrons  =     25.993749361
     EX              =    -11.868269875
     EC              =     -0.824218085
     EX+EC           =    -12.692487960
Transforming the Hamiltonian                       ... done (   0.0 sec)
Diagonalizing the Hamiltonian                      ... done (   0.0 sec)
Back transforming the eigenvectors                 ... done (   0.0 sec)
Now organizing SCF variables                       ... done
                      ------------------
                      INITIAL GUESS DONE (   0.1 sec)
                      ------------------
-------------------
DFT GRID GENERATION
-------------------

General Integration Accuracy     IntAcc      ... 4.388
Radial Grid Type                 RadialGrid  ... OptM3 with GC (2021)
Angular Grid (max. ang.)         AngularGrid ... 4 (Lebedev-302)
Angular grid pruning method      GridPruning ... 4 (adaptive)
Weight generation scheme         WeightScheme... Becke
Basis function cutoff            BFCut       ... 1.0000e-11
Integration weight cutoff        WCut        ... 1.0000e-14
Angular grids for H and He will be reduced by one unit
Partially contracted basis set               ... off
Rotationally invariant grid construction     ... off

Total number of grid points                  ...    43987
Total number of batches                      ...      694
Average number of points per batch           ...       63
Average number of grid points per atom       ...     3999
Time for grid setup =    0.226 sec

--------------------
COSX GRID GENERATION
--------------------

GRIDX 1
-------
General Integration Accuracy     IntAcc      ... 3.816
Radial Grid Type                 RadialGrid  ... OptM3 with GC (2021)
Angular Grid (max. ang.)         AngularGrid ... 1 (Lebedev-50)
Angular grid pruning method      GridPruning ... 4 (adaptive)
Weight generation scheme         WeightScheme... Becke
Basis function cutoff            BFCut       ... 1.0000e-11
Integration weight cutoff        WCut        ... 1.0000e-14
Angular grids for H and He will be reduced by one unit
Partially contracted basis set               ... on
Rotationally invariant grid construction     ... off

Total number of grid points                  ...     5715
Total number of batches                      ...       97
Average number of points per batch           ...       58
Average number of grid points per atom       ...      520
UseSFitting                                  ... on

GRIDX 2
-------
General Integration Accuracy     IntAcc      ... 4.020
Radial Grid Type                 RadialGrid  ... OptM3 with GC (2021)
Angular Grid (max. ang.)         AngularGrid ... 2 (Lebedev-110)
Angular grid pruning method      GridPruning ... 4 (adaptive)
Weight generation scheme         WeightScheme... Becke
Basis function cutoff            BFCut       ... 1.0000e-11
Integration weight cutoff        WCut        ... 1.0000e-14
Angular grids for H and He will be reduced by one unit
Partially contracted basis set               ... on
Rotationally invariant grid construction     ... off

Total number of grid points                  ...    11673
Total number of batches                      ...      188
Average number of points per batch           ...       62
Average number of grid points per atom       ...     1061
UseSFitting                                  ... on

GRIDX 3
-------
General Integration Accuracy     IntAcc      ... 4.338
Radial Grid Type                 RadialGrid  ... OptM3 with GC (2021)
Angular Grid (max. ang.)         AngularGrid ... 3 (Lebedev-194)
Angular grid pruning method      GridPruning ... 4 (adaptive)
Weight generation scheme         WeightScheme... Becke
Basis function cutoff            BFCut       ... 1.0000e-11
Integration weight cutoff        WCut        ... 1.0000e-14
Angular grids for H and He will be reduced by one unit
Partially contracted basis set               ... on
Rotationally invariant grid construction     ... off

Total number of grid points                  ...    25510
Total number of batches                      ...      402
Average number of points per batch           ...       63
Average number of grid points per atom       ...     2319
UseSFitting                                  ... on

Time for X-Grid setup             =    0.168 sec

--------------
SCF ITERATIONS
--------------
ITER       Energy         Delta-E        Max-DP      RMS-DP      [F,P]     Damp
               ***  Starting incremental Fock matrix formation  ***
  0   -118.5406891544   0.000000000000 0.05281951  0.00186511  0.1242952 0.7000
  1   -118.5656189817  -0.024929827363 0.03639512  0.00132733  0.0773238 0.7000
                               ***Turning on DIIS***
  2   -118.5790807308  -0.013461749049 0.06790490  0.00258117  0.0447163 0.0000
  3   -118.6013365301  -0.022255799332 0.02429867  0.00093779  0.0281427 0.0000
                      *** Initiating the SOSCF procedure ***
                           *** Shutting down DIIS ***
                      *** Re-Reading the Fockian *** 
                      *** Removing any level shift *** 
ITER      Energy       Delta-E        Grad      Rot      Max-DP    RMS-DP
  4   -118.60424073  -0.0029042041  0.001525  0.001525  0.002962  0.000188
               *** Restarting incremental Fock matrix formation ***
  5   -118.60428303  -0.0000422996  0.000405  0.000396  0.001548  0.000093
  6   -118.60428840  -0.0000053641  0.000107  0.000156  0.000653  0.000038
  7   -118.60428880  -0.0000004048  0.000051  0.000033  0.000220  0.000007
  8   -118.60428888  -0.0000000804  0.000003  0.000004  0.000009  0.000001
                  ***Gradient check signals convergence***
              ***Rediagonalizing the Fockian in SOSCF/NRSCF***

               *****************************************************
               *                     SUCCESS                       *
               *           SCF CONVERGED AFTER   9 CYCLES          *
               *****************************************************


----------------
TOTAL SCF ENERGY
----------------

Total Energy       :         -118.60428888 Eh           -3227.38678 eV

Components:
Nuclear Repulsion  :           84.11944124 Eh            2289.00637 eV
Electronic Energy  :         -202.72373012 Eh           -5516.39314 eV
One Electron Energy:         -324.62851336 Eh           -8833.59094 eV
Two Electron Energy:          121.90478324 Eh            3317.19779 eV
Max COSX asymmetry :            0.00000511 Eh               0.00014 eV

Virial components:
Potential Energy   :         -236.19973852 Eh           -6427.32164 eV
Kinetic Energy     :          117.59544964 Eh            3199.93487 eV
Virial Ratio       :            2.00857890


DFT components:
N(Alpha)           :       12.999993271853 electrons
N(Beta)            :       12.999993271853 electrons
N(Total)           :       25.999986543706 electrons
E(X)               :      -12.271220525102 Eh       
E(C)               :       -0.837314487806 Eh       
E(XC)              :      -13.108535012908 Eh       
DFET-embed. en.    :        0.000000000000 Eh       

---------------
SCF CONVERGENCE
---------------

  Last Energy change         ...   -1.2809e-09  Tolerance :   1.0000e-08
  Last MAX-Density change    ...    4.9335e-06  Tolerance :   1.0000e-07
  Last RMS-Density change    ...    2.3866e-07  Tolerance :   5.0000e-09
  Last Orbital Gradient      ...    1.0222e-06  Tolerance :   1.0000e-05
  Last Orbital Rotation      ...    1.4478e-06  Tolerance :   1.0000e-05

             **** THE GBW FILE WAS UPDATED (SVP_LC_PBE_C1_wt_dlpno_pos.gbw) ****
             **** DENSITY SVP_LC_PBE_C1_wt_dlpno_pos.scfp WAS UPDATED ****
             **** ENERGY FILE WAS UPDATED (SVP_LC_PBE_C1_wt_dlpno_pos.en.tmp) ****
             **** THE GBW FILE WAS UPDATED (SVP_LC_PBE_C1_wt_dlpno_pos.gbw) ****
             **** DENSITY SVP_LC_PBE_C1_wt_dlpno_pos.scfp WAS UPDATED ****
----------------
ORBITAL ENERGIES
----------------

  NO   OCC          E(Eh)            E(eV) 
   0   2.0000     -10.112767      -275.1824 
   1   2.0000     -10.103714      -274.9360 
   2   2.0000     -10.085877      -274.4507 
   3   2.0000      -0.960752       -26.1434 
   4   2.0000      -0.854619       -23.2554 
   5   2.0000      -0.743656       -20.2359 
   6   2.0000      -0.608643       -16.5620 
   7   2.0000      -0.585320       -15.9274 
   8   2.0000      -0.548521       -14.9260 
   9   2.0000      -0.520327       -14.1588 
  10   2.0000      -0.470166       -12.7939 
  11   2.0000      -0.463027       -12.5996 
  12   2.0000      -0.446729       -12.1561 
  13   0.0000       0.156163         4.2494 
  14   0.0000       0.205086         5.5807 
  15   0.0000       0.206701         5.6246 
  16   0.0000       0.208954         5.6859 
  17   0.0000       0.243413         6.6236 
  18   0.0000       0.247874         6.7450 
  19   0.0000       0.261234         7.1085 
  20   0.0000       0.289873         7.8878 
  21   0.0000       0.338613         9.2141 
  22   0.0000       0.373499        10.1634 
  23   0.0000       0.530931        14.4474 
  24   0.0000       0.538612        14.6564 
  25   0.0000       0.544966        14.8293 
  26   0.0000       0.582976        15.8636 
  27   0.0000       0.606361        16.4999 
  28   0.0000       0.715374        19.4663 
  29   0.0000       0.764791        20.8110 
  30   0.0000       0.771767        21.0008 
  31   0.0000       0.792600        21.5677 
  32   0.0000       0.815702        22.1964 
  33   0.0000       0.818147        22.2629 
  34   0.0000       0.825093        22.4519 
  35   0.0000       0.835640        22.7389 
  36   0.0000       0.838356        22.8128 
  37   0.0000       0.843574        22.9548 
  38   0.0000       0.854038        23.2395 
  39   0.0000       0.866475        23.5780 
  40   0.0000       0.929655        25.2972 
  41   0.0000       1.090409        29.6715 
  42   0.0000       1.199493        32.6399 
  43   0.0000       1.215179        33.0667 
  44   0.0000       1.253322        34.1046 
  45   0.0000       1.453380        39.5485 
  46   0.0000       1.506867        41.0039 
  47   0.0000       1.543118        41.9904 
  48   0.0000       1.693465        46.0815 
  49   0.0000       1.710851        46.5546 
  50   0.0000       1.759388        47.8754 
  51   0.0000       1.864605        50.7385 
  52   0.0000       1.901614        51.7455 
  53   0.0000       1.910268        51.9810 
  54   0.0000       1.949854        53.0582 
  55   0.0000       1.967734        53.5448 
  56   0.0000       1.985481        54.0277 
  57   0.0000       2.010569        54.7104 
  58   0.0000       2.035299        55.3833 
  59   0.0000       2.048744        55.7491 
  60   0.0000       2.075029        56.4644 
  61   0.0000       2.093864        56.9769 
  62   0.0000       2.160587        58.7926 
  63   0.0000       2.244511        61.0763 
  64   0.0000       2.300190        62.5914 
  65   0.0000       2.408798        65.5467 
  66   0.0000       2.419279        65.8319 
  67   0.0000       2.529575        68.8332 
  68   0.0000       2.585637        70.3587 
  69   0.0000       2.642509        71.9063 
  70   0.0000       2.658513        72.3418 
  71   0.0000       2.780434        75.6595 
  72   0.0000       2.805216        76.3338 
  73   0.0000       2.851532        77.5941 
  74   0.0000       2.953619        80.3721 
  75   0.0000       3.048721        82.9599 
  76   0.0000       3.073573        83.6362 
  77   0.0000       3.117177        84.8227 
  78   0.0000       3.166079        86.1534 
  79   0.0000       3.207296        87.2750 
  80   0.0000       3.282243        89.3144 
  81   0.0000       3.312362        90.1339 

                    ********************************
                    * MULLIKEN POPULATION ANALYSIS *
                    ********************************

-----------------------
MULLIKEN ATOMIC CHARGES
-----------------------
   0 C :   -0.191125
   1 C :   -0.075772
   2 C :   -0.132406
   3 H :    0.027894
   4 H :    0.043480
   5 H :    0.032897
   6 H :    0.061143
   7 H :    0.059494
   8 H :    0.059091
   9 H :    0.056793
  10 H :    0.058511
Sum of atomic charges:   -0.0000000

--------------------------------
MULLIKEN REDUCED ORBITAL CHARGES
--------------------------------
  0 C s       :     3.088622  s :     3.088622
      pz      :     1.035328  p :     3.064199
      px      :     0.974047
      py      :     1.054824
      dz2     :     0.009137  d :     0.038304
      dxz     :     0.007568
      dyz     :     0.004891
      dx2y2   :     0.011181
      dxy     :     0.005527
  1 C s       :     2.928013  s :     2.928013
      pz      :     1.064216  p :     3.115339
      px      :     0.999886
      py      :     1.051238
      dz2     :     0.009664  d :     0.032420
      dxz     :     0.004425
      dyz     :     0.003057
      dx2y2   :     0.004860
      dxy     :     0.010414
  2 C s       :     3.019751  s :     3.019751
      pz      :     1.025271  p :     3.083139
      px      :     1.015941
      py      :     1.041926
      dz2     :     0.007103  d :     0.029516
      dxz     :     0.005670
      dyz     :     0.004765
      dx2y2   :     0.009453
      dxy     :     0.002525
  3 H s       :     0.946611  s :     0.946611
      pz      :     0.014155  p :     0.025495
      px      :     0.004411
      py      :     0.006929
  4 H s       :     0.931455  s :     0.931455
      pz      :     0.006338  p :     0.025065
      px      :     0.007961
      py      :     0.010766
  5 H s       :     0.941574  s :     0.941574
      pz      :     0.007610  p :     0.025529
      px      :     0.005983
      py      :     0.011937
  6 H s       :     0.918134  s :     0.918134
      pz      :     0.010842  p :     0.020723
      px      :     0.003886
      py      :     0.005995
  7 H s       :     0.919827  s :     0.919827
      pz      :     0.004299  p :     0.020678
      px      :     0.003835
      py      :     0.012544
  8 H s       :     0.918444  s :     0.918444
      pz      :     0.011420  p :     0.022465
      px      :     0.004447
      py      :     0.006599
  9 H s       :     0.920647  s :     0.920647
      pz      :     0.004784  p :     0.022561
      px      :     0.004598
      py      :     0.013179
 10 H s       :     0.919006  s :     0.919006
      pz      :     0.006075  p :     0.022483
      px      :     0.011213
      py      :     0.005196


                     *******************************
                     * LOEWDIN POPULATION ANALYSIS *
                     *******************************

----------------------
LOEWDIN ATOMIC CHARGES
----------------------
   0 C :   -0.069347
   1 C :   -0.087602
   2 C :   -0.087981
   3 H :    0.026146
   4 H :    0.028471
   5 H :    0.028182
   6 H :    0.033759
   7 H :    0.032408
   8 H :    0.032003
   9 H :    0.031182
  10 H :    0.032779

-------------------------------
LOEWDIN REDUCED ORBITAL CHARGES
-------------------------------
  0 C s       :     2.816100  s :     2.816100
      pz      :     1.061477  p :     3.162181
      px      :     1.026477
      py      :     1.074228
      dz2     :     0.020389  d :     0.091066
      dxz     :     0.019519
      dyz     :     0.011723
      dx2y2   :     0.027519
      dxy     :     0.011915
  1 C s       :     2.774164  s :     2.774164
      pz      :     1.099040  p :     3.231999
      px      :     1.042359
      py      :     1.090599
      dz2     :     0.024397  d :     0.081439
      dxz     :     0.010978
      dyz     :     0.007669
      dx2y2   :     0.014156
      dxy     :     0.024240
  2 C s       :     2.814069  s :     2.814069
      pz      :     1.066869  p :     3.201242
      px      :     1.054823
      py      :     1.079550
      dz2     :     0.016403  d :     0.072671
      dxz     :     0.015437
      dyz     :     0.011594
      dx2y2   :     0.023010
      dxy     :     0.006226
  3 H s       :     0.895021  s :     0.895021
      pz      :     0.040852  p :     0.078832
      px      :     0.017091
      py      :     0.020890
  4 H s       :     0.894211  s :     0.894211
      pz      :     0.019665  p :     0.077318
      px      :     0.027107
      py      :     0.030546
  5 H s       :     0.892953  s :     0.892953
      pz      :     0.022684  p :     0.078866
      px      :     0.021549
      py      :     0.034633
  6 H s       :     0.899773  s :     0.899773
      pz      :     0.034289  p :     0.066468
      px      :     0.013843
      py      :     0.018336
  7 H s       :     0.901489  s :     0.901489
      pz      :     0.014179  p :     0.066103
      px      :     0.013714
      py      :     0.038210
  8 H s       :     0.898847  s :     0.898847
      pz      :     0.035370  p :     0.069150
      px      :     0.014341
      py      :     0.019439
  9 H s       :     0.899535  s :     0.899535
      pz      :     0.014772  p :     0.069283
      px      :     0.014750
      py      :     0.039761
 10 H s       :     0.898093  s :     0.898093
      pz      :     0.018552  p :     0.069128
      px      :     0.035293
      py      :     0.015283


                      *****************************
                      * MAYER POPULATION ANALYSIS *
                      *****************************

  NA   - Mulliken gross atomic population
  ZA   - Total nuclear charge
  QA   - Mulliken gross atomic charge
  VA   - Mayer's total valence
  BVA  - Mayer's bonded valence
  FA   - Mayer's free valence

  ATOM       NA         ZA         QA         VA         BVA        FA
  0 C      6.1911     6.0000    -0.1911     4.1000     4.1000    -0.0000
  1 C      6.0758     6.0000    -0.0758     3.9557     3.9557    -0.0000
  2 C      6.1324     6.0000    -0.1324     3.9963     3.9963    -0.0000
  3 H      0.9721     1.0000     0.0279     0.9985     0.9985    -0.0000
  4 H      0.9565     1.0000     0.0435     0.9898     0.9898    -0.0000
  5 H      0.9671     1.0000     0.0329     0.9871     0.9871    -0.0000
  6 H      0.9389     1.0000     0.0611     0.9671     0.9671    -0.0000
  7 H      0.9405     1.0000     0.0595     0.9683     0.9683    -0.0000
  8 H      0.9409     1.0000     0.0591     0.9822     0.9822     0.0000
  9 H      0.9432     1.0000     0.0568     0.9816     0.9816     0.0000
 10 H      0.9415     1.0000     0.0585     0.9835     0.9835     0.0000

  Mayer bond orders larger than 0.100000
B(  0-C ,  1-C ) :   1.0578 B(  0-C ,  2-C ) :   1.0770 B(  0-C ,  6-H ) :   0.9695 
B(  0-C ,  7-H ) :   0.9734 B(  1-C ,  3-H ) :   0.9762 B(  1-C ,  4-H ) :   0.9761 
B(  1-C ,  5-H ) :   0.9713 B(  2-C ,  8-H ) :   0.9772 B(  2-C ,  9-H ) :   0.9798 
B(  2-C , 10-H ) :   0.9775 

-------
TIMINGS
-------

Total SCF time: 0 days 0 hours 0 min 4 sec 

Total time                  ....       4.568 sec
Sum of individual times     ....       4.417 sec  ( 96.7%)

Fock matrix formation       ....       3.907 sec  ( 85.5%)
  Split-RI-J                ....       0.198 sec  (  5.1% of F)
  Chain of spheres X        ....       2.848 sec  ( 72.9% of F)
  XC integration            ....       0.847 sec  ( 21.7% of F)
    Basis function eval.    ....       0.329 sec  ( 38.8% of XC)
    Density eval.           ....       0.145 sec  ( 17.1% of XC)
    XC-Functional eval.     ....       0.171 sec  ( 20.1% of XC)
    XC-Potential eval.      ....       0.144 sec  ( 17.0% of XC)
Diagonalization             ....       0.012 sec  (  0.3%)
Density matrix formation    ....       0.001 sec  (  0.0%)
Population analysis         ....       0.003 sec  (  0.1%)
Initial guess               ....       0.041 sec  (  0.9%)
Orbital Transformation      ....       0.000 sec  (  0.0%)
Orbital Orthonormalization  ....       0.000 sec  (  0.0%)
DIIS solution               ....       0.009 sec  (  0.2%)
SOSCF solution              ....       0.009 sec  (  0.2%)
Grid generation             ....       0.435 sec  (  9.5%)

Maximum memory used throughout the entire SCF-calculation: 14.0 MB

-------------------------   --------------------
FINAL SINGLE POINT ENERGY      -118.604288884339
-------------------------   --------------------


                            ***************************************
                            *     ORCA property calculations      *
                            ***************************************

                                    ---------------------
                                    Active property flags
                                    ---------------------
   (+) Dipole Moment


------------------------------------------------------------------------------
                       ORCA ELECTRIC PROPERTIES CALCULATION
------------------------------------------------------------------------------

Dipole Moment Calculation                       ... on
Quadrupole Moment Calculation                   ... off
Polarizability Calculation                      ... off
GBWName                                         ... SVP_LC_PBE_C1_wt_dlpno_pos.gbw
Electron density file                           ... SVP_LC_PBE_C1_wt_dlpno_pos.scfp
The origin for moment calculation is the CENTER OF MASS  = (-8.470475, -3.653155  1.377089)

-------------
DIPOLE MOMENT
-------------
                                X             Y             Z
Electronic contribution:      0.17936       0.23082       0.32993
Nuclear contribution   :     -0.21528      -0.24783      -0.32864
                        -----------------------------------------
Total Dipole Moment    :     -0.03591      -0.01701       0.00129
                        -----------------------------------------
Magnitude (a.u.)       :      0.03976
Magnitude (Debye)      :      0.10106



--------------------
Rotational spectrum 
--------------------
 
Rotational constants in cm-1:     1.037566     0.286459     0.254172 
Rotational constants in MHz : 31105.431429  8587.814531  7619.871198 

 Dipole components along the rotational axes: 
x,y,z [a.u.] :     0.033639    -0.013948    -0.015955 
x,y,z [Debye]:     0.085504    -0.035452    -0.040554 

 

Timings for individual modules:

Sum of individual times         ...        8.206 sec (=   0.137 min)
GTO integral calculation        ...        1.724 sec (=   0.029 min)  21.0 %
SCF iterations                  ...        6.481 sec (=   0.108 min)  79.0 %
                             ****ORCA TERMINATED NORMALLY****
TOTAL RUN TIME: 0 days 0 hours 0 minutes 8 seconds 687 msec
