
                                        *****************
                                        * O   R   C   A *
                                        *****************

                                            #,                                       
                                            ###                                      
                                            ####                                     
                                            #####                                    
                                            ######                                   
                                           ########,                                 
                                     ,,################,,,,,                         
                               ,,#################################,,                 
                          ,,##########################################,,             
                       ,#########################################, ''#####,          
                    ,#############################################,,   '####,        
                  ,##################################################,,,,####,       
                ,###########''''           ''''###############################       
              ,#####''   ,,,,##########,,,,          '''####'''          '####       
            ,##' ,,,,###########################,,,                        '##       
           ' ,,###''''                  '''############,,,                           
         ,,##''                                '''############,,,,        ,,,,,,###''
      ,#''                                            '''#######################'''  
     '                                                          ''''####''''         
             ,#######,   #######,   ,#######,      ##                                
            ,#'     '#,  ##    ##  ,#'     '#,    #''#        ######   ,####,        
            ##       ##  ##   ,#'  ##            #'  '#       #        #'  '#        
            ##       ##  #######   ##           ,######,      #####,   #    #        
            '#,     ,#'  ##    ##  '#,     ,#' ,#      #,         ##   #,  ,#        
             '#######'   ##     ##  '#######'  #'      '#     #####' # '####'        



                  #######################################################
                  #                        -***-                        #
                  #          Department of theory and spectroscopy      #
                  #    Directorship and core code : Frank Neese         #
                  #        Max Planck Institute fuer Kohlenforschung    #
                  #                Kaiser Wilhelm Platz 1               #
                  #                 D-45470 Muelheim/Ruhr               #
                  #                      Germany                        #
                  #                                                     #
                  #                  All rights reserved                #
                  #                        -***-                        #
                  #######################################################


                         Program Version 5.0.0 -  RELEASE  -
                                (SVN: $Rev: 19529$)
                ($Date: 2021-06-28 11:36:33 +0200 (Mo, 28 Jun 2021) $)


 With contributions from (in alphabetic order):
   Daniel Aravena         : Magnetic Suceptibility
   Michael Atanasov       : Ab Initio Ligand Field Theory (pilot matlab implementation)
   Alexander A. Auer      : GIAO ZORA, VPT2 properties, NMR spectrum
   Ute Becker             : Parallelization
   Giovanni Bistoni       : ED, misc. LED, open-shell LED, HFLD
   Martin Brehm           : Molecular dynamics
   Dmytro Bykov           : SCF Hessian
   Vijay G. Chilkuri      : MRCI spin determinant printing, contributions to CSF-ICE
   Dipayan Datta          : RHF DLPNO-CCSD density
   Achintya Kumar Dutta   : EOM-CC, STEOM-CC
   Dmitry Ganyushin       : Spin-Orbit,Spin-Spin,Magnetic field MRCI
   Miquel Garcia          : C-PCM Hessian, Gaussian charge scheme
   Yang Guo               : DLPNO-NEVPT2, F12-NEVPT2, CIM, IAO-localization
   Andreas Hansen         : Spin unrestricted coupled pair/coupled cluster methods
   Benjamin Helmich-Paris : MC-RPA, TRAH-SCF, COSX integrals
   Lee Huntington         : MR-EOM, pCC
   Robert Izsak           : Overlap fitted RIJCOSX, COSX-SCS-MP3, EOM
   Marcus Kettner         : VPT2
   Christian Kollmar      : KDIIS, OOCD, Brueckner-CCSD(T), CCSD density, CASPT2, CASPT2-K
   Simone Kossmann        : Meta GGA functionals, TD-DFT gradient, OOMP2, MP2 Hessian
   Martin Krupicka        : Initial AUTO-CI
   Lucas Lang             : DCDCAS
   Marvin Lechner         : AUTO-CI (C++ implementation), FIC-MRCC
   Dagmar Lenk            : GEPOL surface, SMD
   Dimitrios Liakos       : Extrapolation schemes; Compound Job, initial MDCI parallelization
   Dimitrios Manganas     : Further ROCIS development; embedding schemes
   Dimitrios Pantazis     : SARC Basis sets
   Anastasios Papadopoulos: AUTO-CI, single reference methods and gradients
   Taras Petrenko         : DFT Hessian,TD-DFT gradient, ASA, ECA, R-Raman, ABS, FL, XAS/XES, NRVS
   Peter Pinski           : DLPNO-MP2, DLPNO-MP2 Gradient
   Christoph Reimann      : Effective Core Potentials
   Marius Retegan         : Local ZFS, SOC
   Christoph Riplinger    : Optimizer, TS searches, QM/MM, DLPNO-CCSD(T), (RO)-DLPNO pert. Triples
   Tobias Risthaus        : Range-separated hybrids, TD-DFT gradient, RPA, STAB
   Michael Roemelt        : Original ROCIS implementation
   Masaaki Saitow         : Open-shell DLPNO-CCSD energy and density
   Barbara Sandhoefer     : DKH picture change effects
   Avijit Sen             : IP-ROCIS
   Kantharuban Sivalingam : CASSCF convergence, NEVPT2, FIC-MRCI
   Bernardo de Souza      : ESD, SOC TD-DFT
   Georgi Stoychev        : AutoAux, RI-MP2 NMR
   Willem Van den Heuvel  : Paramagnetic NMR
   Boris Wezisla          : Elementary symmetry handling
   Frank Wennmohs         : Technical directorship


 We gratefully acknowledge several colleagues who have allowed us to
 interface, adapt or use parts of their codes:
   Stefan Grimme, W. Hujo, H. Kruse, P. Pracht,  : VdW corrections, initial TS optimization,
                  C. Bannwarth, S. Ehlert          DFT functionals, gCP, sTDA/sTD-DF
   Ed Valeev, F. Pavosevic, A. Kumar             : LibInt (2-el integral package), F12 methods
   Garnet Chan, S. Sharma, J. Yang, R. Olivares  : DMRG
   Ulf Ekstrom                                   : XCFun DFT Library
   Mihaly Kallay                                 : mrcc  (arbitrary order and MRCC methods)
   Jiri Pittner, Ondrej Demel                    : Mk-CCSD
   Frank Weinhold                                : gennbo (NPA and NBO analysis)
   Christopher J. Cramer and Donald G. Truhlar   : smd solvation model
   Lars Goerigk                                  : TD-DFT with DH, B97 family of functionals
   V. Asgeirsson, H. Jonsson                     : NEB implementation
   FAccTs GmbH                                   : IRC, NEB, NEB-TS, DLPNO-Multilevel, CI-OPT
                                                   MM, QMMM, 2- and 3-layer-ONIOM, Crystal-QMMM,
                                                   LR-CPCM, SF, NACMEs, symmetry and pop. for TD-DFT,
                                                   nearIR, NL-DFT gradient (VV10), updates on ESD,
                                                   ML-optimized integration grids
   S Lehtola, MJT Oliveira, MAL Marques          : LibXC Library
   Liviu Ungur et al                             : ANISO software


 Your calculation uses the libint2 library for the computation of 2-el integrals
 For citations please refer to: http://libint.valeyev.net

 Your ORCA version has been built with support for libXC version: 5.1.0
 For citations please refer to: https://tddft.org/programs/libxc/

 This ORCA versions uses:
   CBLAS   interface :  Fast vector & matrix operations
   LAPACKE interface :  Fast linear algebra routines
   SCALAPACK package :  Parallel linear algebra routines
   Shared memory     :  Shared parallel matrices
   BLAS/LAPACK       :  OpenBLAS 0.3.15  USE64BITINT DYNAMIC_ARCH NO_AFFINITY Haswell SINGLE_THREADED
        Core in use  :  Haswell
   Copyright (c) 2011-2014, The OpenBLAS Project


Your calculation utilizes the atom-pairwise dispersion correction
with the Becke-Johnson damping scheme (D3BJ)
Cite in your paper:
S.Grimme, S.Ehrlich, L.Goerigk, J Comput Chem, (2011), 32, 1456–1465 
S.Grimme, J.Antony, S.Ehrlich and H.Krieg, J.Chem.Phys., 132, (2010), 154104 
   

================================================================================

----- Orbital basis set information -----
Your calculation utilizes the basis: def2-SVP
   F. Weigend and R. Ahlrichs, Phys. Chem. Chem. Phys. 7, 3297 (2005).

----- AuxJ basis set information -----
Your calculation utilizes the auxiliary basis: def2/J
   F. Weigend, Phys. Chem. Chem. Phys. 8, 1057 (2006).

================================================================================
                                        WARNINGS
                       Please study these warnings very carefully!
================================================================================



WARNING: Found flag for RIJCOSX approximation but no HF exchange needed!
  ===> : RIJCOSX  will be disabled and Split-RI-J is turned on

INFO   : the flag for use of the SHARK integral package has been found!

================================================================================
                                       INPUT FILE
================================================================================
NAME = SVP_TPSS_C2_wt_dlpno_pos.com
|  1> !TPSS D3BJ RIJCOSX def2-SVP def2/J TightSCF
|  2> *xyz 0 1
|  3> C          3.38093        2.08304       -3.35013
|  4> N          4.53592        1.18245       -3.42852
|  5> C          2.49556        1.81615       -2.13636
|  6> C          4.67196        0.12227       -4.22060
|  7> C          5.86602       -0.50785       -4.22428
|  8> N          3.69888       -0.31284       -4.98699
|  9> H          2.73141       -0.05009       -4.84900
| 10> H          3.89005       -1.05517       -5.64373
| 11> H          5.25193        1.30346       -2.72101
| 12> H          6.69516       -0.06232       -3.85160
| 13> H          5.97538       -1.39688       -4.69141
| 14> H          2.80646        1.98651       -4.26848
| 15> H          3.77871        3.09828       -3.30738
| 16> H          2.11090        0.81901       -2.18783
| 17> H          1.68276        2.51198       -2.12786
| 18> H          3.07216        1.93031       -1.24227
| 19> *
| 20> 
| 21> %MaxCore 64000
| 22> 
| 23> %pal nprocs 4
| 24> end  
| 25> 
| 26> %scf
| 27>   MaxIter 150
| 28> end
| 29> 
| 30> 
| 31>                          ****END OF INPUT****
================================================================================

                       ****************************
                       * Single Point Calculation *
                       ****************************

---------------------------------
CARTESIAN COORDINATES (ANGSTROEM)
---------------------------------
  C      3.380930    2.083040   -3.350130
  N      4.535920    1.182450   -3.428520
  C      2.495560    1.816150   -2.136360
  C      4.671960    0.122270   -4.220600
  C      5.866020   -0.507850   -4.224280
  N      3.698880   -0.312840   -4.986990
  H      2.731410   -0.050090   -4.849000
  H      3.890050   -1.055170   -5.643730
  H      5.251930    1.303460   -2.721010
  H      6.695160   -0.062320   -3.851600
  H      5.975380   -1.396880   -4.691410
  H      2.806460    1.986510   -4.268480
  H      3.778710    3.098280   -3.307380
  H      2.110900    0.819010   -2.187830
  H      1.682760    2.511980   -2.127860
  H      3.072160    1.930310   -1.242270

----------------------------
CARTESIAN COORDINATES (A.U.)
----------------------------
  NO LB      ZA    FRAG     MASS         X           Y           Z
   0 C     6.0000    0    12.011    6.389032    3.936375   -6.330828
   1 N     7.0000    0    14.007    8.571647    2.234507   -6.478964
   2 C     6.0000    0    12.011    4.715925    3.432026   -4.037135
   3 C     6.0000    0    12.011    8.828725    0.231057   -7.975778
   4 C     6.0000    0    12.011   11.085171   -0.959697   -7.982732
   5 N     7.0000    0    14.007    6.989870   -0.591182   -9.424045
   6 H     1.0000    0     1.008    5.161617   -0.094656   -9.163282
   7 H     1.0000    0     1.008    7.351129   -1.993982  -10.665104
   8 H     1.0000    0     1.008    9.924709    2.463182   -5.141964
   9 H     1.0000    0     1.008   12.652019   -0.117768   -7.278469
  10 H     1.0000    0     1.008   11.291832   -2.639721   -8.865480
  11 H     1.0000    0     1.008    5.303441    3.753960   -8.066258
  12 H     1.0000    0     1.008    7.140727    5.854901   -6.250042
  13 H     1.0000    0     1.008    3.989023    1.547705   -4.134400
  14 H     1.0000    0     1.008    3.179956    4.746954   -4.021073
  15 H     1.0000    0     1.008    5.805541    3.647757   -2.347550

--------------------------------
INTERNAL COORDINATES (ANGSTROEM)
--------------------------------
 C      0   0   0     0.000000000000     0.00000000     0.00000000
 N      1   0   0     1.466700119418     0.00000000     0.00000000
 C      1   2   0     1.525892500113   113.08111731     0.00000000
 C      2   1   3     1.330368084554   126.98938656   102.39062418
 C      4   2   1     1.350127416357   117.64459308   174.24709975
 N      4   2   1     1.312843871372   122.40398904   354.61462441
 H      6   4   2     1.011966898421   122.88508084   342.67073608
 H      6   4   2     1.009409344815   118.89240317   173.11235798
 H      2   1   3     1.013846211365   116.45877876   291.29629415
 H      5   4   2     1.012353941515   121.19466995   343.47510404
 H      5   4   2     1.010219969809   120.51230720   170.23250373
 H      1   2   3     1.087520365005   108.44174395   237.12574124
 H      1   2   3     1.091223509873   106.63701105   121.10186677
 H      3   1   2     1.070000306589   109.47067085   299.14133701
 H      3   1   2     1.069997887334   109.47128745   179.14208237
 H      3   1   2     1.069998595186   109.47169847    59.14222448

---------------------------
INTERNAL COORDINATES (A.U.)
---------------------------
 C      0   0   0     0.000000000000     0.00000000     0.00000000
 N      1   0   0     2.771661546289     0.00000000     0.00000000
 C      1   2   0     2.883518935017   113.08111731     0.00000000
 C      2   1   3     2.514031337117   126.98938656   102.39062418
 C      4   2   1     2.551371062814   117.64459308   174.24709975
 N      4   2   1     2.480915373491   122.40398904   354.61462441
 H      6   4   2     1.912340294610   122.88508084   342.67073608
 H      6   4   2     1.907507218721   118.89240317   173.11235798
 H      2   1   3     1.915891681394   116.45877876   291.29629415
 H      5   4   2     1.913071700058   121.19466995   343.47510404
 H      5   4   2     1.909039077956   120.51230720   170.23250373
 H      1   2   3     2.055115654921   108.44174395   237.12574124
 H      1   2   3     2.062113584557   106.63701105   121.10186677
 H      3   1   2     2.022007542664   109.47067085   299.14133701
 H      3   1   2     2.022002970936   109.47128745   179.14208237
 H      3   1   2     2.022004308582   109.47169847    59.14222448

---------------------
BASIS SET INFORMATION
---------------------
There are 3 groups of distinct atoms

 Group   1 Type C   : 7s4p1d contracted to 3s2p1d pattern {511/31/1}
 Group   2 Type N   : 7s4p1d contracted to 3s2p1d pattern {511/31/1}
 Group   3 Type H   : 4s1p contracted to 2s1p pattern {31/1}

Atom   0C    basis set group =>   1
Atom   1N    basis set group =>   2
Atom   2C    basis set group =>   1
Atom   3C    basis set group =>   1
Atom   4C    basis set group =>   1
Atom   5N    basis set group =>   2
Atom   6H    basis set group =>   3
Atom   7H    basis set group =>   3
Atom   8H    basis set group =>   3
Atom   9H    basis set group =>   3
Atom  10H    basis set group =>   3
Atom  11H    basis set group =>   3
Atom  12H    basis set group =>   3
Atom  13H    basis set group =>   3
Atom  14H    basis set group =>   3
Atom  15H    basis set group =>   3
---------------------------------
AUXILIARY/J BASIS SET INFORMATION
---------------------------------
There are 3 groups of distinct atoms

 Group   1 Type C   : 12s5p4d2f1g contracted to 6s4p3d1f1g pattern {711111/2111/211/2/1}
 Group   2 Type N   : 12s5p4d2f1g contracted to 6s4p3d1f1g pattern {711111/2111/211/2/1}
 Group   3 Type H   : 5s2p1d contracted to 3s1p1d pattern {311/2/1}

Atom   0C    basis set group =>   1
Atom   1N    basis set group =>   2
Atom   2C    basis set group =>   1
Atom   3C    basis set group =>   1
Atom   4C    basis set group =>   1
Atom   5N    basis set group =>   2
Atom   6H    basis set group =>   3
Atom   7H    basis set group =>   3
Atom   8H    basis set group =>   3
Atom   9H    basis set group =>   3
Atom  10H    basis set group =>   3
Atom  11H    basis set group =>   3
Atom  12H    basis set group =>   3
Atom  13H    basis set group =>   3
Atom  14H    basis set group =>   3
Atom  15H    basis set group =>   3


           ************************************************************
           *        Program running with 4 parallel MPI-processes     *
           *              working on a common directory               *
           ************************************************************
------------------------------------------------------------------------------
                           ORCA GTO INTEGRAL CALCULATION
                           -- RI-GTO INTEGRALS CHOSEN --
------------------------------------------------------------------------------
------------------------------------------------------------------------------
                   ___                                                        
                  /   \      - P O W E R E D   B Y -                         
                 /     \                                                     
                 |  |  |   _    _      __       _____    __    __             
                 |  |  |  | |  | |    /  \     |  _  \  |  |  /  |          
                  \  \/   | |  | |   /    \    | | | |  |  | /  /          
                 / \  \   | |__| |  /  /\  \   | |_| |  |  |/  /          
                |  |  |   |  __  | /  /__\  \  |    /   |      \           
                |  |  |   | |  | | |   __   |  |    \   |  |\   \          
                \     /   | |  | | |  |  |  |  | |\  \  |  | \   \       
                 \___/    |_|  |_| |__|  |__|  |_| \__\ |__|  \__/        
                                                                              
                      - O R C A' S   B I G   F R I E N D -                    
                                      &                                       
                       - I N T E G R A L  F E E D E R -                       
                                                                              
 v1 FN, 2020, v2 2021                                                         
------------------------------------------------------------------------------


Reading SHARK input file SVP_TPSS_C2_wt_dlpno_pos.SHARKINP.tmp ... ok
----------------------
SHARK INTEGRAL PACKAGE
----------------------

Number of atoms                             ...     16
Number of basis functions                   ...    134
Number of shells                            ...     66
Maximum angular momentum                    ...      2
Integral batch strategy                     ... SHARK/LIBINT Hybrid
RI-J (if used) integral strategy            ... SPLIT-RIJ (Revised 2003 algorithm where possible)
Printlevel                                  ...      1
Contraction scheme used                     ... SEGMENTED contraction
Coulomb Range Separation                    ... NOT USED
Exchange Range Separation                   ... NOT USED
Finite Nucleus Model                        ... NOT USED
Auxiliary Coulomb fitting basis             ... AVAILABLE
   # of basis functions in Aux-J            ...    404
   # of shells in Aux-J                     ...    140
   Maximum angular momentum in Aux-J        ...      4
Auxiliary J/K fitting basis                 ... NOT available
Auxiliary Correlation fitting basis         ... NOT available
Auxiliary 'external' fitting basis          ... NOT available
Integral threshold                          ...     2.500000e-11
Primitive cut-off                           ...     2.500000e-12
Primitive pair pre-selection threshold      ...     2.500000e-12

Calculating pre-screening integrals         ... done (  0.0 sec) Dimension = 66
Organizing shell pair data                  ... done (  0.0 sec)
Shell pair information
Total number of shell pairs                 ...      2211
Shell pairs after pre-screening             ...      2127
Total number of primitive shell pairs       ...      7611
Primitive shell pairs kept                  ...      5626
          la=0 lb=0:    716 shell pairs
          la=1 lb=0:    804 shell pairs
          la=1 lb=1:    240 shell pairs
          la=2 lb=0:    220 shell pairs
          la=2 lb=1:    126 shell pairs
          la=2 lb=2:     21 shell pairs

Calculating one electron integrals          ... done (  0.0 sec)
Calculating RI/J V-Matrix + Cholesky decomp.... done (  0.0 sec)
Calculating Nuclear repulsion               ... done (  0.0 sec) ENN=    247.879445799199 Eh

SHARK setup successfully completed in   0.2 seconds

Maximum memory used throughout the entire GTOINT-calculation: 8.9 MB


           ************************************************************
           *        Program running with 4 parallel MPI-processes     *
           *              working on a common directory               *
           ************************************************************
-------------------------------------------------------------------------------
                                 ORCA SCF
-------------------------------------------------------------------------------

------------
SCF SETTINGS
------------
Hamiltonian:
 Density Functional     Method          .... DFT(GTOs)
 Exchange Functional    Exchange        .... TPSS
 Correlation Functional Correlation     .... TPSS
 LDA part of GGA corr.  LDAOpt          .... PW91-LDA
 Gradients option       PostSCFGGA      .... off
   Density functional embedding theory  .... OFF
   NL short-range parameter             ....  5.000000
 RI-approximation to the Coulomb term is turned on
   Number of AuxJ basis functions       .... 404


General Settings:
 Integral files         IntName         .... SVP_TPSS_C2_wt_dlpno_pos
 Hartree-Fock type      HFTyp           .... RHF
 Total Charge           Charge          ....    0
 Multiplicity           Mult            ....    1
 Number of Electrons    NEL             ....   48
 Basis Dimension        Dim             ....  134
 Nuclear Repulsion      ENuc            ....    247.8794457992 Eh

Convergence Acceleration:
 DIIS                   CNVDIIS         .... on
   Start iteration      DIISMaxIt       ....    12
   Startup error        DIISStart       ....  0.200000
   # of expansion vecs  DIISMaxEq       ....     5
   Bias factor          DIISBfac        ....   1.050
   Max. coefficient     DIISMaxC        ....  10.000
 Trust-Rad. Augm. Hess. CNVTRAH         .... auto
   Auto Start mean grad. ratio tolernc. ....  1.125000
   Auto Start start iteration           ....    20
   Auto Start num. interpolation iter.  ....    10
   Max. Number of Micro iterations      ....    16
   Max. Number of Macro iterations      .... Maxiter - #DIIS iter
   Number of Davidson start vectors     ....     2
   Converg. threshold I  (grad. norm)   ....   1.000e-05
   Converg. threshold II (energy diff.) ....   1.000e-08
   Grad. Scal. Fac. for Micro threshold ....   0.100
   Minimum threshold for Micro iter.    ....   0.010
   NR start threshold (gradient norm)   ....   0.001
   Initial trust radius                 ....   0.400
   Minimum AH scaling param. (alpha)    ....   1.000
   Maximum AH scaling param. (alpha)    .... 1000.000
   Orbital update algorithm             .... Taylor
   White noise on init. David. guess    .... on
   Maximum white noise                  ....   0.010
   Quad. conv. algorithm                .... NR
 SOSCF                  CNVSOSCF        .... on
   Start iteration      SOSCFMaxIt      ....   150
   Startup grad/error   SOSCFStart      ....  0.003300
 Level Shifting         CNVShift        .... on
   Level shift para.    LevelShift      ....    0.2500
   Turn off err/grad.   ShiftErr        ....    0.0010
 Zerner damping         CNVZerner       .... off
 Static damping         CNVDamp         .... on
   Fraction old density DampFac         ....    0.7000
   Max. Damping (<1)    DampMax         ....    0.9800
   Min. Damping (>=0)   DampMin         ....    0.0000
   Turn off err/grad.   DampErr         ....    0.1000
 Fernandez-Rico         CNVRico         .... off

SCF Procedure:
 Maximum # iterations   MaxIter         ....   150
 SCF integral mode      SCFMode         .... Direct
   Integral package                     .... SHARK and LIBINT hybrid scheme
 Reset frequency        DirectResetFreq ....    20
 Integral Threshold     Thresh          ....  2.500e-11 Eh
 Primitive CutOff       TCut            ....  2.500e-12 Eh

Convergence Tolerance:
 Convergence Check Mode ConvCheckMode   .... Total+1el-Energy
 Convergence forced     ConvForced      .... 0
 Energy Change          TolE            ....  1.000e-08 Eh
 1-El. energy change                    ....  1.000e-05 Eh
 Orbital Gradient       TolG            ....  1.000e-05
 Orbital Rotation angle TolX            ....  1.000e-05
 DIIS Error             TolErr          ....  5.000e-07


Diagonalization of the overlap matrix:
Smallest eigenvalue                        ... 1.868e-03
Time for diagonalization                   ...    0.005 sec
Threshold for overlap eigenvalues          ... 1.000e-08
Number of eigenvalues below threshold      ... 0
Time for construction of square roots      ...    0.004 sec
Total time needed                          ...    0.009 sec

Time for model grid setup =    0.076 sec

------------------------------
INITIAL GUESS: MODEL POTENTIAL
------------------------------
Loading Hartree-Fock densities                     ... done
Calculating cut-offs                               ... done
Initializing the effective Hamiltonian             ... done
Setting up the integral package (SHARK)            ... done
Starting the Coulomb interaction                   ... done (   0.0 sec)
Reading the grid                                   ... done
Mapping shells                                     ... done
Starting the XC term evaluation                    ... done (   0.1 sec)
  promolecular density results
     # of electrons  =     47.996167681
     EX              =    -36.575931584
     EC              =     -1.574578895
     EX+EC           =    -38.150510479
Transforming the Hamiltonian                       ... done (   0.0 sec)
Diagonalizing the Hamiltonian                      ... done (   0.0 sec)
Back transforming the eigenvectors                 ... done (   0.0 sec)
Now organizing SCF variables                       ... done
                      ------------------
                      INITIAL GUESS DONE (   0.2 sec)
                      ------------------
-------------------
DFT GRID GENERATION
-------------------

General Integration Accuracy     IntAcc      ... 4.388
Radial Grid Type                 RadialGrid  ... OptM3 with GC (2021)
Angular Grid (max. ang.)         AngularGrid ... 4 (Lebedev-302)
Angular grid pruning method      GridPruning ... 4 (adaptive)
Weight generation scheme         WeightScheme... Becke
Basis function cutoff            BFCut       ... 1.0000e-11
Integration weight cutoff        WCut        ... 1.0000e-14
Angular grids for H and He will be reduced by one unit
Partially contracted basis set               ... off
Rotationally invariant grid construction     ... off

Total number of grid points                  ...    68452
Total number of batches                      ...     1079
Average number of points per batch           ...       63
Average number of grid points per atom       ...     4278
Time for grid setup =    0.393 sec

--------------
SCF ITERATIONS
--------------
ITER       Energy         Delta-E        Max-DP      RMS-DP      [F,P]     Damp
               ***  Starting incremental Fock matrix formation  ***
  0   -267.4898334927   0.000000000000 0.10416515  0.00304288  0.2303536 0.7000
  1   -267.6130142369  -0.123180744187 0.07399912  0.00222410  0.1140515 0.7000
                               ***Turning on DIIS***
  2   -267.6601299217  -0.047115684748 0.11720671  0.00361650  0.0359713 0.0000
  3   -267.7210133951  -0.060883473498 0.05094287  0.00159274  0.0707095 0.0000
  4   -267.7437905321  -0.022777136905 0.01233160  0.00055960  0.0139505 0.0000
  5   -267.7451175836  -0.001327051505 0.00600813  0.00022573  0.0036475 0.0000
                      *** Initiating the SOSCF procedure ***
                           *** Shutting down DIIS ***
                      *** Re-Reading the Fockian *** 
                      *** Removing any level shift *** 
ITER      Energy       Delta-E        Grad      Rot      Max-DP    RMS-DP
  6   -267.74523119  -0.0001136102  0.000650  0.000650  0.007160  0.000212
               *** Restarting incremental Fock matrix formation ***
  7   -267.74524664  -0.0000154417  0.000370  0.001865  0.002254  0.000065
  8   -267.74524118   0.0000054506  0.000788  0.001305  0.001507  0.000039
  9   -267.74524869  -0.0000075050  0.000074  0.000178  0.000418  0.000016
 10   -267.74524842   0.0000002714  0.000083  0.000103  0.000254  0.000010
 11   -267.74524889  -0.0000004744  0.000013  0.000041  0.000062  0.000002
 12   -267.74524889   0.0000000074  0.000022  0.000027  0.000038  0.000001
                  ***Gradient check signals convergence***
              ***Rediagonalizing the Fockian in SOSCF/NRSCF***

               *****************************************************
               *                     SUCCESS                       *
               *           SCF CONVERGED AFTER  13 CYCLES          *
               *****************************************************


----------------
TOTAL SCF ENERGY
----------------

Total Energy       :         -267.74524890 Eh           -7285.71862 eV

Components:
Nuclear Repulsion  :          247.87944580 Eh            6745.14264 eV
Electronic Energy  :         -515.62469470 Eh          -14030.86126 eV
One Electron Energy:         -851.28252622 Eh          -23164.57520 eV
Two Electron Energy:          335.65783152 Eh            9133.71394 eV

Virial components:
Potential Energy   :         -533.22338688 Eh          -14509.74602 eV
Kinetic Energy     :          265.47813798 Eh            7224.02740 eV
Virial Ratio       :            2.00853973


DFT components:
N(Alpha)           :       23.999926233847 electrons
N(Beta)            :       23.999926233847 electrons
N(Total)           :       47.999852467694 electrons
E(X)               :      -37.890307288740 Eh       
E(C)               :       -1.593622153442 Eh       
E(XC)              :      -39.483929442182 Eh       
DFET-embed. en.    :        0.000000000000 Eh       

---------------
SCF CONVERGENCE
---------------

  Last Energy change         ...   -1.3227e-08  Tolerance :   1.0000e-08
  Last MAX-Density change    ...    5.0321e-06  Tolerance :   1.0000e-07
  Last RMS-Density change    ...    2.2654e-07  Tolerance :   5.0000e-09
  Last Orbital Gradient      ...    7.4675e-07  Tolerance :   1.0000e-05
  Last Orbital Rotation      ...    2.4430e-06  Tolerance :   1.0000e-05

             **** THE GBW FILE WAS UPDATED (SVP_TPSS_C2_wt_dlpno_pos.gbw) ****
             **** DENSITY SVP_TPSS_C2_wt_dlpno_pos.scfp WAS UPDATED ****
             **** ENERGY FILE WAS UPDATED (SVP_TPSS_C2_wt_dlpno_pos.en.tmp) ****
             **** THE GBW FILE WAS UPDATED (SVP_TPSS_C2_wt_dlpno_pos.gbw) ****
             **** DENSITY SVP_TPSS_C2_wt_dlpno_pos.scfp WAS UPDATED ****
----------------
ORBITAL ENERGIES
----------------

  NO   OCC          E(Eh)            E(eV) 
   0   2.0000     -14.111894      -384.0042 
   1   2.0000     -14.106537      -383.8584 
   2   2.0000     -10.037038      -273.1217 
   3   2.0000     -10.030741      -272.9504 
   4   2.0000      -9.994205      -271.9561 
   5   2.0000      -9.902581      -269.4629 
   6   2.0000      -0.884710       -24.0742 
   7   2.0000      -0.809790       -22.0355 
   8   2.0000      -0.703428       -19.1412 
   9   2.0000      -0.628655       -17.1066 
  10   2.0000      -0.567427       -15.4405 
  11   2.0000      -0.544409       -14.8141 
  12   2.0000      -0.489203       -13.3119 
  13   2.0000      -0.446728       -12.1561 
  14   2.0000      -0.433150       -11.7866 
  15   2.0000      -0.399850       -10.8805 
  16   2.0000      -0.380872       -10.3640 
  17   2.0000      -0.355861        -9.6835 
  18   2.0000      -0.339422        -9.2361 
  19   2.0000      -0.327166        -8.9026 
  20   2.0000      -0.321107        -8.7378 
  21   2.0000      -0.304906        -8.2969 
  22   2.0000      -0.204900        -5.5756 
  23   2.0000      -0.115489        -3.1426 
  24   0.0000       0.030075         0.8184 
  25   0.0000       0.060630         1.6498 
  26   0.0000       0.071394         1.9427 
  27   0.0000       0.082918         2.2563 
  28   0.0000       0.097925         2.6647 
  29   0.0000       0.104456         2.8424 
  30   0.0000       0.123052         3.3484 
  31   0.0000       0.133337         3.6283 
  32   0.0000       0.149836         4.0772 
  33   0.0000       0.155796         4.2394 
  34   0.0000       0.161419         4.3924 
  35   0.0000       0.194795         5.3006 
  36   0.0000       0.215493         5.8639 
  37   0.0000       0.278685         7.5834 
  38   0.0000       0.334532         9.1031 
  39   0.0000       0.362376         9.8608 
  40   0.0000       0.388864        10.5815 
  41   0.0000       0.411271        11.1913 
  42   0.0000       0.429749        11.6941 
  43   0.0000       0.438998        11.9457 
  44   0.0000       0.460148        12.5213 
  45   0.0000       0.486349        13.2342 
  46   0.0000       0.508544        13.8382 
  47   0.0000       0.532946        14.5022 
  48   0.0000       0.547955        14.9106 
  49   0.0000       0.568546        15.4709 
  50   0.0000       0.587848        15.9962 
  51   0.0000       0.614156        16.7120 
  52   0.0000       0.631848        17.1934 
  53   0.0000       0.650702        17.7065 
  54   0.0000       0.652505        17.7556 
  55   0.0000       0.671928        18.2841 
  56   0.0000       0.676189        18.4000 
  57   0.0000       0.684976        18.6391 
  58   0.0000       0.714497        19.4425 
  59   0.0000       0.721835        19.6421 
  60   0.0000       0.740603        20.1528 
  61   0.0000       0.747994        20.3540 
  62   0.0000       0.772762        21.0279 
  63   0.0000       0.789702        21.4889 
  64   0.0000       0.821681        22.3591 
  65   0.0000       0.843675        22.9576 
  66   0.0000       0.856441        23.3049 
  67   0.0000       0.942577        25.6488 
  68   0.0000       0.977071        26.5875 
  69   0.0000       1.036521        28.2052 
  70   0.0000       1.084908        29.5218 
  71   0.0000       1.144257        31.1368 
  72   0.0000       1.161849        31.6155 
  73   0.0000       1.214235        33.0410 
  74   0.0000       1.243631        33.8409 
  75   0.0000       1.259554        34.2742 
  76   0.0000       1.311892        35.6984 
  77   0.0000       1.339452        36.4483 
  78   0.0000       1.374682        37.4070 
  79   0.0000       1.445336        39.3296 
  80   0.0000       1.467782        39.9404 
  81   0.0000       1.509684        41.0806 
  82   0.0000       1.534742        41.7625 
  83   0.0000       1.649181        44.8765 
  84   0.0000       1.705126        46.3988 
  85   0.0000       1.726029        46.9676 
  86   0.0000       1.730742        47.0959 
  87   0.0000       1.741106        47.3779 
  88   0.0000       1.764080        48.0031 
  89   0.0000       1.785160        48.5767 
  90   0.0000       1.796740        48.8918 
  91   0.0000       1.817672        49.4614 
  92   0.0000       1.832045        49.8525 
  93   0.0000       1.838337        50.0237 
  94   0.0000       1.859191        50.5912 
  95   0.0000       1.869419        50.8695 
  96   0.0000       1.869645        50.8756 
  97   0.0000       1.893442        51.5232 
  98   0.0000       1.914047        52.0839 
  99   0.0000       1.956025        53.2261 
 100   0.0000       1.986147        54.0458 
 101   0.0000       2.018956        54.9386 
 102   0.0000       2.081055        56.6284 
 103   0.0000       2.104194        57.2580 
 104   0.0000       2.159920        58.7744 
 105   0.0000       2.223703        60.5100 
 106   0.0000       2.291906        62.3659 
 107   0.0000       2.294740        62.4431 
 108   0.0000       2.319151        63.1073 
 109   0.0000       2.340768        63.6955 
 110   0.0000       2.376811        64.6763 
 111   0.0000       2.389415        65.0193 
 112   0.0000       2.405843        65.4663 
 113   0.0000       2.465773        67.0971 
 114   0.0000       2.540120        69.1202 
 115   0.0000       2.555083        69.5273 
 116   0.0000       2.595788        70.6350 
 117   0.0000       2.600947        70.7754 
 118   0.0000       2.707554        73.6763 
 119   0.0000       2.730200        74.2925 
 120   0.0000       2.799350        76.1742 
 121   0.0000       2.852269        77.6142 
 122   0.0000       2.891672        78.6864 
 123   0.0000       2.935347        79.8749 
 124   0.0000       2.963900        80.6518 
 125   0.0000       2.967873        80.7599 
 126   0.0000       3.005817        81.7924 
 127   0.0000       3.058150        83.2165 
 128   0.0000       3.090236        84.0896 
 129   0.0000       3.160636        86.0053 
 130   0.0000       3.201414        87.1149 
 131   0.0000       3.259638        88.6993 
 132   0.0000       3.589020        97.6622 
 133   0.0000       3.679139       100.1145 

                    ********************************
                    * MULLIKEN POPULATION ANALYSIS *
                    ********************************

-----------------------
MULLIKEN ATOMIC CHARGES
-----------------------
   0 C :    0.062964
   1 N :   -0.165755
   2 C :    0.030482
   3 C :   -0.035786
   4 C :   -0.108979
   5 N :   -0.067896
   6 H :    0.101440
   7 H :    0.122452
   8 H :    0.120900
   9 H :   -0.052338
  10 H :   -0.060444
  11 H :    0.008322
  12 H :    0.014598
  13 H :    0.008977
  14 H :    0.008911
  15 H :    0.012153
Sum of atomic charges:    0.0000000

--------------------------------
MULLIKEN REDUCED ORBITAL CHARGES
--------------------------------
  0 C s       :     3.015908  s :     3.015908
      pz      :     1.011504  p :     2.869349
      px      :     0.898463
      py      :     0.959382
      dz2     :     0.010848  d :     0.051779
      dxz     :     0.013073
      dyz     :     0.003726
      dx2y2   :     0.011492
      dxy     :     0.012640
  1 N s       :     3.331281  s :     3.331281
      pz      :     1.326794  p :     3.812604
      px      :     1.204552
      py      :     1.281258
      dz2     :     0.003458  d :     0.021870
      dxz     :     0.004917
      dyz     :     0.003696
      dx2y2   :     0.005608
      dxy     :     0.004191
  2 C s       :     2.964423  s :     2.964423
      pz      :     0.987283  p :     2.975118
      px      :     0.983782
      py      :     1.004053
      dz2     :     0.008525  d :     0.029977
      dxz     :     0.007551
      dyz     :     0.001754
      dx2y2   :     0.003891
      dxy     :     0.008256
  3 C s       :     2.992048  s :     2.992048
      pz      :     0.982570  p :     2.949529
      px      :     1.000303
      py      :     0.966656
      dz2     :     0.016827  d :     0.094210
      dxz     :     0.023419
      dyz     :     0.015140
      dx2y2   :     0.019869
      dxy     :     0.018955
  4 C s       :     3.022017  s :     3.022017
      pz      :     1.230762  p :     3.062635
      px      :     0.897578
      py      :     0.934295
      dz2     :     0.001361  d :     0.024328
      dxz     :     0.004065
      dyz     :     0.003163
      dx2y2   :     0.007748
      dxy     :     0.007992
  5 N s       :     3.268620  s :     3.268620
      pz      :     1.371396  p :     3.781884
      px      :     1.018665
      py      :     1.391823
      dz2     :     0.003229  d :     0.017391
      dxz     :     0.003812
      dyz     :     0.002838
      dx2y2   :     0.004736
      dxy     :     0.002776
  6 H s       :     0.853892  s :     0.853892
      pz      :     0.010854  p :     0.044668
      px      :     0.021295
      py      :     0.012520
  7 H s       :     0.833328  s :     0.833328
      pz      :     0.017067  p :     0.044220
      px      :     0.008601
      py      :     0.018552
  8 H s       :     0.836235  s :     0.836235
      pz      :     0.017086  p :     0.042865
      px      :     0.016805
      py      :     0.008974
  9 H s       :     1.023411  s :     1.023411
      pz      :     0.009602  p :     0.028927
      px      :     0.011602
      py      :     0.007723
 10 H s       :     1.031432  s :     1.031432
      pz      :     0.010090  p :     0.029012
      px      :     0.005538
      py      :     0.013383
 11 H s       :     0.970263  s :     0.970263
      pz      :     0.010957  p :     0.021415
      px      :     0.006044
      py      :     0.004413
 12 H s       :     0.964731  s :     0.964731
      pz      :     0.004436  p :     0.020671
      px      :     0.004615
      py      :     0.011620
 13 H s       :     0.967387  s :     0.967387
      pz      :     0.004770  p :     0.023636
      px      :     0.006078
      py      :     0.012788
 14 H s       :     0.967295  s :     0.967295
      pz      :     0.004856  p :     0.023794
      px      :     0.010099
      py      :     0.008839
 15 H s       :     0.964094  s :     0.964094
      pz      :     0.010969  p :     0.023753
      px      :     0.007384
      py      :     0.005401


                     *******************************
                     * LOEWDIN POPULATION ANALYSIS *
                     *******************************

----------------------
LOEWDIN ATOMIC CHARGES
----------------------
   0 C :    0.038004
   1 N :   -0.023052
   2 C :   -0.052740
   3 C :    0.018355
   4 C :   -0.260169
   5 N :    0.000651
   6 H :    0.060540
   7 H :    0.083516
   8 H :    0.081445
   9 H :   -0.013462
  10 H :   -0.015896
  11 H :    0.014082
  12 H :    0.016794
  13 H :    0.015832
  14 H :    0.018423
  15 H :    0.017677

-------------------------------
LOEWDIN REDUCED ORBITAL CHARGES
-------------------------------
  0 C s       :     2.831235  s :     2.831235
      pz      :     1.049932  p :     3.010852
      px      :     0.961980
      py      :     0.998940
      dz2     :     0.025548  d :     0.119909
      dxz     :     0.032921
      dyz     :     0.006351
      dx2y2   :     0.025510
      dxy     :     0.029579
  1 N s       :     3.036262  s :     3.036262
      pz      :     1.357467  p :     3.931667
      px      :     1.248865
      py      :     1.325334
      dz2     :     0.008285  d :     0.055123
      dxz     :     0.012824
      dyz     :     0.009304
      dx2y2   :     0.013096
      dxy     :     0.011615
  2 C s       :     2.829923  s :     2.829923
      pz      :     1.038992  p :     3.146755
      px      :     1.045434
      py      :     1.062329
      dz2     :     0.020713  d :     0.076062
      dxz     :     0.021243
      dyz     :     0.003762
      dx2y2   :     0.009936
      dxy     :     0.020408
  3 C s       :     2.794143  s :     2.794143
      pz      :     0.954738  p :     2.965219
      px      :     1.047508
      py      :     0.962973
      dz2     :     0.036374  d :     0.222284
      dxz     :     0.055615
      dyz     :     0.036226
      dx2y2   :     0.047433
      dxy     :     0.046635
  4 C s       :     2.824558  s :     2.824558
      pz      :     1.249659  p :     3.364859
      px      :     1.026454
      py      :     1.088747
      dz2     :     0.004576  d :     0.070752
      dxz     :     0.010796
      dyz     :     0.009008
      dx2y2   :     0.022724
      dxy     :     0.023648
  5 N s       :     3.006113  s :     3.006113
      pz      :     1.394969  p :     3.945742
      px      :     1.143538
      py      :     1.407235
      dz2     :     0.007849  d :     0.047494
      dxz     :     0.010381
      dyz     :     0.007482
      dx2y2   :     0.014013
      dxy     :     0.007769
  6 H s       :     0.814215  s :     0.814215
      pz      :     0.030497  p :     0.125245
      px      :     0.061127
      py      :     0.033621
  7 H s       :     0.794885  s :     0.794885
      pz      :     0.048651  p :     0.121599
      px      :     0.017594
      py      :     0.055354
  8 H s       :     0.796599  s :     0.796599
      pz      :     0.048739  p :     0.121956
      px      :     0.048896
      py      :     0.024320
  9 H s       :     0.925012  s :     0.925012
      pz      :     0.032666  p :     0.088450
      px      :     0.032947
      py      :     0.022837
 10 H s       :     0.926958  s :     0.926958
      pz      :     0.034536  p :     0.088939
      px      :     0.015829
      py      :     0.038574
 11 H s       :     0.919881  s :     0.919881
      pz      :     0.034289  p :     0.066036
      px      :     0.019225
      py      :     0.012523
 12 H s       :     0.918101  s :     0.918101
      pz      :     0.012924  p :     0.065105
      px      :     0.015035
      py      :     0.037147
 13 H s       :     0.915295  s :     0.915295
      pz      :     0.014385  p :     0.068873
      px      :     0.017011
      py      :     0.037477
 14 H s       :     0.912459  s :     0.912459
      pz      :     0.014390  p :     0.069117
      px      :     0.029933
      py      :     0.024794
 15 H s       :     0.913699  s :     0.913699
      pz      :     0.033647  p :     0.068624
      px      :     0.021330
      py      :     0.013647


                      *****************************
                      * MAYER POPULATION ANALYSIS *
                      *****************************

  NA   - Mulliken gross atomic population
  ZA   - Total nuclear charge
  QA   - Mulliken gross atomic charge
  VA   - Mayer's total valence
  BVA  - Mayer's bonded valence
  FA   - Mayer's free valence

  ATOM       NA         ZA         QA         VA         BVA        FA
  0 C      5.9370     6.0000     0.0630     4.0785     4.0785    -0.0000
  1 N      7.1658     7.0000    -0.1658     3.2292     3.2292     0.0000
  2 C      5.9695     6.0000     0.0305     3.9627     3.9627    -0.0000
  3 C      6.0358     6.0000    -0.0358     4.3742     4.3742     0.0000
  4 C      6.1090     6.0000    -0.1090     3.7176     3.7176     0.0000
  5 N      7.0679     7.0000    -0.0679     3.2345     3.2345     0.0000
  6 H      0.8986     1.0000     0.1014     1.0135     1.0135     0.0000
  7 H      0.8775     1.0000     0.1225     1.0025     1.0025     0.0000
  8 H      0.8791     1.0000     0.1209     0.9993     0.9993     0.0000
  9 H      1.0523     1.0000    -0.0523     0.9891     0.9891     0.0000
 10 H      1.0604     1.0000    -0.0604     0.9876     0.9876     0.0000
 11 H      0.9917     1.0000     0.0083     0.9977     0.9977     0.0000
 12 H      0.9854     1.0000     0.0146     0.9759     0.9759    -0.0000
 13 H      0.9910     1.0000     0.0090     1.0010     1.0010     0.0000
 14 H      0.9911     1.0000     0.0089     0.9912     0.9912     0.0000
 15 H      0.9878     1.0000     0.0122     0.9972     0.9972    -0.0000

  Mayer bond orders larger than 0.100000
B(  0-C ,  1-N ) :   1.0123 B(  0-C ,  2-C ) :   1.0889 B(  0-C , 11-H ) :   0.9480 
B(  0-C , 12-H ) :   0.9484 B(  1-N ,  3-C ) :   1.1991 B(  1-N ,  8-H ) :   0.9270 
B(  2-C , 13-H ) :   0.9672 B(  2-C , 14-H ) :   0.9583 B(  2-C , 15-H ) :   0.9679 
B(  3-C ,  4-C ) :   1.6898 B(  3-C ,  5-N ) :   1.2512 B(  4-C ,  9-H ) :   0.9416 
B(  4-C , 10-H ) :   0.9404 B(  5-N ,  6-H ) :   0.9442 B(  5-N ,  7-H ) :   0.9404 


-------
TIMINGS
-------

Total SCF time: 0 days 0 hours 0 min 5 sec 

Total time                  ....       5.462 sec
Sum of individual times     ....       5.325 sec  ( 97.5%)

Fock matrix formation       ....       4.690 sec  ( 85.9%)
  Split-RI-J                ....       0.701 sec  ( 14.9% of F)
  XC integration            ....       3.964 sec  ( 84.5% of F)
    Basis function eval.    ....       0.874 sec  ( 22.0% of XC)
    Density eval.           ....       1.121 sec  ( 28.3% of XC)
    XC-Functional eval.     ....       0.500 sec  ( 12.6% of XC)
    XC-Potential eval.      ....       1.093 sec  ( 27.6% of XC)
Diagonalization             ....       0.030 sec  (  0.6%)
Density matrix formation    ....       0.002 sec  (  0.0%)
Population analysis         ....       0.005 sec  (  0.1%)
Initial guess               ....       0.085 sec  (  1.6%)
Orbital Transformation      ....       0.000 sec  (  0.0%)
Orbital Orthonormalization  ....       0.000 sec  (  0.0%)
DIIS solution               ....       0.021 sec  (  0.4%)
SOSCF solution              ....       0.022 sec  (  0.4%)
Grid generation             ....       0.469 sec  (  8.6%)

Maximum memory used throughout the entire SCF-calculation: 19.3 MB


-------------------------------------------------------------------------------
                          DFT DISPERSION CORRECTION                            
                                                                               
                              DFTD3 V3.1  Rev 1                                
                          USING Becke-Johnson damping                          
-------------------------------------------------------------------------------
The TPSS functional is recognized
Active option DFTDOPT                   ...         4   

molecular C6(AA) [au] = 1935.866224 


            DFT-D V3
 parameters
 s6 scaling factor         :     1.0000 
 a1 scaling factor         :     0.4535 
 s8 scaling factor         :     1.9435 
 a2 scaling factor         :     4.4752 
 ad hoc parameters k1-k3   :    16.0000     1.3333    -4.0000 

 Edisp/kcal,au: -9.647801374490  -0.015374748500 
 E6   /kcal   :  -5.080458589 
 E8   /kcal   :  -4.567342785 
 % E8         :  47.340763017 

-------------------------   ----------------
Dispersion correction           -0.015374749
-------------------------   ----------------


-------------------------   --------------------
FINAL SINGLE POINT ENERGY      -267.760623647097
-------------------------   --------------------


                            ***************************************
                            *     ORCA property calculations      *
                            ***************************************

                                    ---------------------
                                    Active property flags
                                    ---------------------
   (+) Dipole Moment


------------------------------------------------------------------------------
                       ORCA ELECTRIC PROPERTIES CALCULATION
------------------------------------------------------------------------------

Dipole Moment Calculation                       ... on
Quadrupole Moment Calculation                   ... off
Polarizability Calculation                      ... off
GBWName                                         ... SVP_TPSS_C2_wt_dlpno_pos.gbw
Electron density file                           ... SVP_TPSS_C2_wt_dlpno_pos.scfp
The origin for moment calculation is the CENTER OF MASS  = ( 7.695930,  1.393971 -7.028510)

-------------
DIPOLE MOMENT
-------------
                                X             Y             Z
Electronic contribution:      1.49627      -1.14741      -2.08138
Nuclear contribution   :     -2.56090       1.59955       2.15496
                        -----------------------------------------
Total Dipole Moment    :     -1.06464       0.45214       0.07358
                        -----------------------------------------
Magnitude (a.u.)       :      1.15901
Magnitude (Debye)      :      2.94596



--------------------
Rotational spectrum 
--------------------
 
Rotational constants in cm-1:     0.249834     0.071381     0.061833 
Rotational constants in MHz :  7489.842787  2139.945635  1853.706310 

 Dipole components along the rotational axes: 
x,y,z [a.u.] :    -0.947880     0.660730     0.090873 
x,y,z [Debye]:    -2.409320     1.679441     0.230982 

 

Timings for individual modules:

Sum of individual times         ...        6.020 sec (=   0.100 min)
GTO integral calculation        ...        0.355 sec (=   0.006 min)   5.9 %
SCF iterations                  ...        5.665 sec (=   0.094 min)  94.1 %
                             ****ORCA TERMINATED NORMALLY****
TOTAL RUN TIME: 0 days 0 hours 0 minutes 6 seconds 360 msec
