
                                        *****************
                                        * O   R   C   A *
                                        *****************

                                            #,                                       
                                            ###                                      
                                            ####                                     
                                            #####                                    
                                            ######                                   
                                           ########,                                 
                                     ,,################,,,,,                         
                               ,,#################################,,                 
                          ,,##########################################,,             
                       ,#########################################, ''#####,          
                    ,#############################################,,   '####,        
                  ,##################################################,,,,####,       
                ,###########''''           ''''###############################       
              ,#####''   ,,,,##########,,,,          '''####'''          '####       
            ,##' ,,,,###########################,,,                        '##       
           ' ,,###''''                  '''############,,,                           
         ,,##''                                '''############,,,,        ,,,,,,###''
      ,#''                                            '''#######################'''  
     '                                                          ''''####''''         
             ,#######,   #######,   ,#######,      ##                                
            ,#'     '#,  ##    ##  ,#'     '#,    #''#        ######   ,####,        
            ##       ##  ##   ,#'  ##            #'  '#       #        #'  '#        
            ##       ##  #######   ##           ,######,      #####,   #    #        
            '#,     ,#'  ##    ##  '#,     ,#' ,#      #,         ##   #,  ,#        
             '#######'   ##     ##  '#######'  #'      '#     #####' # '####'        



                  #######################################################
                  #                        -***-                        #
                  #          Department of theory and spectroscopy      #
                  #    Directorship and core code : Frank Neese         #
                  #        Max Planck Institute fuer Kohlenforschung    #
                  #                Kaiser Wilhelm Platz 1               #
                  #                 D-45470 Muelheim/Ruhr               #
                  #                      Germany                        #
                  #                                                     #
                  #                  All rights reserved                #
                  #                        -***-                        #
                  #######################################################


                         Program Version 5.0.0 -  RELEASE  -
                                (SVN: $Rev: 19529$)
                ($Date: 2021-06-28 11:36:33 +0200 (Mo, 28 Jun 2021) $)


 With contributions from (in alphabetic order):
   Daniel Aravena         : Magnetic Suceptibility
   Michael Atanasov       : Ab Initio Ligand Field Theory (pilot matlab implementation)
   Alexander A. Auer      : GIAO ZORA, VPT2 properties, NMR spectrum
   Ute Becker             : Parallelization
   Giovanni Bistoni       : ED, misc. LED, open-shell LED, HFLD
   Martin Brehm           : Molecular dynamics
   Dmytro Bykov           : SCF Hessian
   Vijay G. Chilkuri      : MRCI spin determinant printing, contributions to CSF-ICE
   Dipayan Datta          : RHF DLPNO-CCSD density
   Achintya Kumar Dutta   : EOM-CC, STEOM-CC
   Dmitry Ganyushin       : Spin-Orbit,Spin-Spin,Magnetic field MRCI
   Miquel Garcia          : C-PCM Hessian, Gaussian charge scheme
   Yang Guo               : DLPNO-NEVPT2, F12-NEVPT2, CIM, IAO-localization
   Andreas Hansen         : Spin unrestricted coupled pair/coupled cluster methods
   Benjamin Helmich-Paris : MC-RPA, TRAH-SCF, COSX integrals
   Lee Huntington         : MR-EOM, pCC
   Robert Izsak           : Overlap fitted RIJCOSX, COSX-SCS-MP3, EOM
   Marcus Kettner         : VPT2
   Christian Kollmar      : KDIIS, OOCD, Brueckner-CCSD(T), CCSD density, CASPT2, CASPT2-K
   Simone Kossmann        : Meta GGA functionals, TD-DFT gradient, OOMP2, MP2 Hessian
   Martin Krupicka        : Initial AUTO-CI
   Lucas Lang             : DCDCAS
   Marvin Lechner         : AUTO-CI (C++ implementation), FIC-MRCC
   Dagmar Lenk            : GEPOL surface, SMD
   Dimitrios Liakos       : Extrapolation schemes; Compound Job, initial MDCI parallelization
   Dimitrios Manganas     : Further ROCIS development; embedding schemes
   Dimitrios Pantazis     : SARC Basis sets
   Anastasios Papadopoulos: AUTO-CI, single reference methods and gradients
   Taras Petrenko         : DFT Hessian,TD-DFT gradient, ASA, ECA, R-Raman, ABS, FL, XAS/XES, NRVS
   Peter Pinski           : DLPNO-MP2, DLPNO-MP2 Gradient
   Christoph Reimann      : Effective Core Potentials
   Marius Retegan         : Local ZFS, SOC
   Christoph Riplinger    : Optimizer, TS searches, QM/MM, DLPNO-CCSD(T), (RO)-DLPNO pert. Triples
   Tobias Risthaus        : Range-separated hybrids, TD-DFT gradient, RPA, STAB
   Michael Roemelt        : Original ROCIS implementation
   Masaaki Saitow         : Open-shell DLPNO-CCSD energy and density
   Barbara Sandhoefer     : DKH picture change effects
   Avijit Sen             : IP-ROCIS
   Kantharuban Sivalingam : CASSCF convergence, NEVPT2, FIC-MRCI
   Bernardo de Souza      : ESD, SOC TD-DFT
   Georgi Stoychev        : AutoAux, RI-MP2 NMR
   Willem Van den Heuvel  : Paramagnetic NMR
   Boris Wezisla          : Elementary symmetry handling
   Frank Wennmohs         : Technical directorship


 We gratefully acknowledge several colleagues who have allowed us to
 interface, adapt or use parts of their codes:
   Stefan Grimme, W. Hujo, H. Kruse, P. Pracht,  : VdW corrections, initial TS optimization,
                  C. Bannwarth, S. Ehlert          DFT functionals, gCP, sTDA/sTD-DF
   Ed Valeev, F. Pavosevic, A. Kumar             : LibInt (2-el integral package), F12 methods
   Garnet Chan, S. Sharma, J. Yang, R. Olivares  : DMRG
   Ulf Ekstrom                                   : XCFun DFT Library
   Mihaly Kallay                                 : mrcc  (arbitrary order and MRCC methods)
   Jiri Pittner, Ondrej Demel                    : Mk-CCSD
   Frank Weinhold                                : gennbo (NPA and NBO analysis)
   Christopher J. Cramer and Donald G. Truhlar   : smd solvation model
   Lars Goerigk                                  : TD-DFT with DH, B97 family of functionals
   V. Asgeirsson, H. Jonsson                     : NEB implementation
   FAccTs GmbH                                   : IRC, NEB, NEB-TS, DLPNO-Multilevel, CI-OPT
                                                   MM, QMMM, 2- and 3-layer-ONIOM, Crystal-QMMM,
                                                   LR-CPCM, SF, NACMEs, symmetry and pop. for TD-DFT,
                                                   nearIR, NL-DFT gradient (VV10), updates on ESD,
                                                   ML-optimized integration grids
   S Lehtola, MJT Oliveira, MAL Marques          : LibXC Library
   Liviu Ungur et al                             : ANISO software


 Your calculation uses the libint2 library for the computation of 2-el integrals
 For citations please refer to: http://libint.valeyev.net

 Your ORCA version has been built with support for libXC version: 5.1.0
 For citations please refer to: https://tddft.org/programs/libxc/

 This ORCA versions uses:
   CBLAS   interface :  Fast vector & matrix operations
   LAPACKE interface :  Fast linear algebra routines
   SCALAPACK package :  Parallel linear algebra routines
   Shared memory     :  Shared parallel matrices
   BLAS/LAPACK       :  OpenBLAS 0.3.15  USE64BITINT DYNAMIC_ARCH NO_AFFINITY Haswell SINGLE_THREADED
        Core in use  :  Haswell
   Copyright (c) 2011-2014, The OpenBLAS Project




***************************************
The coordinates will be read from file: B.xyz
***************************************


Your calculation utilizes the atom-pairwise dispersion correction
with the Becke-Johnson damping scheme (D3BJ)
Cite in your paper:
S.Grimme, S.Ehrlich, L.Goerigk, J Comput Chem, (2011), 32, 1456–1465 
S.Grimme, J.Antony, S.Ehrlich and H.Krieg, J.Chem.Phys., 132, (2010), 154104 
   

================================================================================

----- Orbital basis set information -----
Your calculation utilizes the basis: def2-TZVP
   F. Weigend and R. Ahlrichs, Phys. Chem. Chem. Phys. 7, 3297 (2005).

----- AuxJ basis set information -----
Your calculation utilizes the auxiliary basis: def2/J
   F. Weigend, Phys. Chem. Chem. Phys. 8, 1057 (2006).

================================================================================
                                        WARNINGS
                       Please study these warnings very carefully!
================================================================================



WARNING: Found flag for RIJCOSX approximation but no HF exchange needed!
  ===> : RIJCOSX  will be disabled and Split-RI-J is turned on

INFO   : the flag for use of the SHARK integral package has been found!

================================================================================
                                       INPUT FILE
================================================================================
NAME = TPSS_B_wt_wb97.com
|  1> !TPSS D3BJ RIJCOSX def2-TZVP def2/J TightSCF xyzfile                                                                                         
|  2> 
|  3> *xyzfile 0 1 B.xyz
|  4> 
|  5> %MaxCore 64000
|  6> 
|  7> %pal nprocs 18                                                                                                                                                  
|  8> end  
|  9> 
| 10> %scf
| 11>   MaxIter 150
| 12> end
| 13> 
| 14> 
| 15>                          ****END OF INPUT****
================================================================================

                       ****************************
                       * Single Point Calculation *
                       ****************************

---------------------------------
CARTESIAN COORDINATES (ANGSTROEM)
---------------------------------
  C      4.490588    1.155899   -2.469290
  N      4.305394    1.222762   -3.908317
  C      4.906458   -3.102816   -5.954844
  C      3.511771   -2.806215   -6.492283
  H      2.736044   -3.373445   -5.973736
  H      3.444904   -3.040831   -7.555281
  S      3.004618   -1.096206   -6.389259
  C      4.631918    2.246365   -4.670958
  N      4.541686    2.143990   -5.987139
  N      5.084086    3.393584   -4.118545
  H      4.920675    3.570501   -3.135870
  H      5.254652    4.197390   -4.706956
  H      3.824530    0.449113   -4.350926
  H      4.343373    1.249318   -6.416646
  H      4.676712    2.956624   -6.574113
  O      4.128856   -0.329647   -6.953717
  O      1.781285   -1.000779   -7.136399
  C      5.942129    0.939500   -2.036893
  H      3.864305    0.328532   -2.136611
  H      4.076233    2.049994   -1.989010
  C      6.462677   -3.117775   -3.944671
  C      5.024977   -3.025679   -4.437625
  H      4.423321   -3.818693   -3.977648
  H      4.579350   -2.087131   -4.108727
  H      5.201533   -4.100207   -6.296905
  H      5.605922   -2.397822   -6.413368
  C      6.559957   -0.356290   -2.559086
  H      5.967976    0.952567   -0.942444
  H      6.547184    1.788331   -2.368849
  C      6.006283   -1.615917   -1.899301
  H      7.642360   -0.318000   -2.402059
  H      6.414855   -0.403433   -3.642587
  C      6.608718   -2.917014   -2.435655
  H      6.190324   -1.561115   -0.820948
  H      4.919250   -1.651245   -2.016586
  H      7.066975   -2.374258   -4.475514
  H      6.887808   -4.089747   -4.215332
  H      6.135197   -3.755573   -1.915159
  H      7.671142   -2.955503   -2.172291
  O      2.851546   -0.783683   -4.956789

----------------------------
CARTESIAN COORDINATES (A.U.)
----------------------------
  NO LB      ZA    FRAG     MASS         X           Y           Z
   0 C     6.0000    0    12.011    8.485982    2.184332   -4.666282
   1 N     7.0000    0    14.007    8.136015    2.310685   -7.385649
   2 C     6.0000    0    12.011    9.271862   -5.863473  -11.253025
   3 C     6.0000    0    12.011    6.636285   -5.302977  -12.268638
   4 H     1.0000    0     1.008    5.170374   -6.374888  -11.288724
   5 H     1.0000    0     1.008    6.509926   -5.746338  -14.277412
   6 S    16.0000    0    32.060    5.677904   -2.071530  -12.073950
   7 C     6.0000    0    12.011    8.753057    4.245015   -8.826831
   8 N     7.0000    0    14.007    8.582543    4.051553  -11.314052
   9 N     7.0000    0    14.007    9.607530    6.412945   -7.782923
  10 H     1.0000    0     1.008    9.298728    6.747268   -5.925936
  11 H     1.0000    0     1.008    9.929852    7.931917   -8.894858
  12 H     1.0000    0     1.008    7.227314    0.848701   -8.222058
  13 H     1.0000    0     1.008    8.207786    2.360868  -12.125704
  14 H     1.0000    0     1.008    8.837705    5.587209  -12.423274
  15 O     8.0000    0    15.999    7.802408   -0.622942  -13.140621
  16 O     8.0000    0    15.999    3.366140   -1.891199  -13.485840
  17 C     6.0000    0    12.011   11.228997    1.775397   -3.849170
  18 H     1.0000    0     1.008    7.302479    0.620836   -4.037610
  19 H     1.0000    0     1.008    7.702964    3.873927   -3.758685
  20 C     6.0000    0    12.011   12.212689   -5.891741   -7.454347
  21 C     6.0000    0    12.011    9.495831   -5.717705   -8.385896
  22 H     1.0000    0     1.008    8.358866   -7.216284   -7.516666
  23 H     1.0000    0     1.008    8.653718   -3.944106   -7.764369
  24 H     1.0000    0     1.008    9.829473   -7.748269  -11.899427
  25 H     1.0000    0     1.008   10.593657   -4.531226  -12.119509
  26 C     6.0000    0    12.011   12.396522   -0.673291   -4.835971
  27 H     1.0000    0     1.008   11.277840    1.800090   -1.780961
  28 H     1.0000    0     1.008   12.372385    3.379455   -4.476477
  29 C     6.0000    0    12.011   11.350230   -3.053641   -3.589158
  30 H     1.0000    0     1.008   14.441966   -0.600934   -4.539234
  31 H     1.0000    0     1.008   12.122318   -0.762378   -6.883492
  32 C     6.0000    0    12.011   12.488666   -5.512358   -4.602721
  33 H     1.0000    0     1.008   11.698016   -2.950080   -1.551366
  34 H     1.0000    0     1.008    9.296035   -3.120400   -3.810796
  35 H     1.0000    0     1.008   13.354648   -4.486697   -8.457496
  36 H     1.0000    0     1.008   13.016070   -7.728501   -7.965822
  37 H     1.0000    0     1.008   11.593841   -7.097005   -3.619127
  38 H     1.0000    0     1.008   14.496357   -5.585092   -4.105035
  39 O     8.0000    0    15.999    5.388641   -1.480946   -9.366974

--------------------------------
INTERNAL COORDINATES (ANGSTROEM)
--------------------------------
 C      0   0   0     0.000000000000     0.00000000     0.00000000
 N      1   0   0     1.452434888732     0.00000000     0.00000000
 C      2   1   0     4.822880648060   111.29935464     0.00000000
 C      3   2   1     1.523799819616    82.01111056   124.72570022
 H      4   3   2     1.091968299252   112.43309611   255.51929182
 H      4   3   2     1.090632873150   110.97759244   134.54655122
 S      4   3   2     1.786602224664   115.19977359    16.50892478
 C      2   1   3     1.317574833962   125.28497018   214.05519914
 N      8   2   1     1.323236350905   119.91604121   173.18858040
 N      8   2   1     1.351194480527   120.39094198   354.48825376
 H     10   8   2     1.011757151303   119.43893893   342.13916756
 H     10   8   2     1.010654769343   119.58539038   185.29571941
 H      2   1   3     1.012750840265   117.28239304    38.84614007
 H      9   8   2     1.012048706728   120.25757225   351.78674532
 H      9   8   2     1.011506480060   120.39405507   172.23609159
 O      7   4   3     1.473139212620   105.02973514    49.07238667
 O      7   4   3     1.436617023222   105.98041552   170.73821441
 C      1   2   3     1.529956533456   114.04751046    71.27147181
 H      1   2   3     1.089697165343   105.31628314   309.84494500
 H      1   2   3     1.096250554262   110.38499465   196.36075284
 C      3   2   1     2.542211031985    75.28786529   328.63877310
 C     21   3   2     1.522650424266    33.45203408    62.46988994
 H     22  21   3     1.096558425421   109.78678321   123.00138599
 H     22  21   3     1.089784085482   109.90626334   238.94967961
 H      3   2   1     1.094926392967   169.46526939   316.66150389
 H      3   2   1     1.093851646948    71.30795148   237.06279558
 C     18   1   2     1.527569327213   114.02213033   299.75436756
 H     18   1   2     1.094832037269   107.65179087   177.40351951
 H     18   1   2     1.093983651653   109.22173402    62.36298160
 C     27  18   1     1.525952470352   113.93276277   288.90034571
 H     27  18   1     1.094403426518   108.74093275   167.10616769
 H     27  18   1     1.094190161747   108.74874272    52.17399198
 C     21   3   2     1.529300762752   146.92063230    53.80488115
 H     30  27  18     1.095317124906   108.86941482   300.75108730
 H     30  27  18     1.093912987644   109.92906200    56.35085961
 H     21   3   2     1.095348999413    87.16372703   291.04892433
 H     21   3   2     1.094861915024    92.71949470   185.57163885
 H     33  21   3     1.094677724411   109.10507473    72.09358689
 H     33  21   3     1.095256828209   108.98305469   187.60350442
 O      7   4   3     1.474133937430   106.76381078   292.33403201

---------------------------
INTERNAL COORDINATES (A.U.)
---------------------------
 C      0   0   0     0.000000000000     0.00000000     0.00000000
 N      1   0   0     2.744704167055     0.00000000     0.00000000
 C      2   1   0     9.113923601421   111.29935464     0.00000000
 C      3   2   1     2.879564341994    82.01111056   124.72570022
 H      4   3   2     2.063521032510   112.43309611   255.51929182
 H      4   3   2     2.060997442905   110.97759244   134.54655122
 S      4   3   2     3.376188914869   115.19977359    16.50892478
 C      2   1   3     2.489855597135   125.28497018   214.05519914
 N      8   2   1     2.500554313659   119.91604121   173.18858040
 N      8   2   1     2.553387521862   120.39094198   354.48825376
 H     10   8   2     1.911943930000   119.43893893   342.13916756
 H     10   8   2     1.909860730000   119.58539038   185.29571941
 H      2   1   3     1.913821729999   117.28239304    38.84614007
 H      9   8   2     1.912494889904   120.25757225   351.78674532
 H      9   8   2     1.911470230000   120.39405507   172.23609159
 O      7   4   3     2.783829668993   105.02973514    49.07238667
 O      7   4   3     2.714812733219   105.98041552   170.73821441
 C      1   2   3     2.891198845036   114.04751046    71.27147181
 H      1   2   3     2.059229211409   105.31628314   309.84494500
 H      1   2   3     2.071613321715   110.38499465   196.36075284
 C      3   2   1     4.804082625084    75.28786529   328.63877310
 C     21   3   2     2.877392299561    33.45203408    62.46988994
 H     22  21   3     2.072195113889   109.78678321   123.00138599
 H     22  21   3     2.059393466667   109.90626334   238.94967961
 H      3   2   1     2.069111019509   169.46526939   316.66150389
 H      3   2   1     2.067080043870    71.30795148   237.06279558
 C     18   1   2     2.886687679010   114.02213033   299.75436756
 H     18   1   2     2.068932713082   107.65179087   177.40351951
 H     18   1   2     2.067329496612   109.22173402    62.36298160
 C     27  18   1     2.883632262346   113.93276277   288.90034571
 H     27  18   1     2.068122756144   108.74093275   167.10616769
 H     27  18   1     2.067719744133   108.74874272    52.17399198
 C     21   3   2     2.889959617997   146.92063230    53.80488115
 H     30  27  18     2.069849395866   108.86941482   300.75108730
 H     30  27  18     2.067195960987   109.92906200    56.35085961
 H     21   3   2     2.069909629955    87.16372703   291.04892433
 H     21   3   2     2.068989173855    92.71949470   185.57163885
 H     33  21   3     2.068641104040   109.10507473    72.09358689
 H     33  21   3     2.069735451623   108.98305469   187.60350442
 O      7   4   3     2.785709426462   106.76381078   292.33403201

---------------------
BASIS SET INFORMATION
---------------------
There are 5 groups of distinct atoms

 Group   1 Type C   : 11s6p2d1f contracted to 5s3p2d1f pattern {62111/411/11/1}
 Group   2 Type N   : 11s6p2d1f contracted to 5s3p2d1f pattern {62111/411/11/1}
 Group   3 Type H   : 5s1p contracted to 3s1p pattern {311/1}
 Group   4 Type S   : 14s9p3d1f contracted to 5s5p2d1f pattern {73211/51111/21/1}
 Group   5 Type O   : 11s6p2d1f contracted to 5s3p2d1f pattern {62111/411/11/1}

Atom   0C    basis set group =>   1
Atom   1N    basis set group =>   2
Atom   2C    basis set group =>   1
Atom   3C    basis set group =>   1
Atom   4H    basis set group =>   3
Atom   5H    basis set group =>   3
Atom   6S    basis set group =>   4
Atom   7C    basis set group =>   1
Atom   8N    basis set group =>   2
Atom   9N    basis set group =>   2
Atom  10H    basis set group =>   3
Atom  11H    basis set group =>   3
Atom  12H    basis set group =>   3
Atom  13H    basis set group =>   3
Atom  14H    basis set group =>   3
Atom  15O    basis set group =>   5
Atom  16O    basis set group =>   5
Atom  17C    basis set group =>   1
Atom  18H    basis set group =>   3
Atom  19H    basis set group =>   3
Atom  20C    basis set group =>   1
Atom  21C    basis set group =>   1
Atom  22H    basis set group =>   3
Atom  23H    basis set group =>   3
Atom  24H    basis set group =>   3
Atom  25H    basis set group =>   3
Atom  26C    basis set group =>   1
Atom  27H    basis set group =>   3
Atom  28H    basis set group =>   3
Atom  29C    basis set group =>   1
Atom  30H    basis set group =>   3
Atom  31H    basis set group =>   3
Atom  32C    basis set group =>   1
Atom  33H    basis set group =>   3
Atom  34H    basis set group =>   3
Atom  35H    basis set group =>   3
Atom  36H    basis set group =>   3
Atom  37H    basis set group =>   3
Atom  38H    basis set group =>   3
Atom  39O    basis set group =>   5
---------------------------------
AUXILIARY/J BASIS SET INFORMATION
---------------------------------
There are 5 groups of distinct atoms

 Group   1 Type C   : 12s5p4d2f1g contracted to 6s4p3d1f1g pattern {711111/2111/211/2/1}
 Group   2 Type N   : 12s5p4d2f1g contracted to 6s4p3d1f1g pattern {711111/2111/211/2/1}
 Group   3 Type H   : 5s2p1d contracted to 3s1p1d pattern {311/2/1}
 Group   4 Type S   : 14s5p5d2f1g contracted to 8s4p3d1f1g pattern {71111111/2111/311/2/1}
 Group   5 Type O   : 12s5p4d2f1g contracted to 6s4p3d1f1g pattern {711111/2111/211/2/1}

Atom   0C    basis set group =>   1
Atom   1N    basis set group =>   2
Atom   2C    basis set group =>   1
Atom   3C    basis set group =>   1
Atom   4H    basis set group =>   3
Atom   5H    basis set group =>   3
Atom   6S    basis set group =>   4
Atom   7C    basis set group =>   1
Atom   8N    basis set group =>   2
Atom   9N    basis set group =>   2
Atom  10H    basis set group =>   3
Atom  11H    basis set group =>   3
Atom  12H    basis set group =>   3
Atom  13H    basis set group =>   3
Atom  14H    basis set group =>   3
Atom  15O    basis set group =>   5
Atom  16O    basis set group =>   5
Atom  17C    basis set group =>   1
Atom  18H    basis set group =>   3
Atom  19H    basis set group =>   3
Atom  20C    basis set group =>   1
Atom  21C    basis set group =>   1
Atom  22H    basis set group =>   3
Atom  23H    basis set group =>   3
Atom  24H    basis set group =>   3
Atom  25H    basis set group =>   3
Atom  26C    basis set group =>   1
Atom  27H    basis set group =>   3
Atom  28H    basis set group =>   3
Atom  29C    basis set group =>   1
Atom  30H    basis set group =>   3
Atom  31H    basis set group =>   3
Atom  32C    basis set group =>   1
Atom  33H    basis set group =>   3
Atom  34H    basis set group =>   3
Atom  35H    basis set group =>   3
Atom  36H    basis set group =>   3
Atom  37H    basis set group =>   3
Atom  38H    basis set group =>   3
Atom  39O    basis set group =>   5


           ************************************************************
           *        Program running with 18 parallel MPI-processes    *
           *              working on a common directory               *
           ************************************************************
------------------------------------------------------------------------------
                           ORCA GTO INTEGRAL CALCULATION
                           -- RI-GTO INTEGRALS CHOSEN --
------------------------------------------------------------------------------
------------------------------------------------------------------------------
                   ___                                                        
                  /   \      - P O W E R E D   B Y -                         
                 /     \                                                     
                 |  |  |   _    _      __       _____    __    __             
                 |  |  |  | |  | |    /  \     |  _  \  |  |  /  |          
                  \  \/   | |  | |   /    \    | | | |  |  | /  /          
                 / \  \   | |__| |  /  /\  \   | |_| |  |  |/  /          
                |  |  |   |  __  | /  /__\  \  |    /   |      \           
                |  |  |   | |  | | |   __   |  |    \   |  |\   \          
                \     /   | |  | | |  |  |  |  | |\  \  |  | \   \       
                 \___/    |_|  |_| |__|  |__|  |_| \__\ |__|  \__/        
                                                                              
                      - O R C A' S   B I G   F R I E N D -                    
                                      &                                       
                       - I N T E G R A L  F E E D E R -                       
                                                                              
 v1 FN, 2020, v2 2021                                                         
------------------------------------------------------------------------------


Reading SHARK input file TPSS_B_wt_wb97.SHARKINP.tmp ... ok
----------------------
SHARK INTEGRAL PACKAGE
----------------------

Number of atoms                             ...     40
Number of basis functions                   ...    671
Number of shells                            ...    281
Maximum angular momentum                    ...      3
Integral batch strategy                     ... SHARK/LIBINT Hybrid
RI-J (if used) integral strategy            ... SPLIT-RIJ (Revised 2003 algorithm where possible)
Printlevel                                  ...      1
Contraction scheme used                     ... SEGMENTED contraction
Coulomb Range Separation                    ... NOT USED
Exchange Range Separation                   ... NOT USED
Finite Nucleus Model                        ... NOT USED
Auxiliary Coulomb fitting basis             ... AVAILABLE
   # of basis functions in Aux-J            ...   1088
   # of shells in Aux-J                     ...    372
   Maximum angular momentum in Aux-J        ...      4
Auxiliary J/K fitting basis                 ... NOT available
Auxiliary Correlation fitting basis         ... NOT available
Auxiliary 'external' fitting basis          ... NOT available
Integral threshold                          ...     2.500000e-11
Primitive cut-off                           ...     2.500000e-12
Primitive pair pre-selection threshold      ...     2.500000e-12

Calculating pre-screening integrals         ... done (  0.3 sec) Dimension = 281
Organizing shell pair data                  ... done (  0.3 sec)
Shell pair information
Total number of shell pairs                 ...     39621
Shell pairs after pre-screening             ...     30207
Total number of primitive shell pairs       ...    118312
Primitive shell pairs kept                  ...     61055
          la=0 lb=0:   9047 shell pairs
          la=1 lb=0:   9080 shell pairs
          la=1 lb=1:   2345 shell pairs
          la=2 lb=0:   3920 shell pairs
          la=2 lb=1:   2023 shell pairs
          la=2 lb=2:    470 shell pairs
          la=3 lb=0:   1848 shell pairs
          la=3 lb=1:    955 shell pairs
          la=3 lb=2:    417 shell pairs
          la=3 lb=3:    102 shell pairs

Calculating one electron integrals          ... done (  0.0 sec)
Calculating RI/J V-Matrix + Cholesky decomp.... done (  0.4 sec)
Calculating Nuclear repulsion               ... done (  0.0 sec) ENN=   1572.103580514152 Eh

SHARK setup successfully completed in   1.1 seconds

Maximum memory used throughout the entire GTOINT-calculation: 45.0 MB


           ************************************************************
           *        Program running with 18 parallel MPI-processes    *
           *              working on a common directory               *
           ************************************************************
-------------------------------------------------------------------------------
                                 ORCA SCF
-------------------------------------------------------------------------------

------------
SCF SETTINGS
------------
Hamiltonian:
 Density Functional     Method          .... DFT(GTOs)
 Exchange Functional    Exchange        .... TPSS
 Correlation Functional Correlation     .... TPSS
 LDA part of GGA corr.  LDAOpt          .... PW91-LDA
 Gradients option       PostSCFGGA      .... off
   Density functional embedding theory  .... OFF
   NL short-range parameter             ....  5.000000
 RI-approximation to the Coulomb term is turned on
   Number of AuxJ basis functions       .... 1088


General Settings:
 Integral files         IntName         .... TPSS_B_wt_wb97
 Hartree-Fock type      HFTyp           .... RHF
 Total Charge           Charge          ....    0
 Multiplicity           Mult            ....    1
 Number of Electrons    NEL             ....  144
 Basis Dimension        Dim             ....  671
 Nuclear Repulsion      ENuc            ....   1572.1035805142 Eh

Convergence Acceleration:
 DIIS                   CNVDIIS         .... on
   Start iteration      DIISMaxIt       ....    12
   Startup error        DIISStart       ....  0.200000
   # of expansion vecs  DIISMaxEq       ....     5
   Bias factor          DIISBfac        ....   1.050
   Max. coefficient     DIISMaxC        ....  10.000
 Trust-Rad. Augm. Hess. CNVTRAH         .... auto
   Auto Start mean grad. ratio tolernc. ....  1.125000
   Auto Start start iteration           ....    20
   Auto Start num. interpolation iter.  ....    10
   Max. Number of Micro iterations      ....    16
   Max. Number of Macro iterations      .... Maxiter - #DIIS iter
   Number of Davidson start vectors     ....     2
   Converg. threshold I  (grad. norm)   ....   1.000e-05
   Converg. threshold II (energy diff.) ....   1.000e-08
   Grad. Scal. Fac. for Micro threshold ....   0.100
   Minimum threshold for Micro iter.    ....   0.010
   NR start threshold (gradient norm)   ....   0.001
   Initial trust radius                 ....   0.400
   Minimum AH scaling param. (alpha)    ....   1.000
   Maximum AH scaling param. (alpha)    .... 1000.000
   Orbital update algorithm             .... Taylor
   White noise on init. David. guess    .... on
   Maximum white noise                  ....   0.010
   Quad. conv. algorithm                .... NR
 SOSCF                  CNVSOSCF        .... on
   Start iteration      SOSCFMaxIt      ....   150
   Startup grad/error   SOSCFStart      ....  0.003300
 Level Shifting         CNVShift        .... on
   Level shift para.    LevelShift      ....    0.2500
   Turn off err/grad.   ShiftErr        ....    0.0010
 Zerner damping         CNVZerner       .... off
 Static damping         CNVDamp         .... on
   Fraction old density DampFac         ....    0.7000
   Max. Damping (<1)    DampMax         ....    0.9800
   Min. Damping (>=0)   DampMin         ....    0.0000
   Turn off err/grad.   DampErr         ....    0.1000
 Fernandez-Rico         CNVRico         .... off

SCF Procedure:
 Maximum # iterations   MaxIter         ....   150
 SCF integral mode      SCFMode         .... Direct
   Integral package                     .... SHARK and LIBINT hybrid scheme
 Reset frequency        DirectResetFreq ....    20
 Integral Threshold     Thresh          ....  2.500e-11 Eh
 Primitive CutOff       TCut            ....  2.500e-12 Eh

Convergence Tolerance:
 Convergence Check Mode ConvCheckMode   .... Total+1el-Energy
 Convergence forced     ConvForced      .... 0
 Energy Change          TolE            ....  1.000e-08 Eh
 1-El. energy change                    ....  1.000e-05 Eh
 Orbital Gradient       TolG            ....  1.000e-05
 Orbital Rotation angle TolX            ....  1.000e-05
 DIIS Error             TolErr          ....  5.000e-07


Diagonalization of the overlap matrix:
Smallest eigenvalue                        ... 7.284e-05
Time for diagonalization                   ...    0.140 sec
Threshold for overlap eigenvalues          ... 1.000e-08
Number of eigenvalues below threshold      ... 0
Time for construction of square roots      ...    0.360 sec
Total time needed                          ...    0.504 sec

Time for model grid setup =    0.284 sec

------------------------------
INITIAL GUESS: MODEL POTENTIAL
------------------------------
Loading Hartree-Fock densities                     ... done
Calculating cut-offs                               ... done
Initializing the effective Hamiltonian             ... done
Setting up the integral package (SHARK)            ... done
Starting the Coulomb interaction                   ... done (   0.4 sec)
Reading the grid                                   ... done
Mapping shells                                     ... done
Starting the XC term evaluation                    ... done (   0.2 sec)
  promolecular density results
     # of electrons  =    143.983324530
     EX              =   -127.197431877
     EC              =     -4.948070837
     EX+EC           =   -132.145502714
Transforming the Hamiltonian                       ... done (   0.1 sec)
Diagonalizing the Hamiltonian                      ... done (   0.1 sec)
Back transforming the eigenvectors                 ... done (   0.0 sec)
Now organizing SCF variables                       ... done
                      ------------------
                      INITIAL GUESS DONE (   1.2 sec)
                      ------------------
-------------------
DFT GRID GENERATION
-------------------

General Integration Accuracy     IntAcc      ... 4.388
Radial Grid Type                 RadialGrid  ... OptM3 with GC (2021)
Angular Grid (max. ang.)         AngularGrid ... 4 (Lebedev-302)
Angular grid pruning method      GridPruning ... 4 (adaptive)
Weight generation scheme         WeightScheme... Becke
Basis function cutoff            BFCut       ... 1.0000e-11
Integration weight cutoff        WCut        ... 1.0000e-14
Angular grids for H and He will be reduced by one unit
Partially contracted basis set               ... off
Rotationally invariant grid construction     ... off

Total number of grid points                  ...   175262
Total number of batches                      ...     2758
Average number of points per batch           ...       63
Average number of grid points per atom       ...     4382
Time for grid setup =    1.426 sec

--------------
SCF ITERATIONS
--------------
ITER       Energy         Delta-E        Max-DP      RMS-DP      [F,P]     Damp
               ***  Starting incremental Fock matrix formation  ***
  0  -1182.8557082039   0.000000000000 0.12102245  0.00093962  0.2946514 0.7000
  1  -1183.1916558340  -0.335947630052 0.09523446  0.00070908  0.1013257 0.7000
                               ***Turning on DIIS***
  2  -1183.3003826102  -0.108726776198 0.11440763  0.00110727  0.0297474 0.0000
  3  -1183.4846955984  -0.184312988238 0.09657107  0.00054264  0.0584917 0.0000
  4  -1183.5264110245  -0.041715426119 0.03183562  0.00021623  0.0171005 0.0000
  5  -1183.5295166330  -0.003105608448 0.01180788  0.00008522  0.0071435 0.0000
                      *** Initiating the SOSCF procedure ***
                           *** Shutting down DIIS ***
                      *** Re-Reading the Fockian *** 
                      *** Removing any level shift *** 
ITER      Energy       Delta-E        Grad      Rot      Max-DP    RMS-DP
  6  -1183.52978148  -0.0002648487  0.000337  0.000337  0.002166  0.000030
               *** Restarting incremental Fock matrix formation ***
  7  -1183.52979963  -0.0000181454  0.000148  0.000447  0.002954  0.000023
  8  -1183.52979448   0.0000051474  0.000347  0.000338  0.001181  0.000008
  9  -1183.52980288  -0.0000084031  0.000053  0.000160  0.000356  0.000006
 10  -1183.52980234   0.0000005396  0.000140  0.000137  0.000162  0.000002
 11  -1183.52980323  -0.0000008868  0.000016  0.000060  0.000167  0.000001
 12  -1183.52980320   0.0000000276  0.000025  0.000035  0.000091  0.000001
 13  -1183.52980322  -0.0000000181  0.000003  0.000010  0.000017  0.000000
 14  -1183.52980321   0.0000000056  0.000005  0.000008  0.000013  0.000000
                  ***Gradient check signals convergence***
              ***Rediagonalizing the Fockian in SOSCF/NRSCF***

               *****************************************************
               *                     SUCCESS                       *
               *           SCF CONVERGED AFTER  15 CYCLES          *
               *****************************************************


----------------
TOTAL SCF ENERGY
----------------

Total Energy       :        -1183.52980325 Eh          -32205.48324 eV

Components:
Nuclear Repulsion  :         1572.10358051 Eh           42779.11327 eV
Electronic Energy  :        -2755.63338377 Eh          -74984.59652 eV
One Electron Energy:        -4744.69748640 Eh         -129109.78242 eV
Two Electron Energy:         1989.06410263 Eh           54125.18590 eV

Virial components:
Potential Energy   :        -2363.30289602 Eh          -64308.74119 eV
Kinetic Energy     :         1179.77309277 Eh           32103.25795 eV
Virial Ratio       :            2.00318427


DFT components:
N(Alpha)           :       71.999777048467 electrons
N(Beta)            :       71.999777048467 electrons
N(Total)           :      143.999554096933 electrons
E(X)               :     -130.887354871742 Eh       
E(C)               :       -4.941099665719 Eh       
E(XC)              :     -135.828454537462 Eh       
DFET-embed. en.    :        0.000000000000 Eh       

---------------
SCF CONVERGENCE
---------------

  Last Energy change         ...   -3.6950e-08  Tolerance :   1.0000e-08
  Last MAX-Density change    ...    7.1921e-06  Tolerance :   1.0000e-07
  Last RMS-Density change    ...    9.4441e-08  Tolerance :   5.0000e-09
  Last Orbital Gradient      ...    1.0895e-06  Tolerance :   1.0000e-05
  Last Orbital Rotation      ...    4.0153e-06  Tolerance :   1.0000e-05

             **** THE GBW FILE WAS UPDATED (TPSS_B_wt_wb97.gbw) ****
             **** DENSITY TPSS_B_wt_wb97.scfp WAS UPDATED ****
             **** ENERGY FILE WAS UPDATED (TPSS_B_wt_wb97.en.tmp) ****
             **** THE GBW FILE WAS UPDATED (TPSS_B_wt_wb97.gbw) ****
             **** DENSITY TPSS_B_wt_wb97.scfp WAS UPDATED ****
----------------
ORBITAL ENERGIES
----------------

  NO   OCC          E(Eh)            E(eV) 
   0   2.0000     -88.478819     -2407.6311 
   1   2.0000     -18.818743      -512.0840 
   2   2.0000     -18.818529      -512.0782 
   3   2.0000     -18.804476      -511.6958 
   4   2.0000     -14.174429      -385.7058 
   5   2.0000     -14.142410      -384.8345 
   6   2.0000     -14.141058      -384.7978 
   7   2.0000     -10.142310      -275.9863 
   8   2.0000     -10.049943      -273.4729 
   9   2.0000     -10.004504      -272.2364 
  10   2.0000      -9.988216      -271.7932 
  11   2.0000      -9.981305      -271.6051 
  12   2.0000      -9.975989      -271.4605 
  13   2.0000      -9.972094      -271.3545 
  14   2.0000      -9.968787      -271.2645 
  15   2.0000      -9.965661      -271.1794 
  16   2.0000      -9.959111      -271.0012 
  17   2.0000      -7.828203      -213.0162 
  18   2.0000      -5.807952      -158.0424 
  19   2.0000      -5.806934      -158.0147 
  20   2.0000      -5.806202      -157.9948 
  21   2.0000      -1.003602       -27.3094 
  22   2.0000      -0.982625       -26.7386 
  23   2.0000      -0.882890       -24.0247 
  24   2.0000      -0.876263       -23.8443 
  25   2.0000      -0.871164       -23.7056 
  26   2.0000      -0.864507       -23.5244 
  27   2.0000      -0.764602       -20.8059 
  28   2.0000      -0.739036       -20.1102 
  29   2.0000      -0.713156       -19.4060 
  30   2.0000      -0.679063       -18.4782 
  31   2.0000      -0.645379       -17.5616 
  32   2.0000      -0.623294       -16.9607 
  33   2.0000      -0.595779       -16.2120 
  34   2.0000      -0.576745       -15.6940 
  35   2.0000      -0.566112       -15.4047 
  36   2.0000      -0.543992       -14.8028 
  37   2.0000      -0.529755       -14.4154 
  38   2.0000      -0.504938       -13.7401 
  39   2.0000      -0.495060       -13.4713 
  40   2.0000      -0.491836       -13.3835 
  41   2.0000      -0.467646       -12.7253 
  42   2.0000      -0.457201       -12.4411 
  43   2.0000      -0.441340       -12.0095 
  44   2.0000      -0.433700       -11.8016 
  45   2.0000      -0.419333       -11.4106 
  46   2.0000      -0.412156       -11.2153 
  47   2.0000      -0.404254       -11.0003 
  48   2.0000      -0.390719       -10.6320 
  49   2.0000      -0.386172       -10.5083 
  50   2.0000      -0.377145       -10.2626 
  51   2.0000      -0.373895       -10.1742 
  52   2.0000      -0.359612        -9.7855 
  53   2.0000      -0.356522        -9.7015 
  54   2.0000      -0.346587        -9.4311 
  55   2.0000      -0.339473        -9.2375 
  56   2.0000      -0.327598        -8.9144 
  57   2.0000      -0.319369        -8.6905 
  58   2.0000      -0.309485        -8.4215 
  59   2.0000      -0.298201        -8.1145 
  60   2.0000      -0.287990        -7.8366 
  61   2.0000      -0.282452        -7.6859 
  62   2.0000      -0.276767        -7.5312 
  63   2.0000      -0.273920        -7.4537 
  64   2.0000      -0.271180        -7.3792 
  65   2.0000      -0.264167        -7.1883 
  66   2.0000      -0.256724        -6.9858 
  67   2.0000      -0.248915        -6.7733 
  68   2.0000      -0.225562        -6.1378 
  69   2.0000      -0.218454        -5.9444 
  70   2.0000      -0.212010        -5.7691 
  71   2.0000      -0.182214        -4.9583 
  72   0.0000      -0.030166        -0.8209 
  73   0.0000      -0.029655        -0.8070 
  74   0.0000       0.002156         0.0587 
  75   0.0000       0.027154         0.7389 
  76   0.0000       0.036013         0.9800 
  77   0.0000       0.041522         1.1299 
  78   0.0000       0.044806         1.2192 
  79   0.0000       0.050598         1.3768 
  80   0.0000       0.060092         1.6352 
  81   0.0000       0.070852         1.9280 
  82   0.0000       0.075692         2.0597 
  83   0.0000       0.082675         2.2497 
  84   0.0000       0.090429         2.4607 
  85   0.0000       0.092298         2.5116 
  86   0.0000       0.099751         2.7144 
  87   0.0000       0.106251         2.8912 
  88   0.0000       0.111617         3.0372 
  89   0.0000       0.117721         3.2034 
  90   0.0000       0.121632         3.3098 
  91   0.0000       0.122189         3.3249 
  92   0.0000       0.130319         3.5461 
  93   0.0000       0.132225         3.5980 
  94   0.0000       0.140950         3.8354 
  95   0.0000       0.143027         3.8920 
  96   0.0000       0.147344         4.0094 
  97   0.0000       0.152036         4.1371 
  98   0.0000       0.159810         4.3487 
  99   0.0000       0.163320         4.4442 
 100   0.0000       0.166721         4.5367 
 101   0.0000       0.171619         4.6700 
 102   0.0000       0.173327         4.7165 
 103   0.0000       0.181120         4.9285 
 104   0.0000       0.185366         5.0441 
 105   0.0000       0.189897         5.1674 
 106   0.0000       0.192065         5.2264 
 107   0.0000       0.201456         5.4819 
 108   0.0000       0.208033         5.6609 
 109   0.0000       0.211791         5.7631 
 110   0.0000       0.215737         5.8705 
 111   0.0000       0.225004         6.1227 
 112   0.0000       0.231165         6.2903 
 113   0.0000       0.238403         6.4873 
 114   0.0000       0.243539         6.6270 
 115   0.0000       0.253181         6.8894 
 116   0.0000       0.258324         7.0293 
 117   0.0000       0.263713         7.1760 
 118   0.0000       0.272473         7.4144 
 119   0.0000       0.275424         7.4947 
 120   0.0000       0.277755         7.5581 
 121   0.0000       0.279266         7.5992 
 122   0.0000       0.284277         7.7356 
 123   0.0000       0.297847         8.1048 
 124   0.0000       0.303952         8.2710 
 125   0.0000       0.311657         8.4806 
 126   0.0000       0.318296         8.6613 
 127   0.0000       0.322522         8.7763 
 128   0.0000       0.327111         8.9011 
 129   0.0000       0.334902         9.1132 
 130   0.0000       0.340778         9.2731 
 131   0.0000       0.345982         9.4147 
 132   0.0000       0.353147         9.6096 
 133   0.0000       0.356053         9.6887 
 134   0.0000       0.364072         9.9069 
 135   0.0000       0.372595        10.1388 
 136   0.0000       0.378760        10.3066 
 137   0.0000       0.381436        10.3794 
 138   0.0000       0.388098        10.5607 
 139   0.0000       0.390582        10.6283 
 140   0.0000       0.397695        10.8218 
 141   0.0000       0.404075        10.9954 
 142   0.0000       0.407451        11.0873 
 143   0.0000       0.408911        11.1270 
 144   0.0000       0.414545        11.2803 
 145   0.0000       0.416415        11.3312 
 146   0.0000       0.422840        11.5061 
 147   0.0000       0.427681        11.6378 
 148   0.0000       0.431037        11.7291 
 149   0.0000       0.432302        11.7635 
 150   0.0000       0.434720        11.8293 
 151   0.0000       0.439144        11.9497 
 152   0.0000       0.443664        12.0727 
 153   0.0000       0.449211        12.2237 
 154   0.0000       0.450419        12.2565 
 155   0.0000       0.452203        12.3051 
 156   0.0000       0.460482        12.5303 
 157   0.0000       0.461402        12.5554 
 158   0.0000       0.463440        12.6108 
 159   0.0000       0.467404        12.7187 
 160   0.0000       0.471053        12.8180 
 161   0.0000       0.477190        12.9850 
 162   0.0000       0.484522        13.1845 
 163   0.0000       0.487692        13.2708 
 164   0.0000       0.490937        13.3591 
 165   0.0000       0.496589        13.5129 
 166   0.0000       0.501202        13.6384 
 167   0.0000       0.511743        13.9252 
 168   0.0000       0.514485        13.9998 
 169   0.0000       0.525275        14.2935 
 170   0.0000       0.528894        14.3919 
 171   0.0000       0.537422        14.6240 
 172   0.0000       0.543822        14.7982 
 173   0.0000       0.549362        14.9489 
 174   0.0000       0.555369        15.1124 
 175   0.0000       0.563348        15.3295 
 176   0.0000       0.570430        15.5222 
 177   0.0000       0.582786        15.8584 
 178   0.0000       0.586116        15.9490 
 179   0.0000       0.598151        16.2765 
 180   0.0000       0.600309        16.3352 
 181   0.0000       0.612070        16.6553 
 182   0.0000       0.615515        16.7490 
 183   0.0000       0.621962        16.9244 
 184   0.0000       0.640294        17.4233 
 185   0.0000       0.649945        17.6859 
 186   0.0000       0.654230        17.8025 
 187   0.0000       0.660267        17.9668 
 188   0.0000       0.666091        18.1253 
 189   0.0000       0.677692        18.4409 
 190   0.0000       0.686465        18.6797 
 191   0.0000       0.699172        19.0254 
 192   0.0000       0.703550        19.1446 
 193   0.0000       0.722653        19.6644 
 194   0.0000       0.730035        19.8653 
 195   0.0000       0.734612        19.9898 
 196   0.0000       0.740730        20.1563 
 197   0.0000       0.747910        20.3517 
 198   0.0000       0.757132        20.6026 
 199   0.0000       0.770279        20.9604 
 200   0.0000       0.778146        21.1744 
 201   0.0000       0.789744        21.4900 
 202   0.0000       0.791505        21.5379 
 203   0.0000       0.802617        21.8403 
 204   0.0000       0.805925        21.9303 
 205   0.0000       0.813140        22.1267 
 206   0.0000       0.826367        22.4866 
 207   0.0000       0.827028        22.5046 
 208   0.0000       0.838963        22.8293 
 209   0.0000       0.855520        23.2799 
 210   0.0000       0.858146        23.3513 
 211   0.0000       0.866971        23.5915 
 212   0.0000       0.869866        23.6702 
 213   0.0000       0.883428        24.0393 
 214   0.0000       0.889437        24.2028 
 215   0.0000       0.900763        24.5110 
 216   0.0000       0.906371        24.6636 
 217   0.0000       0.914640        24.8886 
 218   0.0000       0.927310        25.2334 
 219   0.0000       0.931366        25.3437 
 220   0.0000       0.945656        25.7326 
 221   0.0000       0.956613        26.0308 
 222   0.0000       0.967083        26.3157 
 223   0.0000       0.971334        26.4313 
 224   0.0000       0.974950        26.5297 
 225   0.0000       0.984892        26.8003 
 226   0.0000       0.994606        27.0646 
 227   0.0000       1.005899        27.3719 
 228   0.0000       1.013129        27.5687 
 229   0.0000       1.030018        28.0282 
 230   0.0000       1.040526        28.3141 
 231   0.0000       1.045868        28.4595 
 232   0.0000       1.053487        28.6668 
 233   0.0000       1.066077        29.0094 
 234   0.0000       1.082154        29.4469 
 235   0.0000       1.088005        29.6061 
 236   0.0000       1.111819        30.2541 
 237   0.0000       1.114738        30.3336 
 238   0.0000       1.128745        30.7147 
 239   0.0000       1.130164        30.7533 
 240   0.0000       1.145232        31.1633 
 241   0.0000       1.153248        31.3815 
 242   0.0000       1.157611        31.5002 
 243   0.0000       1.171089        31.8670 
 244   0.0000       1.180245        32.1161 
 245   0.0000       1.188054        32.3286 
 246   0.0000       1.194241        32.4969 
 247   0.0000       1.202833        32.7307 
 248   0.0000       1.211097        32.9556 
 249   0.0000       1.222941        33.2779 
 250   0.0000       1.231582        33.5130 
 251   0.0000       1.238765        33.7085 
 252   0.0000       1.250570        34.0297 
 253   0.0000       1.257587        34.2207 
 254   0.0000       1.269367        34.5412 
 255   0.0000       1.281666        34.8759 
 256   0.0000       1.289698        35.0945 
 257   0.0000       1.300545        35.3896 
 258   0.0000       1.300870        35.3985 
 259   0.0000       1.321096        35.9488 
 260   0.0000       1.336151        36.3585 
 261   0.0000       1.345557        36.6145 
 262   0.0000       1.353013        36.8174 
 263   0.0000       1.374400        37.3993 
 264   0.0000       1.377676        37.4885 
 265   0.0000       1.383372        37.6435 
 266   0.0000       1.406091        38.2617 
 267   0.0000       1.412949        38.4483 
 268   0.0000       1.424443        38.7611 
 269   0.0000       1.443805        39.2879 
 270   0.0000       1.446183        39.3526 
 271   0.0000       1.465818        39.8869 
 272   0.0000       1.472428        40.0668 
 273   0.0000       1.479430        40.2573 
 274   0.0000       1.485893        40.4332 
 275   0.0000       1.491598        40.5885 
 276   0.0000       1.496560        40.7235 
 277   0.0000       1.505735        40.9731 
 278   0.0000       1.513306        41.1792 
 279   0.0000       1.521043        41.3897 
 280   0.0000       1.534430        41.7540 
 281   0.0000       1.534910        41.7670 
 282   0.0000       1.546513        42.0827 
 283   0.0000       1.550239        42.1842 
 284   0.0000       1.558524        42.4096 
 285   0.0000       1.560823        42.4722 
 286   0.0000       1.573480        42.8166 
 287   0.0000       1.583392        43.0863 
 288   0.0000       1.590973        43.2926 
 289   0.0000       1.600557        43.5534 
 290   0.0000       1.603544        43.6346 
 291   0.0000       1.610411        43.8215 
 292   0.0000       1.612251        43.8716 
 293   0.0000       1.620782        44.1037 
 294   0.0000       1.627933        44.2983 
 295   0.0000       1.633930        44.4615 
 296   0.0000       1.640265        44.6339 
 297   0.0000       1.643457        44.7207 
 298   0.0000       1.650111        44.9018 
 299   0.0000       1.663916        45.2775 
 300   0.0000       1.667900        45.3859 
 301   0.0000       1.672051        45.4988 
 302   0.0000       1.672382        45.5078 
 303   0.0000       1.694627        46.1131 
 304   0.0000       1.712681        46.6044 
 305   0.0000       1.717448        46.7341 
 306   0.0000       1.725403        46.9506 
 307   0.0000       1.737580        47.2820 
 308   0.0000       1.744554        47.4717 
 309   0.0000       1.750833        47.6426 
 310   0.0000       1.762522        47.9607 
 311   0.0000       1.769507        48.1507 
 312   0.0000       1.777555        48.3697 
 313   0.0000       1.783700        48.5369 
 314   0.0000       1.790857        48.7317 
 315   0.0000       1.801678        49.0262 
 316   0.0000       1.805592        49.1327 
 317   0.0000       1.810186        49.2577 
 318   0.0000       1.828449        49.7546 
 319   0.0000       1.835593        49.9490 
 320   0.0000       1.852178        50.4003 
 321   0.0000       1.858522        50.5729 
 322   0.0000       1.862804        50.6895 
 323   0.0000       1.879942        51.1558 
 324   0.0000       1.886629        51.3378 
 325   0.0000       1.891628        51.4738 
 326   0.0000       1.898390        51.6578 
 327   0.0000       1.912943        52.0538 
 328   0.0000       1.928375        52.4738 
 329   0.0000       1.933805        52.6215 
 330   0.0000       1.946401        52.9643 
 331   0.0000       1.963683        53.4345 
 332   0.0000       1.968275        53.5595 
 333   0.0000       1.977477        53.8099 
 334   0.0000       1.979009        53.8516 
 335   0.0000       1.984338        53.9966 
 336   0.0000       1.999218        54.4015 
 337   0.0000       2.003048        54.5057 
 338   0.0000       2.023175        55.0534 
 339   0.0000       2.037458        55.4420 
 340   0.0000       2.042877        55.5895 
 341   0.0000       2.052114        55.8409 
 342   0.0000       2.056842        55.9695 
 343   0.0000       2.066010        56.2190 
 344   0.0000       2.089200        56.8500 
 345   0.0000       2.097569        57.0778 
 346   0.0000       2.105961        57.3061 
 347   0.0000       2.119280        57.6685 
 348   0.0000       2.125452        57.8365 
 349   0.0000       2.137809        58.1727 
 350   0.0000       2.155945        58.6662 
 351   0.0000       2.174988        59.1844 
 352   0.0000       2.180104        59.3237 
 353   0.0000       2.190881        59.6169 
 354   0.0000       2.207621        60.0724 
 355   0.0000       2.213937        60.2443 
 356   0.0000       2.225636        60.5626 
 357   0.0000       2.239121        60.9296 
 358   0.0000       2.250578        61.2413 
 359   0.0000       2.256476        61.4018 
 360   0.0000       2.273782        61.8728 
 361   0.0000       2.288166        62.2642 
 362   0.0000       2.293601        62.4121 
 363   0.0000       2.308409        62.8150 
 364   0.0000       2.311909        62.9102 
 365   0.0000       2.315822        63.0167 
 366   0.0000       2.318242        63.0826 
 367   0.0000       2.339165        63.6519 
 368   0.0000       2.347971        63.8915 
 369   0.0000       2.354362        64.0654 
 370   0.0000       2.360076        64.2209 
 371   0.0000       2.384750        64.8923 
 372   0.0000       2.394050        65.1454 
 373   0.0000       2.404111        65.4192 
 374   0.0000       2.406222        65.4766 
 375   0.0000       2.413629        65.6782 
 376   0.0000       2.421528        65.8931 
 377   0.0000       2.430516        66.1377 
 378   0.0000       2.442118        66.4534 
 379   0.0000       2.453397        66.7603 
 380   0.0000       2.458380        66.8959 
 381   0.0000       2.472548        67.2815 
 382   0.0000       2.477673        67.4209 
 383   0.0000       2.484197        67.5984 
 384   0.0000       2.485524        67.6346 
 385   0.0000       2.493276        67.8455 
 386   0.0000       2.497650        67.9645 
 387   0.0000       2.502851        68.1060 
 388   0.0000       2.508066        68.2479 
 389   0.0000       2.514944        68.4351 
 390   0.0000       2.519436        68.5574 
 391   0.0000       2.533717        68.9459 
 392   0.0000       2.544167        69.2303 
 393   0.0000       2.552112        69.4465 
 394   0.0000       2.559655        69.6518 
 395   0.0000       2.571606        69.9770 
 396   0.0000       2.575567        70.0847 
 397   0.0000       2.584489        70.3275 
 398   0.0000       2.596594        70.6569 
 399   0.0000       2.598246        70.7019 
 400   0.0000       2.614314        71.1391 
 401   0.0000       2.619062        71.2683 
 402   0.0000       2.625124        71.4333 
 403   0.0000       2.626951        71.4830 
 404   0.0000       2.628923        71.5366 
 405   0.0000       2.638448        71.7958 
 406   0.0000       2.640700        71.8571 
 407   0.0000       2.643946        71.9454 
 408   0.0000       2.652608        72.1811 
 409   0.0000       2.674831        72.7858 
 410   0.0000       2.681532        72.9682 
 411   0.0000       2.687118        73.1202 
 412   0.0000       2.691681        73.2444 
 413   0.0000       2.698380        73.4267 
 414   0.0000       2.702414        73.5364 
 415   0.0000       2.710011        73.7431 
 416   0.0000       2.718022        73.9611 
 417   0.0000       2.734305        74.4042 
 418   0.0000       2.741978        74.6130 
 419   0.0000       2.750802        74.8531 
 420   0.0000       2.758388        75.0596 
 421   0.0000       2.764114        75.2154 
 422   0.0000       2.769326        75.3572 
 423   0.0000       2.778495        75.6067 
 424   0.0000       2.787114        75.8412 
 425   0.0000       2.799298        76.1728 
 426   0.0000       2.808067        76.4114 
 427   0.0000       2.820452        76.7484 
 428   0.0000       2.823850        76.8409 
 429   0.0000       2.832871        77.0863 
 430   0.0000       2.837768        77.2196 
 431   0.0000       2.844631        77.4063 
 432   0.0000       2.853891        77.6583 
 433   0.0000       2.858315        77.7787 
 434   0.0000       2.867388        78.0256 
 435   0.0000       2.885979        78.5315 
 436   0.0000       2.910450        79.1974 
 437   0.0000       2.914151        79.2981 
 438   0.0000       2.924020        79.5666 
 439   0.0000       2.939059        79.9759 
 440   0.0000       2.957165        80.4685 
 441   0.0000       2.980155        81.0941 
 442   0.0000       2.988608        81.3242 
 443   0.0000       3.000153        81.6383 
 444   0.0000       3.007339        81.8339 
 445   0.0000       3.021529        82.2200 
 446   0.0000       3.032667        82.5231 
 447   0.0000       3.034912        82.5842 
 448   0.0000       3.065086        83.4052 
 449   0.0000       3.069996        83.5388 
 450   0.0000       3.072777        83.6145 
 451   0.0000       3.081171        83.8429 
 452   0.0000       3.094775        84.2131 
 453   0.0000       3.103374        84.4471 
 454   0.0000       3.111393        84.6653 
 455   0.0000       3.119450        84.8846 
 456   0.0000       3.126665        85.0809 
 457   0.0000       3.138230        85.3956 
 458   0.0000       3.147351        85.6438 
 459   0.0000       3.159212        85.9665 
 460   0.0000       3.161079        86.0173 
 461   0.0000       3.165364        86.1339 
 462   0.0000       3.174589        86.3850 
 463   0.0000       3.183366        86.6238 
 464   0.0000       3.187844        86.7457 
 465   0.0000       3.205843        87.2354 
 466   0.0000       3.207499        87.2805 
 467   0.0000       3.216907        87.5365 
 468   0.0000       3.226517        87.7980 
 469   0.0000       3.237279        88.0908 
 470   0.0000       3.244449        88.2859 
 471   0.0000       3.252190        88.4966 
 472   0.0000       3.260440        88.7211 
 473   0.0000       3.265221        88.8512 
 474   0.0000       3.274838        89.1129 
 475   0.0000       3.281812        89.3026 
 476   0.0000       3.285611        89.4060 
 477   0.0000       3.294165        89.6388 
 478   0.0000       3.307950        90.0139 
 479   0.0000       3.326744        90.5253 
 480   0.0000       3.329650        90.6044 
 481   0.0000       3.333629        90.7127 
 482   0.0000       3.348627        91.1208 
 483   0.0000       3.361211        91.4632 
 484   0.0000       3.369249        91.6819 
 485   0.0000       3.379679        91.9657 
 486   0.0000       3.388908        92.2169 
 487   0.0000       3.398842        92.4872 
 488   0.0000       3.406060        92.6836 
 489   0.0000       3.414160        92.9040 
 490   0.0000       3.421439        93.1021 
 491   0.0000       3.433543        93.4315 
 492   0.0000       3.434631        93.4610 
 493   0.0000       3.446133        93.7740 
 494   0.0000       3.458369        94.1070 
 495   0.0000       3.466438        94.3266 
 496   0.0000       3.477232        94.6203 
 497   0.0000       3.495749        95.1242 
 498   0.0000       3.507921        95.4554 
 499   0.0000       3.514863        95.6443 
 500   0.0000       3.525642        95.9376 
 501   0.0000       3.529232        96.0353 
 502   0.0000       3.539684        96.3197 
 503   0.0000       3.552046        96.6561 
 504   0.0000       3.561354        96.9094 
 505   0.0000       3.563360        96.9639 
 506   0.0000       3.565686        97.0273 
 507   0.0000       3.580189        97.4219 
 508   0.0000       3.582416        97.4825 
 509   0.0000       3.609821        98.2282 
 510   0.0000       3.627313        98.7042 
 511   0.0000       3.645942        99.2111 
 512   0.0000       3.654714        99.4498 
 513   0.0000       3.671343        99.9023 
 514   0.0000       3.682149       100.1964 
 515   0.0000       3.693478       100.5046 
 516   0.0000       3.716156       101.1218 
 517   0.0000       3.725064       101.3641 
 518   0.0000       3.737419       101.7003 
 519   0.0000       3.742380       101.8353 
 520   0.0000       3.772750       102.6617 
 521   0.0000       3.792060       103.1872 
 522   0.0000       3.808773       103.6420 
 523   0.0000       3.825051       104.0849 
 524   0.0000       3.825970       104.1099 
 525   0.0000       3.843638       104.5907 
 526   0.0000       3.869482       105.2939 
 527   0.0000       3.881480       105.6205 
 528   0.0000       3.898461       106.0825 
 529   0.0000       3.915150       106.5367 
 530   0.0000       3.918205       106.6198 
 531   0.0000       3.943105       107.2974 
 532   0.0000       3.952271       107.5468 
 533   0.0000       3.962455       107.8239 
 534   0.0000       3.967009       107.9478 
 535   0.0000       4.005023       108.9822 
 536   0.0000       4.016728       109.3007 
 537   0.0000       4.037918       109.8773 
 538   0.0000       4.045791       110.0916 
 539   0.0000       4.054985       110.3418 
 540   0.0000       4.071677       110.7960 
 541   0.0000       4.083670       111.1223 
 542   0.0000       4.110784       111.8601 
 543   0.0000       4.131250       112.4170 
 544   0.0000       4.153057       113.0104 
 545   0.0000       4.170034       113.4724 
 546   0.0000       4.182469       113.8108 
 547   0.0000       4.206394       114.4618 
 548   0.0000       4.213355       114.6512 
 549   0.0000       4.231017       115.1318 
 550   0.0000       4.247695       115.5857 
 551   0.0000       4.262681       115.9934 
 552   0.0000       4.270195       116.1979 
 553   0.0000       4.293086       116.8208 
 554   0.0000       4.333169       117.9115 
 555   0.0000       4.341160       118.1290 
 556   0.0000       4.358136       118.5909 
 557   0.0000       4.376538       119.0917 
 558   0.0000       4.409534       119.9895 
 559   0.0000       4.426269       120.4449 
 560   0.0000       4.436766       120.7305 
 561   0.0000       4.467067       121.5551 
 562   0.0000       4.490541       122.1938 
 563   0.0000       4.495082       122.3174 
 564   0.0000       4.549736       123.8046 
 565   0.0000       4.562376       124.1486 
 566   0.0000       4.580846       124.6511 
 567   0.0000       4.603902       125.2785 
 568   0.0000       4.619030       125.6902 
 569   0.0000       4.628836       125.9570 
 570   0.0000       4.649784       126.5270 
 571   0.0000       4.672286       127.1394 
 572   0.0000       4.684402       127.4691 
 573   0.0000       4.705591       128.0456 
 574   0.0000       4.712380       128.2304 
 575   0.0000       4.727226       128.6344 
 576   0.0000       4.731883       128.7611 
 577   0.0000       4.747348       129.1819 
 578   0.0000       4.777192       129.9940 
 579   0.0000       4.783162       130.1565 
 580   0.0000       4.797580       130.5488 
 581   0.0000       4.807493       130.8185 
 582   0.0000       4.815146       131.0268 
 583   0.0000       4.823098       131.2432 
 584   0.0000       4.859314       132.2286 
 585   0.0000       4.867520       132.4519 
 586   0.0000       4.899034       133.3095 
 587   0.0000       4.905071       133.4738 
 588   0.0000       4.952294       134.7588 
 589   0.0000       4.966116       135.1349 
 590   0.0000       4.980578       135.5284 
 591   0.0000       5.001005       136.0843 
 592   0.0000       5.030924       136.8984 
 593   0.0000       5.058401       137.6461 
 594   0.0000       5.083681       138.3340 
 595   0.0000       5.121799       139.3712 
 596   0.0000       5.128517       139.5540 
 597   0.0000       5.130139       139.5982 
 598   0.0000       5.139113       139.8424 
 599   0.0000       5.145146       140.0065 
 600   0.0000       5.155114       140.2778 
 601   0.0000       5.177309       140.8817 
 602   0.0000       5.196749       141.4107 
 603   0.0000       5.199035       141.4729 
 604   0.0000       5.203553       141.5959 
 605   0.0000       5.206987       141.6893 
 606   0.0000       5.218161       141.9934 
 607   0.0000       5.222122       142.1012 
 608   0.0000       5.230802       142.3374 
 609   0.0000       5.235408       142.4627 
 610   0.0000       5.259870       143.1283 
 611   0.0000       5.295118       144.0875 
 612   0.0000       5.310211       144.4982 
 613   0.0000       5.324210       144.8791 
 614   0.0000       5.335778       145.1939 
 615   0.0000       5.342164       145.3677 
 616   0.0000       5.371398       146.1632 
 617   0.0000       5.385039       146.5344 
 618   0.0000       5.405848       147.1006 
 619   0.0000       5.410585       147.2295 
 620   0.0000       5.433080       147.8416 
 621   0.0000       5.488786       149.3575 
 622   0.0000       5.529910       150.4765 
 623   0.0000       5.561213       151.3283 
 624   0.0000       5.574395       151.6870 
 625   0.0000       5.605841       152.5427 
 626   0.0000       5.640766       153.4931 
 627   0.0000       5.692163       154.8916 
 628   0.0000       5.718236       155.6011 
 629   0.0000       5.733923       156.0280 
 630   0.0000       5.775428       157.1574 
 631   0.0000       5.886186       160.1713 
 632   0.0000       6.029902       164.0820 
 633   0.0000       6.051624       164.6731 
 634   0.0000       6.197385       168.6394 
 635   0.0000       6.263813       170.4470 
 636   0.0000       6.323343       172.0669 
 637   0.0000       6.344208       172.6347 
 638   0.0000       6.366476       173.2406 
 639   0.0000       6.455121       175.6528 
 640   0.0000       6.530197       177.6957 
 641   0.0000       6.555341       178.3799 
 642   0.0000       6.735487       183.2819 
 643   0.0000       6.748548       183.6373 
 644   0.0000       6.789918       184.7631 
 645   0.0000       6.826117       185.7481 
 646   0.0000       6.903061       187.8418 
 647   0.0000       6.917785       188.2425 
 648   0.0000       6.955448       189.2674 
 649   0.0000       6.999014       190.4529 
 650   0.0000       7.030368       191.3060 
 651   0.0000       9.390142       255.5187 
 652   0.0000       9.531063       259.3534 
 653   0.0000       9.643192       262.4046 
 654   0.0000      22.270310       606.0060 
 655   0.0000      22.372254       608.7800 
 656   0.0000      22.435947       610.5131 
 657   0.0000      22.460948       611.1935 
 658   0.0000      22.474355       611.5583 
 659   0.0000      22.492555       612.0535 
 660   0.0000      22.504089       612.3674 
 661   0.0000      22.534240       613.1879 
 662   0.0000      22.540184       613.3496 
 663   0.0000      22.841170       621.5398 
 664   0.0000      23.312550       634.3667 
 665   0.0000      31.868542       867.1871 
 666   0.0000      32.016087       871.2020 
 667   0.0000      32.635730       888.0634 
 668   0.0000      43.601579      1186.4593 
 669   0.0000      43.740086      1190.2282 
 670   0.0000      43.863119      1193.5762 

                    ********************************
                    * MULLIKEN POPULATION ANALYSIS *
                    ********************************

-----------------------
MULLIKEN ATOMIC CHARGES
-----------------------
   0 C :   -0.226067
   1 N :   -0.191673
   2 C :   -0.126783
   3 C :   -0.165593
   4 H :    0.098283
   5 H :    0.114997
   6 S :    0.786566
   7 C :    0.373688
   8 N :   -0.379398
   9 N :   -0.456888
  10 H :    0.266150
  11 H :    0.248908
  12 H :    0.253816
  13 H :    0.289295
  14 H :    0.236257
  15 O :   -0.575723
  16 O :   -0.460761
  17 C :   -0.084337
  18 H :    0.155463
  19 H :    0.114344
  20 C :   -0.175110
  21 C :   -0.276244
  22 H :    0.065322
  23 H :    0.124532
  24 H :    0.076701
  25 H :    0.095485
  26 C :   -0.221795
  27 H :    0.087025
  28 H :    0.096326
  29 C :   -0.249081
  30 H :    0.088654
  31 H :    0.126172
  32 C :   -0.066820
  33 H :    0.079614
  34 H :    0.114029
  35 H :    0.091965
  36 H :    0.079831
  37 H :    0.077821
  38 H :    0.077545
  39 O :   -0.562515
Sum of atomic charges:    0.0000000

--------------------------------
MULLIKEN REDUCED ORBITAL CHARGES
--------------------------------
  0 C s       :     3.219995  s :     3.219995
      pz      :     0.764641  p :     2.874908
      px      :     1.000879
      py      :     1.109388
      dz2     :     0.024286  d :     0.122326
      dxz     :     0.039825
      dyz     :     0.021968
      dx2y2   :     0.010994
      dxy     :     0.025253
      f0      :     0.002120  f :     0.008838
      f+1     :     0.002378
      f-1     :     0.001407
      f+2     :     0.000580
      f-2     :     0.000510
      f+3     :     0.001084
      f-3     :     0.000760
  1 N s       :     3.438540  s :     3.438540
      pz      :     1.084349  p :     3.688600
      px      :     1.441262
      py      :     1.162989
      dz2     :     0.014460  d :     0.060048
      dxz     :     0.013976
      dyz     :     0.018547
      dx2y2   :     0.005226
      dxy     :     0.007839
      f0      :     0.000762  f :     0.004486
      f+1     :     0.000580
      f-1     :     0.000890
      f+2     :     0.000419
      f-2     :     0.000655
      f+3     :     0.000666
      f-3     :     0.000513
  2 C s       :     3.112513  s :     3.112513
      pz      :     0.942901  p :     2.904691
      px      :     0.963989
      py      :     0.997801
      dz2     :     0.019228  d :     0.102828
      dxz     :     0.029343
      dyz     :     0.021512
      dx2y2   :     0.012647
      dxy     :     0.020098
      f0      :     0.001309  f :     0.006750
      f+1     :     0.001562
      f-1     :     0.001053
      f+2     :     0.000542
      f-2     :     0.000551
      f+3     :     0.000871
      f-3     :     0.000862
  3 C s       :     3.138261  s :     3.138261
      pz      :     1.024105  p :     2.929011
      px      :     0.972863
      py      :     0.932042
      dz2     :     0.021417  d :     0.092552
      dxz     :     0.016070
      dyz     :     0.008974
      dx2y2   :     0.018873
      dxy     :     0.027218
      f0      :     0.001005  f :     0.005770
      f+1     :     0.000715
      f-1     :     0.000514
      f+2     :     0.000634
      f-2     :     0.000562
      f+3     :     0.001003
      f-3     :     0.001337
  4 H s       :     0.880957  s :     0.880957
      pz      :     0.005744  p :     0.020760
      px      :     0.008311
      py      :     0.006705
  5 H s       :     0.864148  s :     0.864148
      pz      :     0.011012  p :     0.020854
      px      :     0.004700
      py      :     0.005142
  6 S s       :     5.336063  s :     5.336063
      pz      :     2.808626  p :     8.595121
      px      :     2.805439
      py      :     2.981056
      dz2     :     0.261584  d :     1.164939
      dxz     :     0.258134
      dyz     :     0.184017
      dx2y2   :     0.242024
      dxy     :     0.219180
      f0      :     0.013886  f :     0.117309
      f+1     :     0.035230
      f-1     :     0.015062
      f+2     :     0.012324
      f-2     :     0.015769
      f+3     :     0.013401
      f-3     :     0.011638
  7 C s       :     2.989112  s :     2.989112
      pz      :     0.777565  p :     2.367108
      px      :     0.813030
      py      :     0.776513
      dz2     :     0.044200  d :     0.248720
      dxz     :     0.065960
      dyz     :     0.064767
      dx2y2   :     0.033722
      dxy     :     0.040071
      f0      :     0.002392  f :     0.021372
      f+1     :     0.003397
      f-1     :     0.005937
      f+2     :     0.002273
      f-2     :     0.002700
      f+3     :     0.002050
      f-3     :     0.002624
  8 N s       :     3.449325  s :     3.449325
      pz      :     1.067892  p :     3.891893
      px      :     1.615804
      py      :     1.208197
      dz2     :     0.007021  d :     0.034387
      dxz     :     0.007759
      dyz     :     0.013812
      dx2y2   :     0.004335
      dxy     :     0.001459
      f0      :     0.000758  f :     0.003793
      f+1     :     0.000825
      f-1     :     0.000636
      f+2     :     0.000678
      f-2     :     0.000142
      f+3     :     0.000286
      f-3     :     0.000467
  9 N s       :     3.470070  s :     3.470070
      pz      :     1.145487  p :     3.947162
      px      :     1.654950
      py      :     1.146725
      dz2     :     0.008229  d :     0.035971
      dxz     :     0.003519
      dyz     :     0.010626
      dx2y2   :     0.007563
      dxy     :     0.006034
      f0      :     0.000608  f :     0.003684
      f+1     :     0.000242
      f-1     :     0.000522
      f+2     :     0.000620
      f-2     :     0.000323
      f+3     :     0.000626
      f-3     :     0.000742
 10 H s       :     0.698268  s :     0.698268
      pz      :     0.017231  p :     0.035582
      px      :     0.011934
      py      :     0.006417
 11 H s       :     0.716012  s :     0.716012
      pz      :     0.008714  p :     0.035080
      px      :     0.012423
      py      :     0.013943
 12 H s       :     0.694574  s :     0.694574
      pz      :     0.010760  p :     0.051610
      px      :     0.017110
      py      :     0.023740
 13 H s       :     0.659907  s :     0.659907
      pz      :     0.009920  p :     0.050798
      px      :     0.011366
      py      :     0.029513
 14 H s       :     0.728686  s :     0.728686
      pz      :     0.010518  p :     0.035057
      px      :     0.012044
      py      :     0.012495
 15 O s       :     3.858521  s :     3.858521
      pz      :     1.676848  p :     4.687950
      px      :     1.469555
      py      :     1.541547
      dz2     :     0.004448  d :     0.027486
      dxz     :     0.006340
      dyz     :     0.003646
      dx2y2   :     0.006821
      dxy     :     0.006232
      f0      :     0.000170  f :     0.001766
      f+1     :     0.000280
      f-1     :     0.000126
      f+2     :     0.000186
      f-2     :     0.000329
      f+3     :     0.000349
      f-3     :     0.000326
 16 O s       :     3.828031  s :     3.828031
      pz      :     1.556057  p :     4.598383
      px      :     1.402742
      py      :     1.639583
      dz2     :     0.005927  d :     0.032320
      dxz     :     0.009263
      dyz     :     0.002950
      dx2y2   :     0.006916
      dxy     :     0.007265
      f0      :     0.000169  f :     0.002027
      f+1     :     0.000546
      f-1     :     0.000021
      f+2     :     0.000381
      f-2     :     0.000322
      f+3     :     0.000274
      f-3     :     0.000314
 17 C s       :     3.104643  s :     3.104643
      pz      :     0.995401  p :     2.873623
      px      :     0.901197
      py      :     0.977025
      dz2     :     0.027097  d :     0.099534
      dxz     :     0.010176
      dyz     :     0.010625
      dx2y2   :     0.021053
      dxy     :     0.030583
      f0      :     0.001250  f :     0.006537
      f+1     :     0.000643
      f-1     :     0.000610
      f+2     :     0.000745
      f-2     :     0.000634
      f+3     :     0.001223
      f-3     :     0.001432
 18 H s       :     0.823850  s :     0.823850
      pz      :     0.004461  p :     0.020687
      px      :     0.007355
      py      :     0.008871
 19 H s       :     0.865831  s :     0.865831
      pz      :     0.005427  p :     0.019825
      px      :     0.006054
      py      :     0.008344
 20 C s       :     3.163288  s :     3.163288
      pz      :     0.935510  p :     2.905364
      px      :     0.952367
      py      :     1.017487
      dz2     :     0.019273  d :     0.099943
      dxz     :     0.029464
      dyz     :     0.018453
      dx2y2   :     0.009427
      dxy     :     0.023326
      f0      :     0.001296  f :     0.006515
      f+1     :     0.001450
      f-1     :     0.001006
      f+2     :     0.000559
      f-2     :     0.000492
      f+3     :     0.000912
      f-3     :     0.000801
 21 C s       :     3.212979  s :     3.212979
      pz      :     0.969179  p :     2.961477
      px      :     0.943446
      py      :     1.048853
      dz2     :     0.017684  d :     0.095345
      dxz     :     0.025887
      dyz     :     0.021297
      dx2y2   :     0.007898
      dxy     :     0.022579
      f0      :     0.001291  f :     0.006443
      f+1     :     0.001551
      f-1     :     0.000994
      f+2     :     0.000496
      f-2     :     0.000434
[...]
      f-1     :     0.003241
      f+2     :     0.003952
      f-2     :     0.004883
      f+3     :     0.005525
      f-3     :     0.006977
  4 H s       :     0.805984  s :     0.805984
      pz      :     0.018191  p :     0.062046
      px      :     0.023797
      py      :     0.020058
  5 H s       :     0.803864  s :     0.803864
      pz      :     0.034539  p :     0.062234
      px      :     0.012917
      py      :     0.014777
  6 S s       :     4.730805  s :     4.730805
      pz      :     2.852806  p :     8.618625
      px      :     2.862517
      py      :     2.903303
      dz2     :     0.444875  d :     1.867798
      dxz     :     0.420403
      dyz     :     0.276715
      dx2y2   :     0.381765
      dxy     :     0.344039
      f0      :     0.049967  f :     0.364209
      f+1     :     0.099297
      f-1     :     0.045932
      f+2     :     0.040579
      f-2     :     0.047634
      f+3     :     0.041725
      f-3     :     0.039076
  7 C s       :     2.707072  s :     2.707072
      pz      :     0.952676  p :     2.700942
      px      :     0.824052
      py      :     0.924214
      dz2     :     0.193066  d :     0.897489
      dxz     :     0.202189
      dyz     :     0.220793
      dx2y2   :     0.135474
      dxy     :     0.145967
      f0      :     0.015772  f :     0.128771
      f+1     :     0.018649
      f-1     :     0.037399
      f+2     :     0.015592
      f-2     :     0.017845
      f+3     :     0.011235
      f-3     :     0.012279
  8 N s       :     2.978583  s :     2.978583
      pz      :     1.163860  p :     3.801505
      px      :     1.462904
      py      :     1.174741
      dz2     :     0.037960  d :     0.136637
      dxz     :     0.024112
      dyz     :     0.061590
      dx2y2   :     0.010353
      dxy     :     0.002622
      f0      :     0.003228  f :     0.011419
      f+1     :     0.002491
      f-1     :     0.002706
      f+2     :     0.001299
      f-2     :     0.000318
      f+3     :     0.000432
      f-3     :     0.000944
  9 N s       :     2.984303  s :     2.984303
      pz      :     1.147978  p :     3.846604
      px      :     1.519008
      py      :     1.179618
      dz2     :     0.035234  d :     0.136942
      dxz     :     0.009982
      dyz     :     0.047484
      dx2y2   :     0.023003
      dxy     :     0.021239
      f0      :     0.001278  f :     0.010782
      f+1     :     0.000820
      f-1     :     0.002045
      f+2     :     0.001758
      f-2     :     0.001172
      f+3     :     0.001826
      f-3     :     0.001883
 10 H s       :     0.711178  s :     0.711178
      pz      :     0.057042  p :     0.109451
      px      :     0.034688
      py      :     0.017721
 11 H s       :     0.715484  s :     0.715484
      pz      :     0.031178  p :     0.107065
      px      :     0.034101
      py      :     0.041786
 12 H s       :     0.674585  s :     0.674585
      pz      :     0.032681  p :     0.153992
      px      :     0.050570
      py      :     0.070741
 13 H s       :     0.686736  s :     0.686736
      pz      :     0.028436  p :     0.159154
      px      :     0.033424
      py      :     0.097294
 14 H s       :     0.717712  s :     0.717712
      pz      :     0.028447  p :     0.106490
      px      :     0.033048
      py      :     0.044995
 15 O s       :     3.554385  s :     3.554385
      pz      :     1.639400  p :     4.736691
      px      :     1.557713
      py      :     1.539577
      dz2     :     0.008410  d :     0.062156
      dxz     :     0.014076
      dyz     :     0.007713
      dx2y2   :     0.013078
      dxy     :     0.018878
      f0      :     0.000498  f :     0.004185
      f+1     :     0.000513
      f-1     :     0.000243
      f+2     :     0.000409
      f-2     :     0.000912
      f+3     :     0.000628
      f-3     :     0.000983
 16 O s       :     3.557979  s :     3.557979
      pz      :     1.570725  p :     4.670849
      px      :     1.520141
      py      :     1.579982
      dz2     :     0.008535  d :     0.065868
      dxz     :     0.025054
      dyz     :     0.004037
      dx2y2   :     0.017618
      dxy     :     0.010624
      f0      :     0.000542  f :     0.004602
      f+1     :     0.000927
      f-1     :     0.000047
      f+2     :     0.001272
      f-2     :     0.000526
      f+3     :     0.000737
      f-3     :     0.000550
 17 C s       :     2.782917  s :     2.782917
      pz      :     1.016867  p :     3.044533
      px      :     1.007490
      py      :     1.020175
      dz2     :     0.105436  d :     0.398588
      dxz     :     0.045066
      dyz     :     0.043179
      dx2y2   :     0.088092
      dxy     :     0.116815
      f0      :     0.005273  f :     0.038746
      f+1     :     0.003614
      f-1     :     0.003293
      f+2     :     0.006424
      f-2     :     0.005827
      f+3     :     0.006614
      f-3     :     0.007702
 18 H s       :     0.793080  s :     0.793080
      pz      :     0.011809  p :     0.059835
      px      :     0.020484
      py      :     0.027542
 19 H s       :     0.817165  s :     0.817165
      pz      :     0.014737  p :     0.058223
      px      :     0.016662
      py      :     0.026824
 20 C s       :     2.776220  s :     2.776220
      pz      :     1.005955  p :     3.042788
      px      :     1.018825
      py      :     1.018009
      dz2     :     0.091734  d :     0.408702
      dxz     :     0.105827
      dyz     :     0.070128
      dx2y2   :     0.051143
      dxy     :     0.089870
      f0      :     0.006296  f :     0.039538
      f+1     :     0.008882
      f-1     :     0.005776
      f+2     :     0.004226
      f-2     :     0.005448
      f+3     :     0.004468
      f-3     :     0.004442
 21 C s       :     2.773413  s :     2.773413
      pz      :     1.006456  p :     3.050511
      px      :     1.014274
      py      :     1.029781
      dz2     :     0.090118  d :     0.404880
      dxz     :     0.102790
      dyz     :     0.074845
      dx2y2   :     0.049595
      dxy     :     0.087533
      f0      :     0.006443  f :     0.040165
      f+1     :     0.009362
      f-1     :     0.006053
      f+2     :     0.004422
      f-2     :     0.005038
      f+3     :     0.004767
      f-3     :     0.004079
 22 H s       :     0.810568  s :     0.810568
      pz      :     0.016009  p :     0.057802
      px      :     0.018447
      py      :     0.023346
 23 H s       :     0.802196  s :     0.802196
      pz      :     0.015107  p :     0.064130
      px      :     0.018063
      py      :     0.030960
 24 H s       :     0.809804  s :     0.809804
      pz      :     0.014682  p :     0.058063
      px      :     0.014296
      py      :     0.029084
 25 H s       :     0.802992  s :     0.802992
      pz      :     0.016178  p :     0.059379
      px      :     0.020386
      py      :     0.022815
 26 C s       :     2.774884  s :     2.774884
      pz      :     1.028816  p :     3.044761
      px      :     1.015956
      py      :     0.999988
      dz2     :     0.115531  d :     0.401922
      dxz     :     0.020289
      dyz     :     0.072586
      dx2y2   :     0.122071
      dxy     :     0.071444
      f0      :     0.004378  f :     0.039592
      f+1     :     0.003078
      f-1     :     0.006563
      f+2     :     0.005460
      f-2     :     0.006635
      f+3     :     0.006810
      f-3     :     0.006668
 27 H s       :     0.802873  s :     0.802873
      pz      :     0.032742  p :     0.058208
      px      :     0.012595
      py      :     0.012870
 28 H s       :     0.809900  s :     0.809900
      pz      :     0.015262  p :     0.058921
      px      :     0.018962
      py      :     0.024696
 29 C s       :     2.776341  s :     2.776341
      pz      :     1.014184  p :     3.045262
      px      :     1.025093
      py      :     1.005986
      dz2     :     0.115578  d :     0.405713
      dxz     :     0.020660
      dyz     :     0.072417
      dx2y2   :     0.124418
      dxy     :     0.072640
      f0      :     0.004290  f :     0.039261
      f+1     :     0.003493
      f-1     :     0.006362
      f+2     :     0.005159
      f-2     :     0.006397
      f+3     :     0.006770
      f-3     :     0.006790
 30 H s       :     0.805960  s :     0.805960
      pz      :     0.013918  p :     0.058074
      px      :     0.031622
      py      :     0.012534
 31 H s       :     0.799911  s :     0.799911
      pz      :     0.033329  p :     0.060113
      px      :     0.013726
      py      :     0.013058
 32 C s       :     2.778969  s :     2.778969
      pz      :     1.017844  p :     3.039729
      px      :     1.015954
      py      :     1.005931
      dz2     :     0.089307  d :     0.403738
      dxz     :     0.069488
      dyz     :     0.110540
      dx2y2   :     0.084286
      dxy     :     0.050117
      f0      :     0.006004  f :     0.038779
      f+1     :     0.006798
      f-1     :     0.007705
      f+2     :     0.004403
      f-2     :     0.005432
      f+3     :     0.004966
      f-3     :     0.003470
 33 H s       :     0.810446  s :     0.810446
      pz      :     0.031103  p :     0.057822
      px      :     0.013936
      py      :     0.012783
 34 H s       :     0.806653  s :     0.806653
      pz      :     0.013802  p :     0.059699
      px      :     0.032604
      py      :     0.013293
 35 H s       :     0.810326  s :     0.810326
      pz      :     0.017229  p :     0.058264
      px      :     0.018426
      py      :     0.022608
 36 H s       :     0.810486  s :     0.810486
      pz      :     0.013953  p :     0.057861
      px      :     0.015692
      py      :     0.028216
 37 H s       :     0.808017  s :     0.808017
      pz      :     0.017077  p :     0.057853
      px      :     0.016867
      py      :     0.023910
 38 H s       :     0.810882  s :     0.810882
      pz      :     0.013970  p :     0.057711
      px      :     0.030968
      py      :     0.012773
 39 O s       :     3.556259  s :     3.556259
      pz      :     1.487572  p :     4.732177
      px      :     1.646761
      py      :     1.597844
      dz2     :     0.030459  d :     0.062340
      dxz     :     0.012703
      dyz     :     0.014556
      dx2y2   :     0.001742
      dxy     :     0.002880
      f0      :     0.001765  f :     0.004178
      f+1     :     0.000875
      f-1     :     0.001054
      f+2     :     0.000200
      f-2     :     0.000221
      f+3     :     0.000045
      f-3     :     0.000017


                      *****************************
                      * MAYER POPULATION ANALYSIS *
                      *****************************

  NA   - Mulliken gross atomic population
  ZA   - Total nuclear charge
  QA   - Mulliken gross atomic charge
  VA   - Mayer's total valence
  BVA  - Mayer's bonded valence
  FA   - Mayer's free valence

  ATOM       NA         ZA         QA         VA         BVA        FA
  0 C      6.2261     6.0000    -0.2261     4.0041     4.0041    -0.0000
  1 N      7.1917     7.0000    -0.1917     3.2253     3.2253    -0.0000
  2 C      6.1268     6.0000    -0.1268     3.9394     3.9394     0.0000
  3 C      6.1656     6.0000    -0.1656     3.9144     3.9144     0.0000
  4 H      0.9017     1.0000     0.0983     0.9899     0.9899     0.0000
  5 H      0.8850     1.0000     0.1150     0.9853     0.9853     0.0000
  6 S     15.2134    16.0000     0.7866     6.0461     6.0461     0.0000
  7 C      5.6263     6.0000     0.3737     4.2128     4.2128     0.0000
  8 N      7.3794     7.0000    -0.3794     3.1844     3.1844    -0.0000
  9 N      7.4569     7.0000    -0.4569     3.1723     3.1723     0.0000
 10 H      0.7339     1.0000     0.2661     0.9423     0.9423     0.0000
 11 H      0.7511     1.0000     0.2489     0.9503     0.9503     0.0000
 12 H      0.7462     1.0000     0.2538     1.0134     1.0134     0.0000
 13 H      0.7107     1.0000     0.2893     1.0196     1.0196    -0.0000
 14 H      0.7637     1.0000     0.2363     0.9550     0.9550    -0.0000
 15 O      8.5757     8.0000    -0.5757     1.8478     1.8478     0.0000
 16 O      8.4608     8.0000    -0.4608     2.0364     2.0364     0.0000
 17 C      6.0843     6.0000    -0.0843     3.8644     3.8644     0.0000
 18 H      0.8445     1.0000     0.1555     0.9838     0.9838     0.0000
 19 H      0.8857     1.0000     0.1143     0.9583     0.9583    -0.0000
 20 C      6.1751     6.0000    -0.1751     3.9562     3.9562     0.0000
 21 C      6.2762     6.0000    -0.2762     4.0818     4.0818     0.0000
 22 H      0.9347     1.0000     0.0653     0.9737     0.9737     0.0000
 23 H      0.8755     1.0000     0.1245     0.9900     0.9900    -0.0000
 24 H      0.9233     1.0000     0.0767     0.9639     0.9639    -0.0000
 25 H      0.9045     1.0000     0.0955     0.9994     0.9994    -0.0000
 26 C      6.2218     6.0000    -0.2218     3.9988     3.9988     0.0000
 27 H      0.9130     1.0000     0.0870     0.9804     0.9804     0.0000
 28 H      0.9037     1.0000     0.0963     0.9778     0.9778     0.0000
 29 C      6.2491     6.0000    -0.2491     4.0518     4.0518     0.0000
 30 H      0.9113     1.0000     0.0887     0.9656     0.9656    -0.0000
 31 H      0.8738     1.0000     0.1262     0.9827     0.9827     0.0000
 32 C      6.0668     6.0000    -0.0668     3.9241     3.9241     0.0000
 33 H      0.9204     1.0000     0.0796     0.9670     0.9670     0.0000
 34 H      0.8860     1.0000     0.1140     0.9687     0.9687    -0.0000
 35 H      0.9080     1.0000     0.0920     0.9759     0.9759    -0.0000
 36 H      0.9202     1.0000     0.0798     0.9712     0.9712     0.0000
 37 H      0.9222     1.0000     0.0778     0.9745     0.9745     0.0000
 38 H      0.9225     1.0000     0.0775     0.9712     0.9712     0.0000
 39 O      8.5625     8.0000    -0.5625     1.8401     1.8401    -0.0000

  Mayer bond orders larger than 0.100000
B(  0-C ,  1-N ) :   0.9411 B(  0-C , 17-C ) :   0.9966 B(  0-C , 18-H ) :   0.9523 
B(  0-C , 19-H ) :   0.9583 B(  1-N ,  7-C ) :   1.4206 B(  1-N , 12-H ) :   0.7844 
B(  2-C ,  3-C ) :   1.0078 B(  2-C , 21-C ) :   1.0491 B(  2-C , 24-H ) :   0.9295 
B(  2-C , 25-H ) :   0.9368 B(  3-C ,  4-H ) :   0.9424 B(  3-C ,  5-H ) :   0.9397 
B(  3-C ,  6-S ) :   0.8970 B(  6-S , 15-O ) :   1.5621 B(  6-S , 16-O ) :   1.9243 
B(  6-S , 39-O ) :   1.5655 B(  7-C ,  8-N ) :   1.4084 B(  7-C ,  9-N ) :   1.2397 
B(  8-N , 13-H ) :   0.7722 B(  8-N , 14-H ) :   0.9092 B(  9-N , 10-H ) :   0.8933 
B(  9-N , 11-H ) :   0.9079 B( 12-H , 39-O ) :   0.1805 B( 13-H , 15-O ) :   0.1812 
B( 17-C , 26-C ) :   1.0100 B( 17-C , 27-H ) :   0.9392 B( 17-C , 28-H ) :   0.9451 
B( 20-C , 21-C ) :   1.0206 B( 20-C , 32-C ) :   1.0159 B( 20-C , 35-H ) :   0.9615 
B( 20-C , 36-H ) :   0.9393 B( 21-C , 22-H ) :   0.9437 B( 21-C , 23-H ) :   0.9481 
B( 26-C , 29-C ) :   1.0326 B( 26-C , 30-H ) :   0.9409 B( 26-C , 31-H ) :   0.9545 
B( 29-C , 32-C ) :   1.0224 B( 29-C , 33-H ) :   0.9339 B( 29-C , 34-H ) :   0.9622 
B( 32-C , 37-H ) :   0.9438 B( 32-C , 38-H ) :   0.9463 

-------
TIMINGS
-------

Total SCF time: 0 days 0 hours 0 min 34 sec 

Total time                  ....      34.647 sec
Sum of individual times     ....      32.928 sec  ( 95.0%)

Fock matrix formation       ....      26.489 sec  ( 76.5%)
  Split-RI-J                ....       8.699 sec  ( 32.8% of F)
  XC integration            ....      17.290 sec  ( 65.3% of F)
    Basis function eval.    ....       2.048 sec  ( 11.8% of XC)
    Density eval.           ....       6.267 sec  ( 36.2% of XC)
    XC-Functional eval.     ....       0.382 sec  (  2.2% of XC)
    XC-Potential eval.      ....       5.096 sec  ( 29.5% of XC)
Diagonalization             ....       1.353 sec  (  3.9%)
Density matrix formation    ....       0.117 sec  (  0.3%)
Population analysis         ....       0.149 sec  (  0.4%)
Initial guess               ....       0.932 sec  (  2.7%)
Orbital Transformation      ....       0.000 sec  (  0.0%)
Orbital Orthonormalization  ....       0.000 sec  (  0.0%)
DIIS solution               ....       0.728 sec  (  2.1%)
SOSCF solution              ....       1.452 sec  (  4.2%)
Grid generation             ....       1.710 sec  (  4.9%)

Maximum memory used throughout the entire SCF-calculation: 103.7 MB


-------------------------------------------------------------------------------
                          DFT DISPERSION CORRECTION                            
                                                                               
                              DFTD3 V3.1  Rev 1                                
                          USING Becke-Johnson damping                          
-------------------------------------------------------------------------------
The TPSS functional is recognized
Active option DFTDOPT                   ...         4   

molecular C6(AA) [au] = 13752.670656 


            DFT-D V3
 parameters
 s6 scaling factor         :     1.0000 
 a1 scaling factor         :     0.4535 
 s8 scaling factor         :     1.9435 
 a2 scaling factor         :     4.4752 
 ad hoc parameters k1-k3   :    16.0000     1.3333    -4.0000 

 Edisp/kcal,au: -38.213345134791  -0.060896835248 
 E6   /kcal   : -20.024335399 
 E8   /kcal   : -18.189009736 
 % E8         :  47.598580213 

-------------------------   ----------------
Dispersion correction           -0.060896835
-------------------------   ----------------


-------------------------   --------------------
FINAL SINGLE POINT ENERGY     -1183.590700087082
-------------------------   --------------------


                            ***************************************
                            *     ORCA property calculations      *
                            ***************************************

                                    ---------------------
                                    Active property flags
                                    ---------------------
   (+) Dipole Moment


------------------------------------------------------------------------------
                       ORCA ELECTRIC PROPERTIES CALCULATION
------------------------------------------------------------------------------

Dipole Moment Calculation                       ... on
Quadrupole Moment Calculation                   ... off
Polarizability Calculation                      ... off
GBWName                                         ... TPSS_B_wt_wb97.gbw
Electron density file                           ... TPSS_B_wt_wb97.scfp
The origin for moment calculation is the CENTER OF MASS  = ( 8.583389, -1.026468 -8.818666)

-------------
DIPOLE MOMENT
-------------
                                X             Y             Z
Electronic contribution:    -14.59575       8.40185     -15.39431
Nuclear contribution   :     16.79156      -5.47215      17.54258
                        -----------------------------------------
Total Dipole Moment    :      2.19581       2.92970       2.14827
                        -----------------------------------------
Magnitude (a.u.)       :      4.24497
Magnitude (Debye)      :     10.78986



--------------------
Rotational spectrum 
--------------------
 
Rotational constants in cm-1:     0.014207     0.012373     0.007472 
Rotational constants in MHz :   425.900436   370.942493   224.006604 

 Dipole components along the rotational axes: 
x,y,z [a.u.] :     3.916299    -1.433692    -0.791790 
x,y,z [Debye]:     9.954440    -3.644156    -2.012569 

 

Timings for individual modules:

Sum of individual times         ...       36.642 sec (=   0.611 min)
GTO integral calculation        ...        1.496 sec (=   0.025 min)   4.1 %
SCF iterations                  ...       35.147 sec (=   0.586 min)  95.9 %
                             ****ORCA TERMINATED NORMALLY****
TOTAL RUN TIME: 0 days 0 hours 0 minutes 37 seconds 439 msec
