
                                        *****************
                                        * O   R   C   A *
                                        *****************

                                            #,                                       
                                            ###                                      
                                            ####                                     
                                            #####                                    
                                            ######                                   
                                           ########,                                 
                                     ,,################,,,,,                         
                               ,,#################################,,                 
                          ,,##########################################,,             
                       ,#########################################, ''#####,          
                    ,#############################################,,   '####,        
                  ,##################################################,,,,####,       
                ,###########''''           ''''###############################       
              ,#####''   ,,,,##########,,,,          '''####'''          '####       
            ,##' ,,,,###########################,,,                        '##       
           ' ,,###''''                  '''############,,,                           
         ,,##''                                '''############,,,,        ,,,,,,###''
      ,#''                                            '''#######################'''  
     '                                                          ''''####''''         
             ,#######,   #######,   ,#######,      ##                                
            ,#'     '#,  ##    ##  ,#'     '#,    #''#        ######   ,####,        
            ##       ##  ##   ,#'  ##            #'  '#       #        #'  '#        
            ##       ##  #######   ##           ,######,      #####,   #    #        
            '#,     ,#'  ##    ##  '#,     ,#' ,#      #,         ##   #,  ,#        
             '#######'   ##     ##  '#######'  #'      '#     #####' # '####'        



                  #######################################################
                  #                        -***-                        #
                  #          Department of theory and spectroscopy      #
                  #    Directorship and core code : Frank Neese         #
                  #        Max Planck Institute fuer Kohlenforschung    #
                  #                Kaiser Wilhelm Platz 1               #
                  #                 D-45470 Muelheim/Ruhr               #
                  #                      Germany                        #
                  #                                                     #
                  #                  All rights reserved                #
                  #                        -***-                        #
                  #######################################################


                         Program Version 5.0.0 -  RELEASE  -
                                (SVN: $Rev: 19529$)
                ($Date: 2021-06-28 11:36:33 +0200 (Mo, 28 Jun 2021) $)


 With contributions from (in alphabetic order):
   Daniel Aravena         : Magnetic Suceptibility
   Michael Atanasov       : Ab Initio Ligand Field Theory (pilot matlab implementation)
   Alexander A. Auer      : GIAO ZORA, VPT2 properties, NMR spectrum
   Ute Becker             : Parallelization
   Giovanni Bistoni       : ED, misc. LED, open-shell LED, HFLD
   Martin Brehm           : Molecular dynamics
   Dmytro Bykov           : SCF Hessian
   Vijay G. Chilkuri      : MRCI spin determinant printing, contributions to CSF-ICE
   Dipayan Datta          : RHF DLPNO-CCSD density
   Achintya Kumar Dutta   : EOM-CC, STEOM-CC
   Dmitry Ganyushin       : Spin-Orbit,Spin-Spin,Magnetic field MRCI
   Miquel Garcia          : C-PCM Hessian, Gaussian charge scheme
   Yang Guo               : DLPNO-NEVPT2, F12-NEVPT2, CIM, IAO-localization
   Andreas Hansen         : Spin unrestricted coupled pair/coupled cluster methods
   Benjamin Helmich-Paris : MC-RPA, TRAH-SCF, COSX integrals
   Lee Huntington         : MR-EOM, pCC
   Robert Izsak           : Overlap fitted RIJCOSX, COSX-SCS-MP3, EOM
   Marcus Kettner         : VPT2
   Christian Kollmar      : KDIIS, OOCD, Brueckner-CCSD(T), CCSD density, CASPT2, CASPT2-K
   Simone Kossmann        : Meta GGA functionals, TD-DFT gradient, OOMP2, MP2 Hessian
   Martin Krupicka        : Initial AUTO-CI
   Lucas Lang             : DCDCAS
   Marvin Lechner         : AUTO-CI (C++ implementation), FIC-MRCC
   Dagmar Lenk            : GEPOL surface, SMD
   Dimitrios Liakos       : Extrapolation schemes; Compound Job, initial MDCI parallelization
   Dimitrios Manganas     : Further ROCIS development; embedding schemes
   Dimitrios Pantazis     : SARC Basis sets
   Anastasios Papadopoulos: AUTO-CI, single reference methods and gradients
   Taras Petrenko         : DFT Hessian,TD-DFT gradient, ASA, ECA, R-Raman, ABS, FL, XAS/XES, NRVS
   Peter Pinski           : DLPNO-MP2, DLPNO-MP2 Gradient
   Christoph Reimann      : Effective Core Potentials
   Marius Retegan         : Local ZFS, SOC
   Christoph Riplinger    : Optimizer, TS searches, QM/MM, DLPNO-CCSD(T), (RO)-DLPNO pert. Triples
   Tobias Risthaus        : Range-separated hybrids, TD-DFT gradient, RPA, STAB
   Michael Roemelt        : Original ROCIS implementation
   Masaaki Saitow         : Open-shell DLPNO-CCSD energy and density
   Barbara Sandhoefer     : DKH picture change effects
   Avijit Sen             : IP-ROCIS
   Kantharuban Sivalingam : CASSCF convergence, NEVPT2, FIC-MRCI
   Bernardo de Souza      : ESD, SOC TD-DFT
   Georgi Stoychev        : AutoAux, RI-MP2 NMR
   Willem Van den Heuvel  : Paramagnetic NMR
   Boris Wezisla          : Elementary symmetry handling
   Frank Wennmohs         : Technical directorship


 We gratefully acknowledge several colleagues who have allowed us to
 interface, adapt or use parts of their codes:
   Stefan Grimme, W. Hujo, H. Kruse, P. Pracht,  : VdW corrections, initial TS optimization,
                  C. Bannwarth, S. Ehlert          DFT functionals, gCP, sTDA/sTD-DF
   Ed Valeev, F. Pavosevic, A. Kumar             : LibInt (2-el integral package), F12 methods
   Garnet Chan, S. Sharma, J. Yang, R. Olivares  : DMRG
   Ulf Ekstrom                                   : XCFun DFT Library
   Mihaly Kallay                                 : mrcc  (arbitrary order and MRCC methods)
   Jiri Pittner, Ondrej Demel                    : Mk-CCSD
   Frank Weinhold                                : gennbo (NPA and NBO analysis)
   Christopher J. Cramer and Donald G. Truhlar   : smd solvation model
   Lars Goerigk                                  : TD-DFT with DH, B97 family of functionals
   V. Asgeirsson, H. Jonsson                     : NEB implementation
   FAccTs GmbH                                   : IRC, NEB, NEB-TS, DLPNO-Multilevel, CI-OPT
                                                   MM, QMMM, 2- and 3-layer-ONIOM, Crystal-QMMM,
                                                   LR-CPCM, SF, NACMEs, symmetry and pop. for TD-DFT,
                                                   nearIR, NL-DFT gradient (VV10), updates on ESD,
                                                   ML-optimized integration grids
   S Lehtola, MJT Oliveira, MAL Marques          : LibXC Library
   Liviu Ungur et al                             : ANISO software


 Your calculation uses the libint2 library for the computation of 2-el integrals
 For citations please refer to: http://libint.valeyev.net

 Your ORCA version has been built with support for libXC version: 5.1.0
 For citations please refer to: https://tddft.org/programs/libxc/

 This ORCA versions uses:
   CBLAS   interface :  Fast vector & matrix operations
   LAPACKE interface :  Fast linear algebra routines
   SCALAPACK package :  Parallel linear algebra routines
   Shared memory     :  Shared parallel matrices
   BLAS/LAPACK       :  OpenBLAS 0.3.15  USE64BITINT DYNAMIC_ARCH NO_AFFINITY Haswell SINGLE_THREADED
        Core in use  :  Haswell
   Copyright (c) 2011-2014, The OpenBLAS Project


Your calculation utilizes the atom-pairwise dispersion correction
with the Becke-Johnson damping scheme (D3BJ)
Cite in your paper:
S.Grimme, S.Ehrlich, L.Goerigk, J Comput Chem, (2011), 32, 1456–1465 
S.Grimme, J.Antony, S.Ehrlich and H.Krieg, J.Chem.Phys., 132, (2010), 154104 
   

================================================================================

----- Orbital basis set information -----
Your calculation utilizes the basis: def2-TZVP
   F. Weigend and R. Ahlrichs, Phys. Chem. Chem. Phys. 7, 3297 (2005).

----- AuxJ basis set information -----
Your calculation utilizes the auxiliary basis: def2/J
   F. Weigend, Phys. Chem. Chem. Phys. 8, 1057 (2006).

================================================================================
                                        WARNINGS
                       Please study these warnings very carefully!
================================================================================



WARNING: Found flag for RIJCOSX approximation but no HF exchange needed!
  ===> : RIJCOSX  will be disabled and Split-RI-J is turned on

INFO   : the flag for use of the SHARK integral package has been found!

================================================================================
                                       INPUT FILE
================================================================================
NAME = TZVP_TPSS_C1_wt_dlpno_pos.com
|  1> !TPSS D3BJ RIJCOSX def2-TZVP def2/J TightSCF
|  2> *xyz 0 1 
|  3> C          4.49059        1.15590       -2.46929
|  4> C          4.30539        1.22276       -3.90832
|  5> C          4.63192        2.24637       -4.67096
|  6> N          4.54169        2.14399       -5.98714
|  7> N          5.08409        3.39358       -4.11855
|  8> H          4.92067        3.57050       -3.13587
|  9> H          5.25465        4.19739       -4.70696
| 10> H          3.82453        0.44911       -4.35093
| 11> H          4.34337        1.24932       -6.41665
| 12> H          4.67671        2.95662       -6.57411
| 13> C          5.94213        0.93950       -2.03689
| 14> H          3.86431        0.32853       -2.13661
| 15> H          4.07623        2.04999       -1.98901
| 16> H          6.32982        0.06401       -2.51451
| 17> H          5.98308        0.81426       -0.97504
| 18> H          6.52865        1.78889       -2.31873
| 19> *
| 20> 
| 21> %MaxCore 64000
| 22> 
| 23> %pal nprocs 4
| 24> end  
| 25> 
| 26> %scf
| 27>   MaxIter 150
| 28> end
| 29> 
| 30> 
| 31>                          ****END OF INPUT****
================================================================================

                       ****************************
                       * Single Point Calculation *
                       ****************************

---------------------------------
CARTESIAN COORDINATES (ANGSTROEM)
---------------------------------
  C      4.490590    1.155900   -2.469290
  C      4.305390    1.222760   -3.908320
  C      4.631920    2.246370   -4.670960
  N      4.541690    2.143990   -5.987140
  N      5.084090    3.393580   -4.118550
  H      4.920670    3.570500   -3.135870
  H      5.254650    4.197390   -4.706960
  H      3.824530    0.449110   -4.350930
  H      4.343370    1.249320   -6.416650
  H      4.676710    2.956620   -6.574110
  C      5.942130    0.939500   -2.036890
  H      3.864310    0.328530   -2.136610
  H      4.076230    2.049990   -1.989010
  H      6.329820    0.064010   -2.514510
  H      5.983080    0.814260   -0.975040
  H      6.528650    1.788890   -2.318730

----------------------------
CARTESIAN COORDINATES (A.U.)
----------------------------
  NO LB      ZA    FRAG     MASS         X           Y           Z
   0 C     6.0000    0    12.011    8.485985    2.184334   -4.666282
   1 C     6.0000    0    12.011    8.136008    2.310682   -7.385654
   2 C     6.0000    0    12.011    8.753060    4.245024   -8.826835
   3 N     7.0000    0    14.007    8.582550    4.051554  -11.314055
   4 N     7.0000    0    14.007    9.607538    6.412937   -7.782932
   5 H     1.0000    0     1.008    9.298719    6.747267   -5.925935
   6 H     1.0000    0     1.008    9.929849    7.931918   -8.894865
   7 H     1.0000    0     1.008    7.227314    0.848695   -8.222066
   8 H     1.0000    0     1.008    8.207780    2.360873  -12.125711
   9 H     1.0000    0     1.008    8.837701    5.587202  -12.423267
  10 C     6.0000    0    12.011   11.228998    1.775398   -3.849164
  11 H     1.0000    0     1.008    7.302488    0.620832   -4.037608
  12 H     1.0000    0     1.008    7.702958    3.873920   -3.758684
  13 H     1.0000    0     1.008   11.961626    0.120961   -4.751735
  14 H     1.0000    0     1.008   11.306383    1.538728   -1.842559
  15 H     1.0000    0     1.008   12.337361    3.380512   -4.381765

--------------------------------
INTERNAL COORDINATES (ANGSTROEM)
--------------------------------
 C      0   0   0     0.000000000000     0.00000000     0.00000000
 C      1   0   0     1.452438170973     0.00000000     0.00000000
 C      2   1   0     1.317580753730   125.28453029     0.00000000
 N      3   2   1     1.323235772529   119.91566171   173.18826598
 N      3   2   1     1.351186627043   120.39112332   354.48821383
 H      5   3   2     1.011764184581   119.43884036   342.13850582
 H      5   3   2     1.010656993149   119.58539031   185.29632085
 H      2   1   3     1.012750845075   117.28263783   184.79039578
 H      4   3   2     1.012049441184   120.25788289   351.78722447
 H      4   3   2     1.011499727237   120.39384801   172.23558929
 C      1   2   3     1.529956565266   114.04780337   285.32676705
 H      1   2   3     1.089698920666   105.31614526   163.90058499
 H      1   2   3     1.096248154434   110.38507371    50.41661390
 H     11   1   2     1.070003336724   109.47101574   305.03093902
 H     11   1   2     1.069994104002   109.47140393   185.03055546
 H     11   1   2     1.070001340233   109.47108837    65.03054338

---------------------------
INTERNAL COORDINATES (A.U.)
---------------------------
 C      0   0   0     0.000000000000     0.00000000     0.00000000
 C      1   0   0     2.744710369593     0.00000000     0.00000000
 C      2   1   0     2.489866783875   125.28453029     0.00000000
 N      3   2   1     2.500553220687   119.91566171   173.18826598
 N      3   2   1     2.553372680928   120.39112332   354.48821383
 H      5   3   2     1.911957220967   119.43884036   342.13850582
 H      5   3   2     1.909864932383   119.58539031   185.29632085
 H      2   1   3     1.913821739089   117.28263783   184.79039578
 H      4   3   2     1.912496277825   120.25788289   351.78722447
 H      4   3   2     1.911457469013   120.39384801   172.23558929
 C      1   2   3     2.891198905147   114.04780337   285.32676705
 H      1   2   3     2.059232528488   105.31614526   163.90058499
 H      1   2   3     2.071608786697   110.38507371    50.41661390
 H     11   1   2     2.022013268790   109.47101574   305.03093902
 H     11   1   2     2.021995821475   109.47140393   185.03055546
 H     11   1   2     2.022009495969   109.47108837    65.03054338

---------------------
BASIS SET INFORMATION
---------------------
There are 3 groups of distinct atoms

 Group   1 Type C   : 11s6p2d1f contracted to 5s3p2d1f pattern {62111/411/11/1}
 Group   2 Type N   : 11s6p2d1f contracted to 5s3p2d1f pattern {62111/411/11/1}
 Group   3 Type H   : 5s1p contracted to 3s1p pattern {311/1}

Atom   0C    basis set group =>   1
Atom   1C    basis set group =>   1
Atom   2C    basis set group =>   1
Atom   3N    basis set group =>   2
Atom   4N    basis set group =>   2
Atom   5H    basis set group =>   3
Atom   6H    basis set group =>   3
Atom   7H    basis set group =>   3
Atom   8H    basis set group =>   3
Atom   9H    basis set group =>   3
Atom  10C    basis set group =>   1
Atom  11H    basis set group =>   3
Atom  12H    basis set group =>   3
Atom  13H    basis set group =>   3
Atom  14H    basis set group =>   3
Atom  15H    basis set group =>   3
---------------------------------
AUXILIARY/J BASIS SET INFORMATION
---------------------------------
There are 3 groups of distinct atoms

 Group   1 Type C   : 12s5p4d2f1g contracted to 6s4p3d1f1g pattern {711111/2111/211/2/1}
 Group   2 Type N   : 12s5p4d2f1g contracted to 6s4p3d1f1g pattern {711111/2111/211/2/1}
 Group   3 Type H   : 5s2p1d contracted to 3s1p1d pattern {311/2/1}

Atom   0C    basis set group =>   1
Atom   1C    basis set group =>   1
Atom   2C    basis set group =>   1
Atom   3N    basis set group =>   2
Atom   4N    basis set group =>   2
Atom   5H    basis set group =>   3
Atom   6H    basis set group =>   3
Atom   7H    basis set group =>   3
Atom   8H    basis set group =>   3
Atom   9H    basis set group =>   3
Atom  10C    basis set group =>   1
Atom  11H    basis set group =>   3
Atom  12H    basis set group =>   3
Atom  13H    basis set group =>   3
Atom  14H    basis set group =>   3
Atom  15H    basis set group =>   3


           ************************************************************
           *        Program running with 4 parallel MPI-processes     *
           *              working on a common directory               *
           ************************************************************
------------------------------------------------------------------------------
                           ORCA GTO INTEGRAL CALCULATION
                           -- RI-GTO INTEGRALS CHOSEN --
------------------------------------------------------------------------------
------------------------------------------------------------------------------
                   ___                                                        
                  /   \      - P O W E R E D   B Y -                         
                 /     \                                                     
                 |  |  |   _    _      __       _____    __    __             
                 |  |  |  | |  | |    /  \     |  _  \  |  |  /  |          
                  \  \/   | |  | |   /    \    | | | |  |  | /  /          
                 / \  \   | |__| |  /  /\  \   | |_| |  |  |/  /          
                |  |  |   |  __  | /  /__\  \  |    /   |      \           
                |  |  |   | |  | | |   __   |  |    \   |  |\   \          
                \     /   | |  | | |  |  |  |  | |\  \  |  | \   \       
                 \___/    |_|  |_| |__|  |__|  |_| \__\ |__|  \__/        
                                                                              
                      - O R C A' S   B I G   F R I E N D -                    
                                      &                                       
                       - I N T E G R A L  F E E D E R -                       
                                                                              
 v1 FN, 2020, v2 2021                                                         
------------------------------------------------------------------------------


Reading SHARK input file TZVP_TPSS_C1_wt_dlpno_pos.SHARKINP.tmp ... ok
----------------------
SHARK INTEGRAL PACKAGE
----------------------

Number of atoms                             ...     16
Number of basis functions                   ...    246
Number of shells                            ...    106
Maximum angular momentum                    ...      3
Integral batch strategy                     ... SHARK/LIBINT Hybrid
RI-J (if used) integral strategy            ... SPLIT-RIJ (Revised 2003 algorithm where possible)
Printlevel                                  ...      1
Contraction scheme used                     ... SEGMENTED contraction
Coulomb Range Separation                    ... NOT USED
Exchange Range Separation                   ... NOT USED
Finite Nucleus Model                        ... NOT USED
Auxiliary Coulomb fitting basis             ... AVAILABLE
   # of basis functions in Aux-J            ...    404
   # of shells in Aux-J                     ...    140
   Maximum angular momentum in Aux-J        ...      4
Auxiliary J/K fitting basis                 ... NOT available
Auxiliary Correlation fitting basis         ... NOT available
Auxiliary 'external' fitting basis          ... NOT available
Integral threshold                          ...     2.500000e-11
Primitive cut-off                           ...     2.500000e-12
Primitive pair pre-selection threshold      ...     2.500000e-12

Calculating pre-screening integrals         ... done (  0.1 sec) Dimension = 106
Organizing shell pair data                  ... done (  0.0 sec)
Shell pair information
Total number of shell pairs                 ...      5671
Shell pairs after pre-screening             ...      5344
Total number of primitive shell pairs       ...     16452
Primitive shell pairs kept                  ...     12095
          la=0 lb=0:   1680 shell pairs
          la=1 lb=0:   1584 shell pairs
          la=1 lb=1:    390 shell pairs
          la=2 lb=0:    687 shell pairs
          la=2 lb=1:    326 shell pairs
          la=2 lb=2:     77 shell pairs
          la=3 lb=0:    343 shell pairs
          la=3 lb=1:    166 shell pairs
          la=3 lb=2:     70 shell pairs
          la=3 lb=3:     21 shell pairs

Calculating one electron integrals          ... done (  0.0 sec)
Calculating RI/J V-Matrix + Cholesky decomp.... done (  0.0 sec)
Calculating Nuclear repulsion               ... done (  0.0 sec) ENN=    248.609024405615 Eh

SHARK setup successfully completed in   0.2 seconds

Maximum memory used throughout the entire GTOINT-calculation: 13.9 MB


           ************************************************************
           *        Program running with 4 parallel MPI-processes     *
           *              working on a common directory               *
           ************************************************************
-------------------------------------------------------------------------------
                                 ORCA SCF
-------------------------------------------------------------------------------

------------
SCF SETTINGS
------------
Hamiltonian:
 Density Functional     Method          .... DFT(GTOs)
 Exchange Functional    Exchange        .... TPSS
 Correlation Functional Correlation     .... TPSS
 LDA part of GGA corr.  LDAOpt          .... PW91-LDA
 Gradients option       PostSCFGGA      .... off
   Density functional embedding theory  .... OFF
   NL short-range parameter             ....  5.000000
 RI-approximation to the Coulomb term is turned on
   Number of AuxJ basis functions       .... 404


General Settings:
 Integral files         IntName         .... TZVP_TPSS_C1_wt_dlpno_pos
 Hartree-Fock type      HFTyp           .... RHF
 Total Charge           Charge          ....    0
 Multiplicity           Mult            ....    1
 Number of Electrons    NEL             ....   48
 Basis Dimension        Dim             ....  246
 Nuclear Repulsion      ENuc            ....    248.6090244056 Eh

Convergence Acceleration:
 DIIS                   CNVDIIS         .... on
   Start iteration      DIISMaxIt       ....    12
   Startup error        DIISStart       ....  0.200000
   # of expansion vecs  DIISMaxEq       ....     5
   Bias factor          DIISBfac        ....   1.050
   Max. coefficient     DIISMaxC        ....  10.000
 Trust-Rad. Augm. Hess. CNVTRAH         .... auto
   Auto Start mean grad. ratio tolernc. ....  1.125000
   Auto Start start iteration           ....    20
   Auto Start num. interpolation iter.  ....    10
   Max. Number of Micro iterations      ....    16
   Max. Number of Macro iterations      .... Maxiter - #DIIS iter
   Number of Davidson start vectors     ....     2
   Converg. threshold I  (grad. norm)   ....   1.000e-05
   Converg. threshold II (energy diff.) ....   1.000e-08
   Grad. Scal. Fac. for Micro threshold ....   0.100
   Minimum threshold for Micro iter.    ....   0.010
   NR start threshold (gradient norm)   ....   0.001
   Initial trust radius                 ....   0.400
   Minimum AH scaling param. (alpha)    ....   1.000
   Maximum AH scaling param. (alpha)    .... 1000.000
   Orbital update algorithm             .... Taylor
   White noise on init. David. guess    .... on
   Maximum white noise                  ....   0.010
   Quad. conv. algorithm                .... NR
 SOSCF                  CNVSOSCF        .... on
   Start iteration      SOSCFMaxIt      ....   150
   Startup grad/error   SOSCFStart      ....  0.003300
 Level Shifting         CNVShift        .... on
   Level shift para.    LevelShift      ....    0.2500
   Turn off err/grad.   ShiftErr        ....    0.0010
 Zerner damping         CNVZerner       .... off
 Static damping         CNVDamp         .... on
   Fraction old density DampFac         ....    0.7000
   Max. Damping (<1)    DampMax         ....    0.9800
   Min. Damping (>=0)   DampMin         ....    0.0000
   Turn off err/grad.   DampErr         ....    0.1000
 Fernandez-Rico         CNVRico         .... off

SCF Procedure:
 Maximum # iterations   MaxIter         ....   150
 SCF integral mode      SCFMode         .... Direct
   Integral package                     .... SHARK and LIBINT hybrid scheme
 Reset frequency        DirectResetFreq ....    20
 Integral Threshold     Thresh          ....  2.500e-11 Eh
 Primitive CutOff       TCut            ....  2.500e-12 Eh

Convergence Tolerance:
 Convergence Check Mode ConvCheckMode   .... Total+1el-Energy
 Convergence forced     ConvForced      .... 0
 Energy Change          TolE            ....  1.000e-08 Eh
 1-El. energy change                    ....  1.000e-05 Eh
 Orbital Gradient       TolG            ....  1.000e-05
 Orbital Rotation angle TolX            ....  1.000e-05
 DIIS Error             TolErr          ....  5.000e-07


Diagonalization of the overlap matrix:
Smallest eigenvalue                        ... 9.616e-05
Time for diagonalization                   ...    0.016 sec
Threshold for overlap eigenvalues          ... 1.000e-08
Number of eigenvalues below threshold      ... 0
Time for construction of square roots      ...    0.011 sec
Total time needed                          ...    0.028 sec

Time for model grid setup =    0.095 sec

------------------------------
INITIAL GUESS: MODEL POTENTIAL
------------------------------
Loading Hartree-Fock densities                     ... done
Calculating cut-offs                               ... done
Initializing the effective Hamiltonian             ... done
Setting up the integral package (SHARK)            ... done
Starting the Coulomb interaction                   ... done (   0.1 sec)
Reading the grid                                   ... done
Mapping shells                                     ... done
Starting the XC term evaluation                    ... done (   0.1 sec)
  promolecular density results
     # of electrons  =     47.995757400
     EX              =    -36.588038681
     EC              =     -1.577759248
     EX+EC           =    -38.165797929
Transforming the Hamiltonian                       ... done (   0.0 sec)
Diagonalizing the Hamiltonian                      ... done (   0.0 sec)
Back transforming the eigenvectors                 ... done (   0.0 sec)
Now organizing SCF variables                       ... done
                      ------------------
                      INITIAL GUESS DONE (   0.3 sec)
                      ------------------
-------------------
DFT GRID GENERATION
-------------------

General Integration Accuracy     IntAcc      ... 4.388
Radial Grid Type                 RadialGrid  ... OptM3 with GC (2021)
Angular Grid (max. ang.)         AngularGrid ... 4 (Lebedev-302)
Angular grid pruning method      GridPruning ... 4 (adaptive)
Weight generation scheme         WeightScheme... Becke
Basis function cutoff            BFCut       ... 1.0000e-11
Integration weight cutoff        WCut        ... 1.0000e-14
Angular grids for H and He will be reduced by one unit
Partially contracted basis set               ... off
Rotationally invariant grid construction     ... off

Total number of grid points                  ...    68291
Total number of batches                      ...     1076
Average number of points per batch           ...       63
Average number of grid points per atom       ...     4268
Time for grid setup =    0.434 sec

--------------
SCF ITERATIONS
--------------
ITER       Energy         Delta-E        Max-DP      RMS-DP      [F,P]     Damp
               ***  Starting incremental Fock matrix formation  ***
  0   -267.7320118838   0.000000000000 0.07276797  0.00157195  0.2415772 0.7000
  1   -267.8905373362  -0.158525452358 0.05631669  0.00128820  0.1117785 0.7000
                               ***Turning on DIIS***
  2   -267.9449988737  -0.054461537503 0.07509750  0.00209275  0.0330254 0.0000
  3   -268.0217753790  -0.076776505250 0.05774894  0.00098503  0.0664985 0.0000
  4   -268.0489680588  -0.027192679821 0.02359171  0.00040913  0.0150715 0.0000
  5   -268.0505168140  -0.001548755218 0.00952376  0.00018349  0.0038867 0.0000
                      *** Initiating the SOSCF procedure ***
                           *** Shutting down DIIS ***
                      *** Re-Reading the Fockian *** 
                      *** Removing any level shift *** 
ITER      Energy       Delta-E        Grad      Rot      Max-DP    RMS-DP
  6   -268.05061227  -0.0000954588  0.000352  0.000352  0.004166  0.000083
               *** Restarting incremental Fock matrix formation ***
  7   -268.05062388  -0.0000116087  0.000211  0.001557  0.003174  0.000081
  8   -268.05062536  -0.0000014753  0.000103  0.000386  0.001294  0.000024
  9   -268.05062582  -0.0000004583  0.000065  0.000424  0.001021  0.000022
 10   -268.05062605  -0.0000002335  0.000019  0.000032  0.000146  0.000003
 11   -268.05062605  -0.0000000054  0.000018  0.000087  0.000219  0.000005
 12   -268.05062608  -0.0000000257  0.000008  0.000032  0.000029  0.000001
 13   -268.05062608  -0.0000000002  0.000011  0.000019  0.000043  0.000001
                  ***Gradient check signals convergence***
              ***Rediagonalizing the Fockian in SOSCF/NRSCF***

               *****************************************************
               *                     SUCCESS                       *
               *           SCF CONVERGED AFTER  14 CYCLES          *
               *****************************************************


----------------
TOTAL SCF ENERGY
----------------

Total Energy       :         -268.05062608 Eh           -7294.02836 eV

Components:
Nuclear Repulsion  :          248.60902441 Eh            6764.99548 eV
Electronic Energy  :         -516.65965049 Eh          -14059.02384 eV
One Electron Energy:         -853.73562807 Eh          -23231.32750 eV
Two Electron Energy:          337.07597758 Eh            9172.30366 eV

Virial components:
Potential Energy   :         -535.56688796 Eh          -14573.51592 eV
Kinetic Energy     :          267.51626188 Eh            7279.48757 eV
Virial Ratio       :            2.00199750


DFT components:
N(Alpha)           :       23.999955390628 electrons
N(Beta)            :       23.999955390628 electrons
N(Total)           :       47.999910781256 electrons
E(X)               :      -37.982241518472 Eh       
E(C)               :       -1.586974886018 Eh       
E(XC)              :      -39.569216404490 Eh       
DFET-embed. en.    :        0.000000000000 Eh       

---------------
SCF CONVERGENCE
---------------

  Last Energy change         ...   -1.6567e-09  Tolerance :   1.0000e-08
  Last MAX-Density change    ...    1.4291e-05  Tolerance :   1.0000e-07
  Last RMS-Density change    ...    3.7528e-07  Tolerance :   5.0000e-09
  Last Orbital Gradient      ...    1.8466e-06  Tolerance :   1.0000e-05
  Last Orbital Rotation      ...    3.9502e-06  Tolerance :   1.0000e-05

             **** THE GBW FILE WAS UPDATED (TZVP_TPSS_C1_wt_dlpno_pos.gbw) ****
             **** DENSITY TZVP_TPSS_C1_wt_dlpno_pos.scfp WAS UPDATED ****
             **** ENERGY FILE WAS UPDATED (TZVP_TPSS_C1_wt_dlpno_pos.en.tmp) ****
             **** THE GBW FILE WAS UPDATED (TZVP_TPSS_C1_wt_dlpno_pos.gbw) ****
             **** DENSITY TZVP_TPSS_C1_wt_dlpno_pos.scfp WAS UPDATED ****
----------------
ORBITAL ENERGIES
----------------

  NO   OCC          E(Eh)            E(eV) 
   0   2.0000     -14.099963      -383.6795 
   1   2.0000     -14.097885      -383.6230 
   2   2.0000     -10.017744      -272.5967 
   3   2.0000      -9.956132      -270.9201 
   4   2.0000      -9.944863      -270.6135 
   5   2.0000      -9.900187      -269.3978 
   6   2.0000      -0.892561       -24.2878 
   7   2.0000      -0.809269       -22.0213 
   8   2.0000      -0.711243       -19.3539 
   9   2.0000      -0.637435       -17.3455 
  10   2.0000      -0.565971       -15.4008 
  11   2.0000      -0.526908       -14.3379 
  12   2.0000      -0.493305       -13.4235 
  13   2.0000      -0.462280       -12.5793 
  14   2.0000      -0.430363       -11.7108 
  15   2.0000      -0.393114       -10.6972 
  16   2.0000      -0.375512       -10.2182 
  17   2.0000      -0.347517        -9.4564 
  18   2.0000      -0.338346        -9.2069 
  19   2.0000      -0.307911        -8.3787 
  20   2.0000      -0.287947        -7.8354 
  21   2.0000      -0.279353        -7.6016 
  22   2.0000      -0.222178        -6.0458 
  23   2.0000      -0.126977        -3.4552 
  24   0.0000       0.008121         0.2210 
  25   0.0000       0.038084         1.0363 
  26   0.0000       0.049333         1.3424 
  27   0.0000       0.062705         1.7063 
  28   0.0000       0.073521         2.0006 
  29   0.0000       0.085098         2.3156 
  30   0.0000       0.096281         2.6199 
  31   0.0000       0.118358         3.2207 
  32   0.0000       0.137732         3.7479 
  33   0.0000       0.144540         3.9331 
  34   0.0000       0.154083         4.1928 
  35   0.0000       0.167514         4.5583 
  36   0.0000       0.187776         5.1096 
  37   0.0000       0.199545         5.4299 
  38   0.0000       0.215724         5.8702 
  39   0.0000       0.228192         6.2094 
  40   0.0000       0.236492         6.4353 
  41   0.0000       0.249962         6.8018 
  42   0.0000       0.274344         7.4653 
  43   0.0000       0.285112         7.7583 
  44   0.0000       0.303006         8.2452 
  45   0.0000       0.315605         8.5881 
  46   0.0000       0.324247         8.8232 
  47   0.0000       0.331332         9.0160 
  48   0.0000       0.349298         9.5049 
  49   0.0000       0.362886         9.8746 
  50   0.0000       0.371930        10.1207 
  51   0.0000       0.395919        10.7735 
  52   0.0000       0.405139        11.0244 
  53   0.0000       0.416036        11.3209 
  54   0.0000       0.419083        11.4038 
  55   0.0000       0.434662        11.8277 
  56   0.0000       0.438463        11.9312 
  57   0.0000       0.450621        12.2620 
  58   0.0000       0.464874        12.6499 
  59   0.0000       0.472380        12.8541 
  60   0.0000       0.478160        13.0114 
  61   0.0000       0.492433        13.3998 
  62   0.0000       0.505590        13.7578 
  63   0.0000       0.518579        14.1112 
  64   0.0000       0.524635        14.2760 
  65   0.0000       0.552404        15.0317 
  66   0.0000       0.569519        15.4974 
  67   0.0000       0.591273        16.0893 
  68   0.0000       0.600443        16.3389 
  69   0.0000       0.636002        17.3065 
  70   0.0000       0.640754        17.4358 
  71   0.0000       0.675572        18.3832 
  72   0.0000       0.716271        19.4907 
  73   0.0000       0.754224        20.5235 
  74   0.0000       0.761895        20.7322 
  75   0.0000       0.789681        21.4883 
  76   0.0000       0.806812        21.9545 
  77   0.0000       0.854171        23.2432 
  78   0.0000       0.881669        23.9914 
  79   0.0000       0.904729        24.6189 
  80   0.0000       0.916201        24.9311 
  81   0.0000       0.942633        25.6503 
  82   0.0000       0.963975        26.2311 
  83   0.0000       0.995325        27.0842 
  84   0.0000       1.031667        28.0731 
  85   0.0000       1.056250        28.7420 
  86   0.0000       1.072320        29.1793 
  87   0.0000       1.092585        29.7307 
  88   0.0000       1.096401        29.8346 
  89   0.0000       1.132217        30.8092 
  90   0.0000       1.150659        31.3110 
  91   0.0000       1.197982        32.5988 
  92   0.0000       1.222293        33.2603 
  93   0.0000       1.260837        34.3091 
  94   0.0000       1.282664        34.9031 
  95   0.0000       1.312184        35.7063 
  96   0.0000       1.335720        36.3468 
  97   0.0000       1.380372        37.5618 
  98   0.0000       1.411130        38.3988 
  99   0.0000       1.462577        39.7987 
 100   0.0000       1.479979        40.2723 
 101   0.0000       1.483060        40.3561 
 102   0.0000       1.493911        40.6514 
 103   0.0000       1.526939        41.5501 
 104   0.0000       1.541936        41.9582 
 105   0.0000       1.548325        42.1321 
 106   0.0000       1.556873        42.3647 
 107   0.0000       1.581754        43.0417 
 108   0.0000       1.586287        43.1651 
 109   0.0000       1.590599        43.2824 
 110   0.0000       1.602443        43.6047 
 111   0.0000       1.644491        44.7489 
 112   0.0000       1.668024        45.3893 
 113   0.0000       1.676439        45.6182 
 114   0.0000       1.694262        46.1032 
 115   0.0000       1.704456        46.3806 
 116   0.0000       1.740702        47.3669 
 117   0.0000       1.769891        48.1612 
 118   0.0000       1.810331        49.2616 
 119   0.0000       1.833430        49.8902 
 120   0.0000       1.848433        50.2984 
 121   0.0000       1.876191        51.0538 
 122   0.0000       1.882275        51.2193 
 123   0.0000       1.897726        51.6398 
 124   0.0000       1.926678        52.4276 
 125   0.0000       1.986089        54.0442 
 126   0.0000       2.008488        54.6537 
 127   0.0000       2.044821        55.6424 
 128   0.0000       2.073437        56.4211 
 129   0.0000       2.118812        57.6558 
 130   0.0000       2.135460        58.1088 
 131   0.0000       2.166792        58.9614 
 132   0.0000       2.177924        59.2643 
 133   0.0000       2.252628        61.2971 
 134   0.0000       2.282013        62.0967 
 135   0.0000       2.298088        62.5342 
 136   0.0000       2.307956        62.8027 
 137   0.0000       2.356922        64.1351 
 138   0.0000       2.366676        64.4005 
 139   0.0000       2.373871        64.5963 
 140   0.0000       2.387776        64.9747 
 141   0.0000       2.413726        65.6808 
 142   0.0000       2.449666        66.6588 
 143   0.0000       2.465746        67.0964 
 144   0.0000       2.480043        67.4854 
 145   0.0000       2.533100        68.9292 
 146   0.0000       2.542419        69.1827 
 147   0.0000       2.558106        69.6096 
 148   0.0000       2.587137        70.3996 
 149   0.0000       2.616455        71.1974 
 150   0.0000       2.627707        71.5035 
 151   0.0000       2.663953        72.4898 
 152   0.0000       2.678434        72.8839 
 153   0.0000       2.681362        72.9636 
 154   0.0000       2.704040        73.5807 
 155   0.0000       2.714642        73.8692 
 156   0.0000       2.741603        74.6028 
 157   0.0000       2.803943        76.2992 
 158   0.0000       2.843724        77.3817 
 159   0.0000       2.866900        78.0123 
 160   0.0000       2.888076        78.5886 
 161   0.0000       2.895901        78.8015 
 162   0.0000       2.943236        80.0895 
 163   0.0000       2.950396        80.2844 
 164   0.0000       2.972268        80.8795 
 165   0.0000       3.005465        81.7829 
 166   0.0000       3.035808        82.6085 
 167   0.0000       3.056373        83.1681 
 168   0.0000       3.074613        83.6645 
 169   0.0000       3.087470        84.0143 
 170   0.0000       3.123280        84.9888 
 171   0.0000       3.135821        85.3300 
 172   0.0000       3.161570        86.0307 
 173   0.0000       3.170154        86.2643 
 174   0.0000       3.199932        87.0746 
 175   0.0000       3.227770        87.8321 
 176   0.0000       3.265346        88.8546 
 177   0.0000       3.288935        89.4965 
 178   0.0000       3.320902        90.3663 
 179   0.0000       3.329767        90.6076 
 180   0.0000       3.335951        90.7758 
 181   0.0000       3.370997        91.7295 
 182   0.0000       3.393907        92.3529 
 183   0.0000       3.444076        93.7181 
 184   0.0000       3.463517        94.2471 
 185   0.0000       3.522787        95.8599 
 186   0.0000       3.523639        95.8831 
 187   0.0000       3.555467        96.7492 
 188   0.0000       3.597639        97.8967 
 189   0.0000       3.605059        98.0986 
 190   0.0000       3.645453        99.1978 
 191   0.0000       3.693089       100.4941 
 192   0.0000       3.729256       101.4782 
 193   0.0000       3.733082       101.5823 
 194   0.0000       3.807651       103.6115 
 195   0.0000       3.825791       104.1051 
 196   0.0000       3.854366       104.8826 
 197   0.0000       3.877631       105.5157 
 198   0.0000       3.914388       106.5159 
 199   0.0000       3.942786       107.2887 
 200   0.0000       4.007143       109.0399 
 201   0.0000       4.123154       112.1967 
 202   0.0000       4.139336       112.6371 
 203   0.0000       4.177688       113.6807 
 204   0.0000       4.223104       114.9165 
 205   0.0000       4.267103       116.1138 
 206   0.0000       4.344273       118.2137 
 207   0.0000       4.365707       118.7969 
 208   0.0000       4.422129       120.3323 
 209   0.0000       4.447997       121.0361 
 210   0.0000       4.488898       122.1491 
 211   0.0000       4.551034       123.8399 
 212   0.0000       4.563103       124.1684 
 213   0.0000       4.607810       125.3849 
 214   0.0000       4.639380       126.2439 
 215   0.0000       4.664397       126.9247 
 216   0.0000       4.692006       127.6760 
 217   0.0000       4.701707       127.9399 
 218   0.0000       4.768925       129.7691 
 219   0.0000       4.805234       130.7571 
 220   0.0000       4.825087       131.2973 
 221   0.0000       4.844791       131.8335 
 222   0.0000       4.897562       133.2694 
 223   0.0000       4.912543       133.6771 
 224   0.0000       4.937681       134.3611 
 225   0.0000       4.990385       135.7953 
 226   0.0000       5.114083       139.1613 
 227   0.0000       5.153923       140.2454 
 228   0.0000       5.167101       140.6040 
 229   0.0000       5.241192       142.6201 
 230   0.0000       5.266642       143.3126 
 231   0.0000       5.298253       144.1728 
 232   0.0000       5.327441       144.9671 
 233   0.0000       5.399014       146.9146 
 234   0.0000       5.453982       148.4104 
 235   0.0000       5.459620       148.5638 
 236   0.0000       5.650602       153.7607 
 237   0.0000       6.034914       164.2184 
 238   0.0000       6.114035       166.3714 
 239   0.0000       6.166552       167.8004 
 240   0.0000      22.374274       608.8349 
 241   0.0000      22.533620       613.1710 
 242   0.0000      22.809353       620.6741 
 243   0.0000      23.403359       636.8378 
 244   0.0000      31.928440       868.8170 
 245   0.0000      32.102778       873.5610 

                    ********************************
                    * MULLIKEN POPULATION ANALYSIS *
                    ********************************

-----------------------
MULLIKEN ATOMIC CHARGES
-----------------------
   0 C :   -0.180745
   1 C :   -0.343329
   2 C :    0.351486
   3 N :   -0.476889
   4 N :   -0.501620
   5 H :    0.246914
   6 H :    0.214102
   7 H :    0.085879
   8 H :    0.245978
   9 H :    0.216357
  10 C :   -0.280968
  11 H :    0.077180
  12 H :    0.057092
  13 H :    0.095116
  14 H :    0.092347
  15 H :    0.101097
Sum of atomic charges:   -0.0000000

--------------------------------
MULLIKEN REDUCED ORBITAL CHARGES
--------------------------------
  0 C s       :     3.138625  s :     3.138625
      pz      :     0.954710  p :     2.922017
      px      :     0.943649
      py      :     1.023658
      dz2     :     0.018426  d :     0.113029
      dxz     :     0.039636
      dyz     :     0.022041
      dx2y2   :     0.009452
      dxy     :     0.023475
      f0      :     0.001317  f :     0.007074
      f+1     :     0.001826
      f-1     :     0.001043
      f+2     :     0.000607
      f-2     :     0.000509
      f+3     :     0.001014
      f-3     :     0.000759
  1 C s       :     3.170304  s :     3.170304
      pz      :     0.912326  p :     3.080208
      px      :     1.194659
      py      :     0.973224
      dz2     :     0.016312  d :     0.084163
      dxz     :     0.021545
      dyz     :     0.028756
      dx2y2   :     0.007372
      dxy     :     0.010178
      f0      :     0.001288  f :     0.008653
      f+1     :     0.001320
      f-1     :     0.002285
      f+2     :     0.000638
      f-2     :     0.001110
      f+3     :     0.001062
      f-3     :     0.000948
  2 C s       :     2.979605  s :     2.979605
      pz      :     0.757017  p :     2.451334
      px      :     0.869393
      py      :     0.824924
      dz2     :     0.040043  d :     0.199620
      dxz     :     0.047462
      dyz     :     0.047000
      dx2y2   :     0.030951
      dxy     :     0.034165
      f0      :     0.002426  f :     0.017955
      f+1     :     0.003344
      f-1     :     0.004799
      f+2     :     0.001490
      f-2     :     0.001999
      f+3     :     0.001666
      f-3     :     0.002231
  3 N s       :     3.439063  s :     3.439063
      pz      :     1.116800  p :     3.993264
      px      :     1.755748
      py      :     1.120716
      dz2     :     0.006734  d :     0.040633
      dxz     :     0.010442
      dyz     :     0.017692
      dx2y2   :     0.004288
      dxy     :     0.001478
      f0      :     0.000735  f :     0.003928
      f+1     :     0.000757
      f-1     :     0.000657
      f+2     :     0.000733
      f-2     :     0.000163
      f+3     :     0.000343
      f-3     :     0.000541
  4 N s       :     3.479175  s :     3.479175
      pz      :     1.123400  p :     3.980468
      px      :     1.708504
      py      :     1.148565
      dz2     :     0.008581  d :     0.038289
      dxz     :     0.003200
      dyz     :     0.010729
      dx2y2   :     0.008376
      dxy     :     0.007403
      f0      :     0.000620  f :     0.003687
      f+1     :     0.000281
      f-1     :     0.000547
      f+2     :     0.000612
      f-2     :     0.000309
      f+3     :     0.000592
      f-3     :     0.000725
  5 H s       :     0.717240  s :     0.717240
      pz      :     0.016727  p :     0.035846
      px      :     0.012543
      py      :     0.006576
  6 H s       :     0.750380  s :     0.750380
      pz      :     0.008463  p :     0.035518
      px      :     0.013559
      py      :     0.013496
  7 H s       :     0.890378  s :     0.890378
      pz      :     0.005620  p :     0.023743
      px      :     0.009141
      py      :     0.008981
  8 H s       :     0.719110  s :     0.719110
      pz      :     0.007351  p :     0.034912
      px      :     0.013276
      py      :     0.014284
  9 H s       :     0.748238  s :     0.748238
      pz      :     0.009753  p :     0.035405
      px      :     0.013581
      py      :     0.012071
 10 C s       :     3.184938  s :     3.184938
      pz      :     1.023589  p :     3.029758
      px      :     0.958875
      py      :     1.047294
      dz2     :     0.018183  d :     0.061698
      dxz     :     0.011064
      dyz     :     0.003533
      dx2y2   :     0.006887
      dxy     :     0.022031
      f0      :     0.001192  f :     0.004575
      f+1     :     0.000540
      f-1     :     0.000163
      f+2     :     0.000534
      f-2     :     0.000409
      f+3     :     0.001044
      f-3     :     0.000692
 11 H s       :     0.902587  s :     0.902587
      pz      :     0.005493  p :     0.020234
      px      :     0.007001
      py      :     0.007740
 12 H s       :     0.922904  s :     0.922904
      pz      :     0.006089  p :     0.020004
      px      :     0.005812
      py      :     0.008103
 13 H s       :     0.884596  s :     0.884596
      pz      :     0.005879  p :     0.020287
      px      :     0.005896
      py      :     0.008513
 14 H s       :     0.887266  s :     0.887266
      pz      :     0.010422  p :     0.020388
      px      :     0.005163
      py      :     0.004803
 15 H s       :     0.878499  s :     0.878499
      pz      :     0.005216  p :     0.020404
      px      :     0.007024
      py      :     0.008164


                     *******************************
                     * LOEWDIN POPULATION ANALYSIS *
                     *******************************

----------------------
LOEWDIN ATOMIC CHARGES
----------------------
   0 C :   -0.305703
   1 C :   -0.281674
   2 C :   -0.459988
   3 N :   -0.005401
   4 N :   -0.015470
   5 H :    0.172430
   6 H :    0.158096
   7 H :    0.117992
   8 H :    0.177075
   9 H :    0.158902
  10 C :   -0.296990
  11 H :    0.136937
  12 H :    0.119507
  13 H :    0.111203
  14 H :    0.104257
  15 H :    0.108827

-------------------------------
LOEWDIN REDUCED ORBITAL CHARGES
-------------------------------
  0 C s       :     2.759775  s :     2.759775
      pz      :     1.036720  p :     3.050467
      px      :     1.008919
      py      :     1.004828
      dz2     :     0.088355  d :     0.450277
      dxz     :     0.131532
      dyz     :     0.088296
      dx2y2   :     0.052629
      dxy     :     0.089465
      f0      :     0.007237  f :     0.045184
      f+1     :     0.011848
      f-1     :     0.006814
      f+2     :     0.004771
      f-2     :     0.005363
      f+3     :     0.005088
      f-3     :     0.004063
  1 C s       :     2.735863  s :     2.735863
      pz      :     1.006889  p :     3.104810
      px      :     1.066809
      py      :     1.031112
      dz2     :     0.103350  d :     0.393840
      dxz     :     0.084523
      dyz     :     0.133494
      dx2y2   :     0.030947
      dxy     :     0.041526
      f0      :     0.007719  f :     0.047161
      f+1     :     0.006970
      f-1     :     0.013655
      f+2     :     0.005743
      f-2     :     0.005561
      f+3     :     0.004586
      f-3     :     0.002927
  2 C s       :     2.692340  s :     2.692340
      pz      :     0.951772  p :     2.805840
      px      :     0.869039
      py      :     0.985029
      dz2     :     0.196062  d :     0.845053
      dxz     :     0.192443
      dyz     :     0.187074
      dx2y2   :     0.128231
      dxy     :     0.141244
      f0      :     0.015844  f :     0.116755
      f+1     :     0.020631
      f-1     :     0.032818
      f+2     :     0.013053
      f-2     :     0.014717
      f+3     :     0.009423
      f-3     :     0.010269
  3 N s       :     2.962639  s :     2.962639
      pz      :     1.167952  p :     3.873060
      px      :     1.568815
      py      :     1.136293
      dz2     :     0.034266  d :     0.157680
      dxz     :     0.034859
      dyz     :     0.076760
      dx2y2   :     0.009279
      dxy     :     0.002515
      f0      :     0.002684  f :     0.012023
      f+1     :     0.003101
      f-1     :     0.002992
      f+2     :     0.001296
      f-2     :     0.000335
      f+3     :     0.000511
      f-3     :     0.001104
  4 N s       :     2.977463  s :     2.977463
      pz      :     1.139955  p :     3.877935
      px      :     1.562320
      py      :     1.175660
      dz2     :     0.037088  d :     0.148830
      dxz     :     0.010037
      dyz     :     0.048964
      dx2y2   :     0.026907
      dxy     :     0.025835
      f0      :     0.001287  f :     0.011243
      f+1     :     0.000870
      f-1     :     0.002277
      f+2     :     0.001771
      f-2     :     0.001147
      f+3     :     0.001767
      f-3     :     0.002122
  5 H s       :     0.717817  s :     0.717817
      pz      :     0.055385  p :     0.109753
      px      :     0.036719
      py      :     0.017650
  6 H s       :     0.733609  s :     0.733609
      pz      :     0.030441  p :     0.108295
      px      :     0.037104
      py      :     0.040750
  7 H s       :     0.806922  s :     0.806922
      pz      :     0.019197  p :     0.075086
      px      :     0.028285
      py      :     0.027604
  8 H s       :     0.716175  s :     0.716175
      pz      :     0.020280  p :     0.106750
      px      :     0.037357
      py      :     0.049112
  9 H s       :     0.732924  s :     0.732924
      pz      :     0.027359  p :     0.108174
      px      :     0.037942
      py      :     0.042873
 10 C s       :     2.824963  s :     2.824963
      pz      :     1.054544  p :     3.176831
      px      :     1.051683
      py      :     1.070604
      dz2     :     0.073027  d :     0.268696
      dxz     :     0.047916
      dyz     :     0.019236
      dx2y2   :     0.042821
      dxy     :     0.085696
      f0      :     0.004536  f :     0.026501
      f+1     :     0.003416
      f-1     :     0.000733
      f+2     :     0.004876
      f-2     :     0.003977
      f+3     :     0.005095
      f-3     :     0.003868
 11 H s       :     0.806120  s :     0.806120
      pz      :     0.014551  p :     0.056943
      px      :     0.018764
      py      :     0.023628
 12 H s       :     0.823191  s :     0.823191
      pz      :     0.016589  p :     0.057302
      px      :     0.015598
      py      :     0.025116
 13 H s       :     0.825197  s :     0.825197
      pz      :     0.018678  p :     0.063600
      px      :     0.016921
      py      :     0.028001
 14 H s       :     0.832024  s :     0.832024
      pz      :     0.034288  p :     0.063719
      px      :     0.014674
      py      :     0.014757
 15 H s       :     0.827030  s :     0.827030
      pz      :     0.016043  p :     0.064143
      px      :     0.020486
      py      :     0.027615


                      *****************************
                      * MAYER POPULATION ANALYSIS *
                      *****************************

  NA   - Mulliken gross atomic population
  ZA   - Total nuclear charge
  QA   - Mulliken gross atomic charge
  VA   - Mayer's total valence
  BVA  - Mayer's bonded valence
  FA   - Mayer's free valence

  ATOM       NA         ZA         QA         VA         BVA        FA
  0 C      6.1807     6.0000    -0.1807     4.0524     4.0524    -0.0000
  1 C      6.3433     6.0000    -0.3433     3.8179     3.8179    -0.0000
  2 C      5.6485     6.0000     0.3515     4.0180     4.0180    -0.0000
  3 N      7.4769     7.0000    -0.4769     3.0752     3.0752    -0.0000
  4 N      7.5016     7.0000    -0.5016     3.0710     3.0710     0.0000
  5 H      0.7531     1.0000     0.2469     0.9512     0.9512     0.0000
  6 H      0.7859     1.0000     0.2141     0.9640     0.9640     0.0000
  7 H      0.9141     1.0000     0.0859     0.9857     0.9857    -0.0000
  8 H      0.7540     1.0000     0.2460     0.9501     0.9501     0.0000
  9 H      0.7836     1.0000     0.2164     0.9630     0.9630    -0.0000
 10 C      6.2810     6.0000    -0.2810     3.8407     3.8407    -0.0000
 11 H      0.9228     1.0000     0.0772     0.9762     0.9762     0.0000
 12 H      0.9429     1.0000     0.0571     0.9631     0.9631    -0.0000
 13 H      0.9049     1.0000     0.0951     0.9939     0.9939    -0.0000
 14 H      0.9077     1.0000     0.0923     0.9743     0.9743    -0.0000
 15 H      0.8989     1.0000     0.1011     0.9856     0.9856     0.0000

  Mayer bond orders larger than 0.100000
B(  0-C ,  1-C ) :   1.0738 B(  0-C , 10-C ) :   0.9956 B(  0-C , 11-H ) :   0.9510 
B(  0-C , 12-H ) :   0.9544 B(  1-C ,  2-C ) :   1.6763 B(  1-C ,  7-H ) :   0.9776 
B(  2-C ,  3-N ) :   1.1485 B(  2-C ,  4-N ) :   1.1221 B(  3-N ,  8-H ) :   0.9128 
B(  3-N ,  9-H ) :   0.9157 B(  4-N ,  5-H ) :   0.9057 B(  4-N ,  6-H ) :   0.9226 
B( 10-C , 13-H ) :   0.9727 B( 10-C , 14-H ) :   0.9652 B( 10-C , 15-H ) :   0.9721 


-------
TIMINGS
-------

Total SCF time: 0 days 0 hours 0 min 12 sec 

Total time                  ....      12.526 sec
Sum of individual times     ....      12.295 sec  ( 98.2%)

Fock matrix formation       ....      11.295 sec  ( 90.2%)
  Split-RI-J                ....       1.885 sec  ( 16.7% of F)
  XC integration            ....       9.354 sec  ( 82.8% of F)
    Basis function eval.    ....       1.539 sec  ( 16.5% of XC)
    Density eval.           ....       3.147 sec  ( 33.6% of XC)
    XC-Functional eval.     ....       0.536 sec  (  5.7% of XC)
    XC-Potential eval.      ....       3.857 sec  ( 41.2% of XC)
Diagonalization             ....       0.100 sec  (  0.8%)
Density matrix formation    ....       0.007 sec  (  0.1%)
Population analysis         ....       0.011 sec  (  0.1%)
Initial guess               ....       0.215 sec  (  1.7%)
Orbital Transformation      ....       0.000 sec  (  0.0%)
Orbital Orthonormalization  ....       0.000 sec  (  0.0%)
DIIS solution               ....       0.061 sec  (  0.5%)
SOSCF solution              ....       0.078 sec  (  0.6%)
Grid generation             ....       0.529 sec  (  4.2%)

Maximum memory used throughout the entire SCF-calculation: 28.7 MB


-------------------------------------------------------------------------------
                          DFT DISPERSION CORRECTION                            
                                                                               
                              DFTD3 V3.1  Rev 1                                
                          USING Becke-Johnson damping                          
-------------------------------------------------------------------------------
The TPSS functional is recognized
Active option DFTDOPT                   ...         4   

molecular C6(AA) [au] = 1933.264128 


            DFT-D V3
 parameters
 s6 scaling factor         :     1.0000 
 a1 scaling factor         :     0.4535 
 s8 scaling factor         :     1.9435 
 a2 scaling factor         :     4.4752 
 ad hoc parameters k1-k3   :    16.0000     1.3333    -4.0000 

 Edisp/kcal,au: -9.983418465533  -0.015909588322 
 E6   /kcal   :  -5.228432204 
 E8   /kcal   :  -4.754986261 
 % E8         :  47.628838534 

-------------------------   ----------------
Dispersion correction           -0.015909588
-------------------------   ----------------


-------------------------   --------------------
FINAL SINGLE POINT ENERGY      -268.066535669922
-------------------------   --------------------


                            ***************************************
                            *     ORCA property calculations      *
                            ***************************************

                                    ---------------------
                                    Active property flags
                                    ---------------------
   (+) Dipole Moment


------------------------------------------------------------------------------
                       ORCA ELECTRIC PROPERTIES CALCULATION
------------------------------------------------------------------------------

Dipole Moment Calculation                       ... on
Quadrupole Moment Calculation                   ... off
Polarizability Calculation                      ... off
GBWName                                         ... TZVP_TPSS_C1_wt_dlpno_pos.gbw
Electron density file                           ... TZVP_TPSS_C1_wt_dlpno_pos.scfp
The origin for moment calculation is the CENTER OF MASS  = ( 9.163260,  3.554204 -7.330027)

-------------
DIPOLE MOMENT
-------------
                                X             Y             Z
Electronic contribution:     -1.25481       2.03340      -4.20888
Nuclear contribution   :      1.23062      -1.24683       3.43056
                        -----------------------------------------
Total Dipole Moment    :     -0.02420       0.78657      -0.77832
                        -----------------------------------------
Magnitude (a.u.)       :      1.10682
Magnitude (Debye)      :      2.81332



--------------------
Rotational spectrum 
--------------------
 
Rotational constants in cm-1:     0.231477     0.075416     0.065327 
Rotational constants in MHz :  6939.497385  2260.912204  1958.442932 

 Dipole components along the rotational axes: 
x,y,z [a.u.] :    -1.021606     0.425791     0.008890 
x,y,z [Debye]:    -2.596716     1.082276     0.022598 

 

Timings for individual modules:

Sum of individual times         ...       13.211 sec (=   0.220 min)
GTO integral calculation        ...        0.472 sec (=   0.008 min)   3.6 %
SCF iterations                  ...       12.739 sec (=   0.212 min)  96.4 %
                             ****ORCA TERMINATED NORMALLY****
TOTAL RUN TIME: 0 days 0 hours 0 minutes 13 seconds 582 msec
