
                                        *****************
                                        * O   R   C   A *
                                        *****************

                                            #,                                       
                                            ###                                      
                                            ####                                     
                                            #####                                    
                                            ######                                   
                                           ########,                                 
                                     ,,################,,,,,                         
                               ,,#################################,,                 
                          ,,##########################################,,             
                       ,#########################################, ''#####,          
                    ,#############################################,,   '####,        
                  ,##################################################,,,,####,       
                ,###########''''           ''''###############################       
              ,#####''   ,,,,##########,,,,          '''####'''          '####       
            ,##' ,,,,###########################,,,                        '##       
           ' ,,###''''                  '''############,,,                           
         ,,##''                                '''############,,,,        ,,,,,,###''
      ,#''                                            '''#######################'''  
     '                                                          ''''####''''         
             ,#######,   #######,   ,#######,      ##                                
            ,#'     '#,  ##    ##  ,#'     '#,    #''#        ######   ,####,        
            ##       ##  ##   ,#'  ##            #'  '#       #        #'  '#        
            ##       ##  #######   ##           ,######,      #####,   #    #        
            '#,     ,#'  ##    ##  '#,     ,#' ,#      #,         ##   #,  ,#        
             '#######'   ##     ##  '#######'  #'      '#     #####' # '####'        



                  #######################################################
                  #                        -***-                        #
                  #          Department of theory and spectroscopy      #
                  #    Directorship and core code : Frank Neese         #
                  #        Max Planck Institute fuer Kohlenforschung    #
                  #                Kaiser Wilhelm Platz 1               #
                  #                 D-45470 Muelheim/Ruhr               #
                  #                      Germany                        #
                  #                                                     #
                  #                  All rights reserved                #
                  #                        -***-                        #
                  #######################################################


                         Program Version 5.0.0 -  RELEASE  -
                                (SVN: $Rev: 19529$)
                ($Date: 2021-06-28 11:36:33 +0200 (Mo, 28 Jun 2021) $)


 With contributions from (in alphabetic order):
   Daniel Aravena         : Magnetic Suceptibility
   Michael Atanasov       : Ab Initio Ligand Field Theory (pilot matlab implementation)
   Alexander A. Auer      : GIAO ZORA, VPT2 properties, NMR spectrum
   Ute Becker             : Parallelization
   Giovanni Bistoni       : ED, misc. LED, open-shell LED, HFLD
   Martin Brehm           : Molecular dynamics
   Dmytro Bykov           : SCF Hessian
   Vijay G. Chilkuri      : MRCI spin determinant printing, contributions to CSF-ICE
   Dipayan Datta          : RHF DLPNO-CCSD density
   Achintya Kumar Dutta   : EOM-CC, STEOM-CC
   Dmitry Ganyushin       : Spin-Orbit,Spin-Spin,Magnetic field MRCI
   Miquel Garcia          : C-PCM Hessian, Gaussian charge scheme
   Yang Guo               : DLPNO-NEVPT2, F12-NEVPT2, CIM, IAO-localization
   Andreas Hansen         : Spin unrestricted coupled pair/coupled cluster methods
   Benjamin Helmich-Paris : MC-RPA, TRAH-SCF, COSX integrals
   Lee Huntington         : MR-EOM, pCC
   Robert Izsak           : Overlap fitted RIJCOSX, COSX-SCS-MP3, EOM
   Marcus Kettner         : VPT2
   Christian Kollmar      : KDIIS, OOCD, Brueckner-CCSD(T), CCSD density, CASPT2, CASPT2-K
   Simone Kossmann        : Meta GGA functionals, TD-DFT gradient, OOMP2, MP2 Hessian
   Martin Krupicka        : Initial AUTO-CI
   Lucas Lang             : DCDCAS
   Marvin Lechner         : AUTO-CI (C++ implementation), FIC-MRCC
   Dagmar Lenk            : GEPOL surface, SMD
   Dimitrios Liakos       : Extrapolation schemes; Compound Job, initial MDCI parallelization
   Dimitrios Manganas     : Further ROCIS development; embedding schemes
   Dimitrios Pantazis     : SARC Basis sets
   Anastasios Papadopoulos: AUTO-CI, single reference methods and gradients
   Taras Petrenko         : DFT Hessian,TD-DFT gradient, ASA, ECA, R-Raman, ABS, FL, XAS/XES, NRVS
   Peter Pinski           : DLPNO-MP2, DLPNO-MP2 Gradient
   Christoph Reimann      : Effective Core Potentials
   Marius Retegan         : Local ZFS, SOC
   Christoph Riplinger    : Optimizer, TS searches, QM/MM, DLPNO-CCSD(T), (RO)-DLPNO pert. Triples
   Tobias Risthaus        : Range-separated hybrids, TD-DFT gradient, RPA, STAB
   Michael Roemelt        : Original ROCIS implementation
   Masaaki Saitow         : Open-shell DLPNO-CCSD energy and density
   Barbara Sandhoefer     : DKH picture change effects
   Avijit Sen             : IP-ROCIS
   Kantharuban Sivalingam : CASSCF convergence, NEVPT2, FIC-MRCI
   Bernardo de Souza      : ESD, SOC TD-DFT
   Georgi Stoychev        : AutoAux, RI-MP2 NMR
   Willem Van den Heuvel  : Paramagnetic NMR
   Boris Wezisla          : Elementary symmetry handling
   Frank Wennmohs         : Technical directorship


 We gratefully acknowledge several colleagues who have allowed us to
 interface, adapt or use parts of their codes:
   Stefan Grimme, W. Hujo, H. Kruse, P. Pracht,  : VdW corrections, initial TS optimization,
                  C. Bannwarth, S. Ehlert          DFT functionals, gCP, sTDA/sTD-DF
   Ed Valeev, F. Pavosevic, A. Kumar             : LibInt (2-el integral package), F12 methods
   Garnet Chan, S. Sharma, J. Yang, R. Olivares  : DMRG
   Ulf Ekstrom                                   : XCFun DFT Library
   Mihaly Kallay                                 : mrcc  (arbitrary order and MRCC methods)
   Jiri Pittner, Ondrej Demel                    : Mk-CCSD
   Frank Weinhold                                : gennbo (NPA and NBO analysis)
   Christopher J. Cramer and Donald G. Truhlar   : smd solvation model
   Lars Goerigk                                  : TD-DFT with DH, B97 family of functionals
   V. Asgeirsson, H. Jonsson                     : NEB implementation
   FAccTs GmbH                                   : IRC, NEB, NEB-TS, DLPNO-Multilevel, CI-OPT
                                                   MM, QMMM, 2- and 3-layer-ONIOM, Crystal-QMMM,
                                                   LR-CPCM, SF, NACMEs, symmetry and pop. for TD-DFT,
                                                   nearIR, NL-DFT gradient (VV10), updates on ESD,
                                                   ML-optimized integration grids
   S Lehtola, MJT Oliveira, MAL Marques          : LibXC Library
   Liviu Ungur et al                             : ANISO software


 Your calculation uses the libint2 library for the computation of 2-el integrals
 For citations please refer to: http://libint.valeyev.net

 Your ORCA version has been built with support for libXC version: 5.1.0
 For citations please refer to: https://tddft.org/programs/libxc/

 This ORCA versions uses:
   CBLAS   interface :  Fast vector & matrix operations
   LAPACKE interface :  Fast linear algebra routines
   SCALAPACK package :  Parallel linear algebra routines
   Shared memory     :  Shared parallel matrices
   BLAS/LAPACK       :  OpenBLAS 0.3.15  USE64BITINT DYNAMIC_ARCH NO_AFFINITY Haswell SINGLE_THREADED
        Core in use  :  Haswell
   Copyright (c) 2011-2014, The OpenBLAS Project




***************************************
The coordinates will be read from file: D5.xyz
***************************************


Your calculation utilizes the atom-pairwise dispersion correction
with the Becke-Johnson damping scheme (D3BJ)
Cite in your paper:
S.Grimme, S.Ehrlich, L.Goerigk, J Comput Chem, (2011), 32, 1456–1465 
S.Grimme, J.Antony, S.Ehrlich and H.Krieg, J.Chem.Phys., 132, (2010), 154104 
   

================================================================================

----- Orbital basis set information -----
Your calculation utilizes the basis: def2-TZVP
   F. Weigend and R. Ahlrichs, Phys. Chem. Chem. Phys. 7, 3297 (2005).

----- AuxJ basis set information -----
Your calculation utilizes the auxiliary basis: def2/J
   F. Weigend, Phys. Chem. Chem. Phys. 8, 1057 (2006).

================================================================================
                                        WARNINGS
                       Please study these warnings very carefully!
================================================================================



WARNING: Found flag for RIJCOSX approximation but no HF exchange needed!
  ===> : RIJCOSX  will be disabled and Split-RI-J is turned on

INFO   : the flag for use of the SHARK integral package has been found!

================================================================================
                                       INPUT FILE
================================================================================
NAME = TPSS_D5_wb97.com
|  1> !TPSS D3BJ RIJCOSX def2-TZVP def2/J TightSCF xyzfile                                                                                         
|  2> 
|  3> *xyzfile 0 1 D5.xyz
|  4> 
|  5> %MaxCore 64000
|  6> 
|  7> %pal nprocs 18
|  8> end  
|  9> 
| 10> %scf
| 11>   MaxIter 150
| 12> end
| 13> 
| 14> 
| 15>                          ****END OF INPUT****
================================================================================

                       ****************************
                       * Single Point Calculation *
                       ****************************

---------------------------------
CARTESIAN COORDINATES (ANGSTROEM)
---------------------------------
  C      4.490588    1.155899   -2.469290
  N      4.305394    1.222762   -3.908317
  C      4.906458   -3.102816   -5.954844
  C      3.511771   -2.806215   -6.492283
  H      2.736044   -3.373445   -5.973736
  H      3.444904   -3.040831   -7.555281
  S      3.004618   -1.096206   -6.389259
  C      4.631918    2.246365   -4.670958
  C      4.541686    2.143990   -5.987139
  N      5.084086    3.393584   -4.118545
  H      4.920675    3.570501   -3.135870
  H      5.254652    4.197390   -4.706956
  H      3.824530    0.449113   -4.350926
  H      4.343373    1.249318   -6.416646
  H      4.676712    2.956624   -6.574113
  O      4.128856   -0.329647   -6.953717
  F      1.781285   -1.000779   -7.136399
  C      5.942129    0.939500   -2.036893
  H      3.864305    0.328532   -2.136611
  H      4.076233    2.049994   -1.989010
  C      6.462677   -3.117775   -3.944671
  C      5.024977   -3.025679   -4.437625
  H      4.423321   -3.818693   -3.977648
  H      4.579350   -2.087131   -4.108727
  H      5.201533   -4.100207   -6.296905
  H      5.605922   -2.397822   -6.413368
  C      6.559957   -0.356290   -2.559086
  H      5.967976    0.952567   -0.942444
  H      6.547184    1.788331   -2.368849
  C      6.006283   -1.615917   -1.899301
  H      7.642360   -0.318000   -2.402059
  H      6.414855   -0.403433   -3.642587
  C      6.608718   -2.917014   -2.435655
  H      6.190324   -1.561115   -0.820948
  H      4.919250   -1.651245   -2.016586
  H      7.066975   -2.374258   -4.475514
  H      6.887808   -4.089747   -4.215332
  H      6.135197   -3.755573   -1.915159
  H      7.671142   -2.955503   -2.172291
  O      2.851546   -0.783683   -4.956789

----------------------------
CARTESIAN COORDINATES (A.U.)
----------------------------
  NO LB      ZA    FRAG     MASS         X           Y           Z
   0 C     6.0000    0    12.011    8.485982    2.184332   -4.666282
   1 N     7.0000    0    14.007    8.136015    2.310685   -7.385649
   2 C     6.0000    0    12.011    9.271862   -5.863473  -11.253025
   3 C     6.0000    0    12.011    6.636285   -5.302977  -12.268638
   4 H     1.0000    0     1.008    5.170374   -6.374888  -11.288724
   5 H     1.0000    0     1.008    6.509926   -5.746338  -14.277412
   6 S    16.0000    0    32.060    5.677904   -2.071530  -12.073950
   7 C     6.0000    0    12.011    8.753057    4.245015   -8.826831
   8 C     6.0000    0    12.011    8.582543    4.051553  -11.314052
   9 N     7.0000    0    14.007    9.607530    6.412945   -7.782923
  10 H     1.0000    0     1.008    9.298728    6.747268   -5.925936
  11 H     1.0000    0     1.008    9.929852    7.931917   -8.894858
  12 H     1.0000    0     1.008    7.227314    0.848701   -8.222058
  13 H     1.0000    0     1.008    8.207786    2.360868  -12.125704
  14 H     1.0000    0     1.008    8.837705    5.587209  -12.423274
  15 O     8.0000    0    15.999    7.802408   -0.622942  -13.140621
  16 F     9.0000    0    18.998    3.366140   -1.891199  -13.485840
  17 C     6.0000    0    12.011   11.228997    1.775397   -3.849170
  18 H     1.0000    0     1.008    7.302479    0.620836   -4.037610
  19 H     1.0000    0     1.008    7.702964    3.873927   -3.758685
  20 C     6.0000    0    12.011   12.212689   -5.891741   -7.454347
  21 C     6.0000    0    12.011    9.495831   -5.717705   -8.385896
  22 H     1.0000    0     1.008    8.358866   -7.216284   -7.516666
  23 H     1.0000    0     1.008    8.653718   -3.944106   -7.764369
  24 H     1.0000    0     1.008    9.829473   -7.748269  -11.899427
  25 H     1.0000    0     1.008   10.593657   -4.531226  -12.119509
  26 C     6.0000    0    12.011   12.396522   -0.673291   -4.835971
  27 H     1.0000    0     1.008   11.277840    1.800090   -1.780961
  28 H     1.0000    0     1.008   12.372385    3.379455   -4.476477
  29 C     6.0000    0    12.011   11.350230   -3.053641   -3.589158
  30 H     1.0000    0     1.008   14.441966   -0.600934   -4.539234
  31 H     1.0000    0     1.008   12.122318   -0.762378   -6.883492
  32 C     6.0000    0    12.011   12.488666   -5.512358   -4.602721
  33 H     1.0000    0     1.008   11.698016   -2.950080   -1.551366
  34 H     1.0000    0     1.008    9.296035   -3.120400   -3.810796
  35 H     1.0000    0     1.008   13.354648   -4.486697   -8.457496
  36 H     1.0000    0     1.008   13.016070   -7.728501   -7.965822
  37 H     1.0000    0     1.008   11.593841   -7.097005   -3.619127
  38 H     1.0000    0     1.008   14.496357   -5.585092   -4.105035
  39 O     8.0000    0    15.999    5.388641   -1.480946   -9.366974

--------------------------------
INTERNAL COORDINATES (ANGSTROEM)
--------------------------------
 C      0   0   0     0.000000000000     0.00000000     0.00000000
 N      1   0   0     1.452434888732     0.00000000     0.00000000
 C      2   1   0     4.822880648060   111.29935464     0.00000000
 C      3   2   1     1.523799819616    82.01111056   124.72570022
 H      4   3   2     1.091968299252   112.43309611   255.51929182
 H      4   3   2     1.090632873150   110.97759244   134.54655122
 S      4   3   2     1.786602224664   115.19977359    16.50892478
 C      2   1   3     1.317574833962   125.28497018   214.05519914
 C      8   2   1     1.323236350905   119.91604121   173.18858040
 N      8   2   1     1.351194480527   120.39094198   354.48825376
 H     10   8   2     1.011757151303   119.43893893   342.13916756
 H     10   8   2     1.010654769343   119.58539038   185.29571941
 H      2   1   3     1.012750840265   117.28239304    38.84614007
 H      9   8   2     1.012048706728   120.25757225   351.78674532
 H      9   8   2     1.011506480060   120.39405507   172.23609159
 O      7   4   3     1.473139212620   105.02973514    49.07238667
 F      7   4   3     1.436617023222   105.98041552   170.73821441
 C      1   2   3     1.529956533456   114.04751046    71.27147181
 H      1   2   3     1.089697165343   105.31628314   309.84494500
 H      1   2   3     1.096250554262   110.38499465   196.36075284
 C      3   2   1     2.542211031985    75.28786529   328.63877310
 C     21   3   2     1.522650424266    33.45203408    62.46988994
 H     22  21   3     1.096558425421   109.78678321   123.00138599
 H     22  21   3     1.089784085482   109.90626334   238.94967961
 H      3   2   1     1.094926392967   169.46526939   316.66150389
 H      3   2   1     1.093851646948    71.30795148   237.06279558
 C     18   1   2     1.527569327213   114.02213033   299.75436756
 H     18   1   2     1.094832037269   107.65179087   177.40351951
 H     18   1   2     1.093983651653   109.22173402    62.36298160
 C     27  18   1     1.525952470352   113.93276277   288.90034571
 H     27  18   1     1.094403426518   108.74093275   167.10616769
 H     27  18   1     1.094190161747   108.74874272    52.17399198
 C     21   3   2     1.529300762752   146.92063230    53.80488115
 H     30  27  18     1.095317124906   108.86941482   300.75108730
 H     30  27  18     1.093912987644   109.92906200    56.35085961
 H     21   3   2     1.095348999413    87.16372703   291.04892433
 H     21   3   2     1.094861915024    92.71949470   185.57163885
 H     33  21   3     1.094677724411   109.10507473    72.09358689
 H     33  21   3     1.095256828209   108.98305469   187.60350442
 O      7   4   3     1.474133937430   106.76381078   292.33403201

---------------------------
INTERNAL COORDINATES (A.U.)
---------------------------
 C      0   0   0     0.000000000000     0.00000000     0.00000000
 N      1   0   0     2.744704167055     0.00000000     0.00000000
 C      2   1   0     9.113923601421   111.29935464     0.00000000
 C      3   2   1     2.879564341994    82.01111056   124.72570022
 H      4   3   2     2.063521032510   112.43309611   255.51929182
 H      4   3   2     2.060997442905   110.97759244   134.54655122
 S      4   3   2     3.376188914869   115.19977359    16.50892478
 C      2   1   3     2.489855597135   125.28497018   214.05519914
 C      8   2   1     2.500554313659   119.91604121   173.18858040
 N      8   2   1     2.553387521862   120.39094198   354.48825376
 H     10   8   2     1.911943930000   119.43893893   342.13916756
 H     10   8   2     1.909860730000   119.58539038   185.29571941
 H      2   1   3     1.913821729999   117.28239304    38.84614007
 H      9   8   2     1.912494889904   120.25757225   351.78674532
 H      9   8   2     1.911470230000   120.39405507   172.23609159
 O      7   4   3     2.783829668993   105.02973514    49.07238667
 F      7   4   3     2.714812733219   105.98041552   170.73821441
 C      1   2   3     2.891198845036   114.04751046    71.27147181
 H      1   2   3     2.059229211409   105.31628314   309.84494500
 H      1   2   3     2.071613321715   110.38499465   196.36075284
 C      3   2   1     4.804082625084    75.28786529   328.63877310
 C     21   3   2     2.877392299561    33.45203408    62.46988994
 H     22  21   3     2.072195113889   109.78678321   123.00138599
 H     22  21   3     2.059393466667   109.90626334   238.94967961
 H      3   2   1     2.069111019509   169.46526939   316.66150389
 H      3   2   1     2.067080043870    71.30795148   237.06279558
 C     18   1   2     2.886687679010   114.02213033   299.75436756
 H     18   1   2     2.068932713082   107.65179087   177.40351951
 H     18   1   2     2.067329496612   109.22173402    62.36298160
 C     27  18   1     2.883632262346   113.93276277   288.90034571
 H     27  18   1     2.068122756144   108.74093275   167.10616769
 H     27  18   1     2.067719744133   108.74874272    52.17399198
 C     21   3   2     2.889959617997   146.92063230    53.80488115
 H     30  27  18     2.069849395866   108.86941482   300.75108730
 H     30  27  18     2.067195960987   109.92906200    56.35085961
 H     21   3   2     2.069909629955    87.16372703   291.04892433
 H     21   3   2     2.068989173855    92.71949470   185.57163885
 H     33  21   3     2.068641104040   109.10507473    72.09358689
 H     33  21   3     2.069735451623   108.98305469   187.60350442
 O      7   4   3     2.785709426462   106.76381078   292.33403201

---------------------
BASIS SET INFORMATION
---------------------
There are 6 groups of distinct atoms

 Group   1 Type C   : 11s6p2d1f contracted to 5s3p2d1f pattern {62111/411/11/1}
 Group   2 Type N   : 11s6p2d1f contracted to 5s3p2d1f pattern {62111/411/11/1}
 Group   3 Type H   : 5s1p contracted to 3s1p pattern {311/1}
 Group   4 Type S   : 14s9p3d1f contracted to 5s5p2d1f pattern {73211/51111/21/1}
 Group   5 Type O   : 11s6p2d1f contracted to 5s3p2d1f pattern {62111/411/11/1}
 Group   6 Type F   : 11s6p2d1f contracted to 5s3p2d1f pattern {62111/411/11/1}

Atom   0C    basis set group =>   1
Atom   1N    basis set group =>   2
Atom   2C    basis set group =>   1
Atom   3C    basis set group =>   1
Atom   4H    basis set group =>   3
Atom   5H    basis set group =>   3
Atom   6S    basis set group =>   4
Atom   7C    basis set group =>   1
Atom   8C    basis set group =>   1
Atom   9N    basis set group =>   2
Atom  10H    basis set group =>   3
Atom  11H    basis set group =>   3
Atom  12H    basis set group =>   3
Atom  13H    basis set group =>   3
Atom  14H    basis set group =>   3
Atom  15O    basis set group =>   5
Atom  16F    basis set group =>   6
Atom  17C    basis set group =>   1
Atom  18H    basis set group =>   3
Atom  19H    basis set group =>   3
Atom  20C    basis set group =>   1
Atom  21C    basis set group =>   1
Atom  22H    basis set group =>   3
Atom  23H    basis set group =>   3
Atom  24H    basis set group =>   3
Atom  25H    basis set group =>   3
Atom  26C    basis set group =>   1
Atom  27H    basis set group =>   3
Atom  28H    basis set group =>   3
Atom  29C    basis set group =>   1
Atom  30H    basis set group =>   3
Atom  31H    basis set group =>   3
Atom  32C    basis set group =>   1
Atom  33H    basis set group =>   3
Atom  34H    basis set group =>   3
Atom  35H    basis set group =>   3
Atom  36H    basis set group =>   3
Atom  37H    basis set group =>   3
Atom  38H    basis set group =>   3
Atom  39O    basis set group =>   5
---------------------------------
AUXILIARY/J BASIS SET INFORMATION
---------------------------------
There are 6 groups of distinct atoms

 Group   1 Type C   : 12s5p4d2f1g contracted to 6s4p3d1f1g pattern {711111/2111/211/2/1}
 Group   2 Type N   : 12s5p4d2f1g contracted to 6s4p3d1f1g pattern {711111/2111/211/2/1}
 Group   3 Type H   : 5s2p1d contracted to 3s1p1d pattern {311/2/1}
 Group   4 Type S   : 14s5p5d2f1g contracted to 8s4p3d1f1g pattern {71111111/2111/311/2/1}
 Group   5 Type O   : 12s5p4d2f1g contracted to 6s4p3d1f1g pattern {711111/2111/211/2/1}
 Group   6 Type F   : 12s5p4d2f1g contracted to 6s4p3d1f1g pattern {711111/2111/211/2/1}

Atom   0C    basis set group =>   1
Atom   1N    basis set group =>   2
Atom   2C    basis set group =>   1
Atom   3C    basis set group =>   1
Atom   4H    basis set group =>   3
Atom   5H    basis set group =>   3
Atom   6S    basis set group =>   4
Atom   7C    basis set group =>   1
Atom   8C    basis set group =>   1
Atom   9N    basis set group =>   2
Atom  10H    basis set group =>   3
Atom  11H    basis set group =>   3
Atom  12H    basis set group =>   3
Atom  13H    basis set group =>   3
Atom  14H    basis set group =>   3
Atom  15O    basis set group =>   5
Atom  16F    basis set group =>   6
Atom  17C    basis set group =>   1
Atom  18H    basis set group =>   3
Atom  19H    basis set group =>   3
Atom  20C    basis set group =>   1
Atom  21C    basis set group =>   1
Atom  22H    basis set group =>   3
Atom  23H    basis set group =>   3
Atom  24H    basis set group =>   3
Atom  25H    basis set group =>   3
Atom  26C    basis set group =>   1
Atom  27H    basis set group =>   3
Atom  28H    basis set group =>   3
Atom  29C    basis set group =>   1
Atom  30H    basis set group =>   3
Atom  31H    basis set group =>   3
Atom  32C    basis set group =>   1
Atom  33H    basis set group =>   3
Atom  34H    basis set group =>   3
Atom  35H    basis set group =>   3
Atom  36H    basis set group =>   3
Atom  37H    basis set group =>   3
Atom  38H    basis set group =>   3
Atom  39O    basis set group =>   5


           ************************************************************
           *        Program running with 18 parallel MPI-processes    *
           *              working on a common directory               *
           ************************************************************
------------------------------------------------------------------------------
                           ORCA GTO INTEGRAL CALCULATION
                           -- RI-GTO INTEGRALS CHOSEN --
------------------------------------------------------------------------------
------------------------------------------------------------------------------
                   ___                                                        
                  /   \      - P O W E R E D   B Y -                         
                 /     \                                                     
                 |  |  |   _    _      __       _____    __    __             
                 |  |  |  | |  | |    /  \     |  _  \  |  |  /  |          
                  \  \/   | |  | |   /    \    | | | |  |  | /  /          
                 / \  \   | |__| |  /  /\  \   | |_| |  |  |/  /          
                |  |  |   |  __  | /  /__\  \  |    /   |      \           
                |  |  |   | |  | | |   __   |  |    \   |  |\   \          
                \     /   | |  | | |  |  |  |  | |\  \  |  | \   \       
                 \___/    |_|  |_| |__|  |__|  |_| \__\ |__|  \__/        
                                                                              
                      - O R C A' S   B I G   F R I E N D -                    
                                      &                                       
                       - I N T E G R A L  F E E D E R -                       
                                                                              
 v1 FN, 2020, v2 2021                                                         
------------------------------------------------------------------------------


Reading SHARK input file TPSS_D5_wb97.SHARKINP.tmp ... ok
----------------------
SHARK INTEGRAL PACKAGE
----------------------

Number of atoms                             ...     40
Number of basis functions                   ...    671
Number of shells                            ...    281
Maximum angular momentum                    ...      3
Integral batch strategy                     ... SHARK/LIBINT Hybrid
RI-J (if used) integral strategy            ... SPLIT-RIJ (Revised 2003 algorithm where possible)
Printlevel                                  ...      1
Contraction scheme used                     ... SEGMENTED contraction
Coulomb Range Separation                    ... NOT USED
Exchange Range Separation                   ... NOT USED
Finite Nucleus Model                        ... NOT USED
Auxiliary Coulomb fitting basis             ... AVAILABLE
   # of basis functions in Aux-J            ...   1088
   # of shells in Aux-J                     ...    372
   Maximum angular momentum in Aux-J        ...      4
Auxiliary J/K fitting basis                 ... NOT available
Auxiliary Correlation fitting basis         ... NOT available
Auxiliary 'external' fitting basis          ... NOT available
Integral threshold                          ...     2.500000e-11
Primitive cut-off                           ...     2.500000e-12
Primitive pair pre-selection threshold      ...     2.500000e-12

Calculating pre-screening integrals         ... done (  0.5 sec) Dimension = 281
Organizing shell pair data                  ... done (  0.4 sec)
Shell pair information
Total number of shell pairs                 ...     39621
Shell pairs after pre-screening             ...     30245
Total number of primitive shell pairs       ...    118312
Primitive shell pairs kept                  ...     61142
          la=0 lb=0:   9051 shell pairs
          la=1 lb=0:   9086 shell pairs
          la=1 lb=1:   2343 shell pairs
          la=2 lb=0:   3927 shell pairs
          la=2 lb=1:   2030 shell pairs
          la=2 lb=2:    473 shell pairs
          la=3 lb=0:   1853 shell pairs
          la=3 lb=1:    963 shell pairs
          la=3 lb=2:    416 shell pairs
          la=3 lb=3:    103 shell pairs

Calculating one electron integrals          ... done (  0.1 sec)
Calculating RI/J V-Matrix + Cholesky decomp.... done (  0.4 sec)
Calculating Nuclear repulsion               ... done (  0.0 sec) ENN=   1571.414116262247 Eh

SHARK setup successfully completed in   1.5 seconds

Maximum memory used throughout the entire GTOINT-calculation: 45.1 MB


           ************************************************************
           *        Program running with 18 parallel MPI-processes    *
           *              working on a common directory               *
           ************************************************************
-------------------------------------------------------------------------------
                                 ORCA SCF
-------------------------------------------------------------------------------

------------
SCF SETTINGS
------------
Hamiltonian:
 Density Functional     Method          .... DFT(GTOs)
 Exchange Functional    Exchange        .... TPSS
 Correlation Functional Correlation     .... TPSS
 LDA part of GGA corr.  LDAOpt          .... PW91-LDA
 Gradients option       PostSCFGGA      .... off
   Density functional embedding theory  .... OFF
   NL short-range parameter             ....  5.000000
 RI-approximation to the Coulomb term is turned on
   Number of AuxJ basis functions       .... 1088


General Settings:
 Integral files         IntName         .... TPSS_D5_wb97
 Hartree-Fock type      HFTyp           .... RHF
 Total Charge           Charge          ....    0
 Multiplicity           Mult            ....    1
 Number of Electrons    NEL             ....  144
 Basis Dimension        Dim             ....  671
 Nuclear Repulsion      ENuc            ....   1571.4141162622 Eh

Convergence Acceleration:
 DIIS                   CNVDIIS         .... on
   Start iteration      DIISMaxIt       ....    12
   Startup error        DIISStart       ....  0.200000
   # of expansion vecs  DIISMaxEq       ....     5
   Bias factor          DIISBfac        ....   1.050
   Max. coefficient     DIISMaxC        ....  10.000
 Trust-Rad. Augm. Hess. CNVTRAH         .... auto
   Auto Start mean grad. ratio tolernc. ....  1.125000
   Auto Start start iteration           ....    20
   Auto Start num. interpolation iter.  ....    10
   Max. Number of Micro iterations      ....    16
   Max. Number of Macro iterations      .... Maxiter - #DIIS iter
   Number of Davidson start vectors     ....     2
   Converg. threshold I  (grad. norm)   ....   1.000e-05
   Converg. threshold II (energy diff.) ....   1.000e-08
   Grad. Scal. Fac. for Micro threshold ....   0.100
   Minimum threshold for Micro iter.    ....   0.010
   NR start threshold (gradient norm)   ....   0.001
   Initial trust radius                 ....   0.400
   Minimum AH scaling param. (alpha)    ....   1.000
   Maximum AH scaling param. (alpha)    .... 1000.000
   Orbital update algorithm             .... Taylor
   White noise on init. David. guess    .... on
   Maximum white noise                  ....   0.010
   Quad. conv. algorithm                .... NR
 SOSCF                  CNVSOSCF        .... on
   Start iteration      SOSCFMaxIt      ....   150
   Startup grad/error   SOSCFStart      ....  0.003300
 Level Shifting         CNVShift        .... on
   Level shift para.    LevelShift      ....    0.2500
   Turn off err/grad.   ShiftErr        ....    0.0010
 Zerner damping         CNVZerner       .... off
 Static damping         CNVDamp         .... on
   Fraction old density DampFac         ....    0.7000
   Max. Damping (<1)    DampMax         ....    0.9800
   Min. Damping (>=0)   DampMin         ....    0.0000
   Turn off err/grad.   DampErr         ....    0.1000
 Fernandez-Rico         CNVRico         .... off

SCF Procedure:
 Maximum # iterations   MaxIter         ....   150
 SCF integral mode      SCFMode         .... Direct
   Integral package                     .... SHARK and LIBINT hybrid scheme
 Reset frequency        DirectResetFreq ....    20
 Integral Threshold     Thresh          ....  2.500e-11 Eh
 Primitive CutOff       TCut            ....  2.500e-12 Eh

Convergence Tolerance:
 Convergence Check Mode ConvCheckMode   .... Total+1el-Energy
 Convergence forced     ConvForced      .... 0
 Energy Change          TolE            ....  1.000e-08 Eh
 1-El. energy change                    ....  1.000e-05 Eh
 Orbital Gradient       TolG            ....  1.000e-05
 Orbital Rotation angle TolX            ....  1.000e-05
 DIIS Error             TolErr          ....  5.000e-07


Diagonalization of the overlap matrix:
Smallest eigenvalue                        ... 7.268e-05
Time for diagonalization                   ...    0.146 sec
Threshold for overlap eigenvalues          ... 1.000e-08
Number of eigenvalues below threshold      ... 0
Time for construction of square roots      ...    0.354 sec
Total time needed                          ...    0.504 sec

Time for model grid setup =    0.312 sec

------------------------------
INITIAL GUESS: MODEL POTENTIAL
------------------------------
Loading Hartree-Fock densities                     ... done
Calculating cut-offs                               ... done
Initializing the effective Hamiltonian             ... done
Setting up the integral package (SHARK)            ... done
Starting the Coulomb interaction                   ... done (   0.4 sec)
Reading the grid                                   ... done
Mapping shells                                     ... done
Starting the XC term evaluation                    ... done (   0.2 sec)
  promolecular density results
     # of electrons  =    143.982934540
     EX              =   -127.655401907
     EC              =     -4.952996972
     EX+EC           =   -132.608398878
Transforming the Hamiltonian                       ... done (   0.1 sec)
Diagonalizing the Hamiltonian                      ... done (   0.1 sec)
Back transforming the eigenvectors                 ... done (   0.0 sec)
Now organizing SCF variables                       ... done
                      ------------------
                      INITIAL GUESS DONE (   1.3 sec)
                      ------------------
-------------------
DFT GRID GENERATION
-------------------

General Integration Accuracy     IntAcc      ... 4.388
Radial Grid Type                 RadialGrid  ... OptM3 with GC (2021)
Angular Grid (max. ang.)         AngularGrid ... 4 (Lebedev-302)
Angular grid pruning method      GridPruning ... 4 (adaptive)
Weight generation scheme         WeightScheme... Becke
Basis function cutoff            BFCut       ... 1.0000e-11
Integration weight cutoff        WCut        ... 1.0000e-14
Angular grids for H and He will be reduced by one unit
Partially contracted basis set               ... off
Rotationally invariant grid construction     ... off

Total number of grid points                  ...   175228
Total number of batches                      ...     2758
Average number of points per batch           ...       63
Average number of grid points per atom       ...     4381
Time for grid setup =    1.015 sec

--------------
SCF ITERATIONS
--------------
ITER       Energy         Delta-E        Max-DP      RMS-DP      [F,P]     Damp
               ***  Starting incremental Fock matrix formation  ***
  0  -1190.6050694463   0.000000000000 0.21188757  0.00122381  0.2786864 0.7000
  1  -1190.9900175977  -0.384948151391 0.25675391  0.00099984  0.1284805 0.7000
                               ***Turning on DIIS***
  2  -1191.1034812474  -0.113463649645 0.37131995  0.00152141  0.0381473 0.0000
  3  -1191.3167903011  -0.213309053760 0.27044976  0.00089503  0.0824750 0.0000
  4  -1191.3600804616  -0.043290160505 0.11296444  0.00038179  0.0367023 0.0000
  5  -1191.3667176425  -0.006637180845 0.04632606  0.00015219  0.0072643 0.0000
  6  -1191.3669637653  -0.000246122848 0.02161847  0.00006727  0.0042800 0.0000
                      *** Initiating the SOSCF procedure ***
                           *** Shutting down DIIS ***
                      *** Re-Reading the Fockian *** 
                      *** Removing any level shift *** 
ITER      Energy       Delta-E        Grad      Rot      Max-DP    RMS-DP
  7  -1191.36701461  -0.0000508478  0.000305  0.000305  0.025109  0.000076
               *** Restarting incremental Fock matrix formation ***
  8  -1191.36702051  -0.0000059014  0.000230  0.001171  0.003843  0.000017
  9  -1191.36700828   0.0000122347  0.000565  0.000790  0.001799  0.000010
 10  -1191.36702264  -0.0000143626  0.000040  0.000186  0.001497  0.000005
 11  -1191.36702203   0.0000006081  0.000090  0.000168  0.000764  0.000003
 12  -1191.36702284  -0.0000008103  0.000016  0.000056  0.000490  0.000002
 13  -1191.36702279   0.0000000560  0.000023  0.000033  0.000313  0.000001
 14  -1191.36702285  -0.0000000658  0.000003  0.000005  0.000058  0.000000
 15  -1191.36702284   0.0000000100  0.000006  0.000004  0.000026  0.000000
                  ***Gradient check signals convergence***
              ***Rediagonalizing the Fockian in SOSCF/NRSCF***

               *****************************************************
               *                     SUCCESS                       *
               *           SCF CONVERGED AFTER  16 CYCLES          *
               *****************************************************


----------------
TOTAL SCF ENERGY
----------------

Total Energy       :        -1191.36702284 Eh          -32418.74483 eV

Components:
Nuclear Repulsion  :         1571.41411626 Eh           42760.35200 eV
Electronic Energy  :        -2762.78113910 Eh          -75179.09683 eV
One Electron Energy:        -4753.92129502 Eh         -129360.77501 eV
Two Electron Energy:         1991.14015592 Eh           54181.67819 eV

Virial components:
Potential Energy   :        -2379.58011327 Eh          -64751.66679 eV
Kinetic Energy     :         1188.21309044 Eh           32332.92196 eV
Virial Ratio       :            2.00265435


DFT components:
N(Alpha)           :       71.999823788672 electrons
N(Beta)            :       71.999823788672 electrons
N(Total)           :      143.999647577344 electrons
E(X)               :     -131.310635850138 Eh       
E(C)               :       -4.938058661526 Eh       
E(XC)              :     -136.248694511664 Eh       
DFET-embed. en.    :        0.000000000000 Eh       

---------------
SCF CONVERGENCE
---------------

  Last Energy change         ...    7.7118e-09  Tolerance :   1.0000e-08
  Last MAX-Density change    ...    2.4705e-05  Tolerance :   1.0000e-07
  Last RMS-Density change    ...    1.1537e-07  Tolerance :   5.0000e-09
  Last Orbital Gradient      ...    5.3677e-07  Tolerance :   1.0000e-05
  Last Orbital Rotation      ...    1.8087e-06  Tolerance :   1.0000e-05

             **** THE GBW FILE WAS UPDATED (TPSS_D5_wb97.gbw) ****
             **** DENSITY TPSS_D5_wb97.scfp WAS UPDATED ****
             **** ENERGY FILE WAS UPDATED (TPSS_D5_wb97.en.tmp) ****
             **** THE GBW FILE WAS UPDATED (TPSS_D5_wb97.gbw) ****
             **** DENSITY TPSS_D5_wb97.scfp WAS UPDATED ****
----------------
ORBITAL ENERGIES
----------------

  NO   OCC          E(Eh)            E(eV) 
   0   2.0000     -88.596519     -2410.8338 
   1   2.0000     -24.537543      -667.7005 
   2   2.0000     -18.903496      -514.3903 
   3   2.0000     -18.893654      -514.1225 
   4   2.0000     -14.073420      -382.9572 
   5   2.0000     -14.059963      -382.5910 
   6   2.0000     -10.050454      -273.4867 
   7   2.0000     -10.013838      -272.4904 
   8   2.0000     -10.000021      -272.1144 
   9   2.0000      -9.989421      -271.8260 
  10   2.0000      -9.987051      -271.7615 
  11   2.0000      -9.982064      -271.6258 
  12   2.0000      -9.978191      -271.5204 
  13   2.0000      -9.972617      -271.3687 
  14   2.0000      -9.966816      -271.2108 
  15   2.0000      -9.965921      -271.1865 
  16   2.0000      -9.854813      -268.1631 
  17   2.0000      -7.946123      -216.2250 
  18   2.0000      -5.929352      -161.3459 
  19   2.0000      -5.922805      -161.1677 
  20   2.0000      -5.922052      -161.1472 
  21   2.0000      -1.313679       -35.7470 
  22   2.0000      -1.039006       -28.2728 
  23   2.0000      -0.947548       -25.7841 
  24   2.0000      -0.870952       -23.6998 
  25   2.0000      -0.793481       -21.5917 
  26   2.0000      -0.784055       -21.3352 
  27   2.0000      -0.750490       -20.4219 
  28   2.0000      -0.722633       -19.6638 
  29   2.0000      -0.693513       -18.8715 
  30   2.0000      -0.669042       -18.2056 
  31   2.0000      -0.643319       -17.5056 
  32   2.0000      -0.615886       -16.7591 
  33   2.0000      -0.590629       -16.0718 
  34   2.0000      -0.570231       -15.5168 
  35   2.0000      -0.542981       -14.7753 
  36   2.0000      -0.539465       -14.6796 
  37   2.0000      -0.534074       -14.5329 
  38   2.0000      -0.526966       -14.3395 
  39   2.0000      -0.510674       -13.8962 
  40   2.0000      -0.501370       -13.6430 
  41   2.0000      -0.465295       -12.6613 
  42   2.0000      -0.457294       -12.4436 
  43   2.0000      -0.445665       -12.1272 
  44   2.0000      -0.432713       -11.7747 
  45   2.0000      -0.427015       -11.6197 
  46   2.0000      -0.419848       -11.4246 
  47   2.0000      -0.416859       -11.3433 
  48   2.0000      -0.403420       -10.9776 
  49   2.0000      -0.400171       -10.8892 
  50   2.0000      -0.389092       -10.5877 
  51   2.0000      -0.383673       -10.4403 
  52   2.0000      -0.371319       -10.1041 
  53   2.0000      -0.354337        -9.6420 
  54   2.0000      -0.347589        -9.4584 
  55   2.0000      -0.345650        -9.4056 
  56   2.0000      -0.336706        -9.1622 
  57   2.0000      -0.330559        -8.9950 
  58   2.0000      -0.319531        -8.6949 
  59   2.0000      -0.316319        -8.6075 
  60   2.0000      -0.314912        -8.5692 
  61   2.0000      -0.303930        -8.2704 
  62   2.0000      -0.300294        -8.1714 
  63   2.0000      -0.293261        -7.9800 
  64   2.0000      -0.286326        -7.7913 
  65   2.0000      -0.278048        -7.5661 
  66   2.0000      -0.274520        -7.4701 
  67   2.0000      -0.272806        -7.4234 
  68   2.0000      -0.267671        -7.2837 
  69   2.0000      -0.251585        -6.8460 
  70   2.0000      -0.186281        -5.0690 
  71   2.0000      -0.101309        -2.7568 
  72   0.0000      -0.013548        -0.3687 
  73   0.0000       0.007414         0.2017 
  74   0.0000       0.025468         0.6930 
  75   0.0000       0.028858         0.7853 
  76   0.0000       0.031508         0.8574 
  77   0.0000       0.034981         0.9519 
  78   0.0000       0.039195         1.0666 
  79   0.0000       0.051977         1.4144 
  80   0.0000       0.058873         1.6020 
  81   0.0000       0.065289         1.7766 
  82   0.0000       0.070360         1.9146 
  83   0.0000       0.075081         2.0431 
  84   0.0000       0.079807         2.1716 
  85   0.0000       0.082368         2.2413 
  86   0.0000       0.094716         2.5774 
  87   0.0000       0.099104         2.6968 
  88   0.0000       0.102150         2.7796 
  89   0.0000       0.108729         2.9587 
  90   0.0000       0.109928         2.9913 
  91   0.0000       0.113506         3.0887 
  92   0.0000       0.119108         3.2411 
  93   0.0000       0.128886         3.5072 
  94   0.0000       0.136838         3.7236 
  95   0.0000       0.145713         3.9650 
  96   0.0000       0.146616         3.9896 
  97   0.0000       0.154158         4.1949 
  98   0.0000       0.161251         4.3879 
  99   0.0000       0.164714         4.4821 
 100   0.0000       0.168243         4.5781 
 101   0.0000       0.172934         4.7058 
 102   0.0000       0.179738         4.8909 
 103   0.0000       0.182044         4.9537 
 104   0.0000       0.184193         5.0121 
 105   0.0000       0.194733         5.2990 
 106   0.0000       0.202182         5.5016 
 107   0.0000       0.206882         5.6295 
 108   0.0000       0.218880         5.9560 
 109   0.0000       0.222006         6.0411 
 110   0.0000       0.227875         6.2008 
 111   0.0000       0.229538         6.2461 
 112   0.0000       0.240637         6.5481 
 113   0.0000       0.243186         6.6174 
 114   0.0000       0.249066         6.7774 
 115   0.0000       0.256983         6.9928 
 116   0.0000       0.259776         7.0689 
 117   0.0000       0.262243         7.1360 
 118   0.0000       0.268261         7.2998 
 119   0.0000       0.277247         7.5443 
 120   0.0000       0.284992         7.7550 
 121   0.0000       0.287025         7.8103 
 122   0.0000       0.289410         7.8752 
 123   0.0000       0.297321         8.0905 
 124   0.0000       0.306537         8.3413 
 125   0.0000       0.313959         8.5433 
 126   0.0000       0.323347         8.7987 
 127   0.0000       0.330806         9.0017 
 128   0.0000       0.336863         9.1665 
 129   0.0000       0.341405         9.2901 
 130   0.0000       0.343104         9.3363 
 131   0.0000       0.354400         9.6437 
 132   0.0000       0.358841         9.7646 
 133   0.0000       0.363868         9.9014 
 134   0.0000       0.370259        10.0752 
 135   0.0000       0.376526        10.2458 
 136   0.0000       0.380437        10.3522 
 137   0.0000       0.383062        10.4236 
 138   0.0000       0.389965        10.6115 
 139   0.0000       0.394362        10.7311 
 140   0.0000       0.399365        10.8673 
 141   0.0000       0.401864        10.9353 
 142   0.0000       0.405777        11.0418 
 143   0.0000       0.410715        11.1761 
 144   0.0000       0.416398        11.3308 
 145   0.0000       0.422826        11.5057 
 146   0.0000       0.424359        11.5474 
 147   0.0000       0.425517        11.5789 
 148   0.0000       0.428359        11.6563 
 149   0.0000       0.432153        11.7595 
 150   0.0000       0.434535        11.8243 
 151   0.0000       0.437898        11.9158 
 152   0.0000       0.442320        12.0361 
 153   0.0000       0.444217        12.0878 
 154   0.0000       0.448559        12.2059 
 155   0.0000       0.452331        12.3086 
 156   0.0000       0.455240        12.3877 
 157   0.0000       0.456999        12.4356 
 158   0.0000       0.465310        12.6617 
 159   0.0000       0.470673        12.8077 
 160   0.0000       0.475837        12.9482 
 161   0.0000       0.479532        13.0487 
 162   0.0000       0.482424        13.1274 
 163   0.0000       0.488439        13.2911 
 164   0.0000       0.498102        13.5541 
 165   0.0000       0.501555        13.6480 
 166   0.0000       0.508116        13.8265 
 167   0.0000       0.512021        13.9328 
 168   0.0000       0.515805        14.0358 
 169   0.0000       0.525008        14.2862 
 170   0.0000       0.529259        14.4019 
 171   0.0000       0.538897        14.6641 
 172   0.0000       0.542067        14.7504 
 173   0.0000       0.546803        14.8793 
 174   0.0000       0.566027        15.4024 
 175   0.0000       0.570544        15.5253 
 176   0.0000       0.577877        15.7248 
 177   0.0000       0.582174        15.8418 
 178   0.0000       0.590945        16.0804 
 179   0.0000       0.602830        16.4038 
 180   0.0000       0.605678        16.4813 
 181   0.0000       0.610882        16.6229 
 182   0.0000       0.618214        16.8225 
 183   0.0000       0.629275        17.1235 
 184   0.0000       0.636065        17.3082 
 185   0.0000       0.646762        17.5993 
 186   0.0000       0.650406        17.6984 
 187   0.0000       0.661073        17.9887 
 188   0.0000       0.672121        18.2893 
 189   0.0000       0.676284        18.4026 
 190   0.0000       0.697187        18.9714 
 191   0.0000       0.706544        19.2260 
 192   0.0000       0.716977        19.5099 
 193   0.0000       0.719910        19.5897 
 194   0.0000       0.737814        20.0769 
 195   0.0000       0.743015        20.2185 
 196   0.0000       0.747798        20.3486 
 197   0.0000       0.751058        20.4373 
 198   0.0000       0.761974        20.7344 
 199   0.0000       0.768305        20.9066 
 200   0.0000       0.775445        21.1009 
 201   0.0000       0.780241        21.2314 
 202   0.0000       0.782799        21.3010 
 203   0.0000       0.792848        21.5745 
 204   0.0000       0.800718        21.7886 
 205   0.0000       0.807903        21.9842 
 206   0.0000       0.815709        22.1966 
 207   0.0000       0.828729        22.5509 
 208   0.0000       0.832174        22.6446 
 209   0.0000       0.833637        22.6844 
 210   0.0000       0.842398        22.9228 
 211   0.0000       0.846710        23.0402 
 212   0.0000       0.858977        23.3740 
 213   0.0000       0.863558        23.4986 
 214   0.0000       0.874038        23.7838 
 215   0.0000       0.881554        23.9883 
 216   0.0000       0.884426        24.0665 
 217   0.0000       0.909612        24.7518 
 218   0.0000       0.921235        25.0681 
 219   0.0000       0.924342        25.1526 
 220   0.0000       0.938069        25.5261 
 221   0.0000       0.951957        25.9041 
 222   0.0000       0.965676        26.2774 
 223   0.0000       0.975129        26.5346 
 224   0.0000       0.981919        26.7194 
 225   0.0000       0.982994        26.7486 
 226   0.0000       0.990574        26.9549 
 227   0.0000       1.005942        27.3731 
 228   0.0000       1.015318        27.6282 
 229   0.0000       1.023579        27.8530 
 230   0.0000       1.036484        28.2042 
 231   0.0000       1.046448        28.4753 
 232   0.0000       1.051079        28.6013 
 233   0.0000       1.066347        29.0168 
 234   0.0000       1.070270        29.1235 
 235   0.0000       1.071063        29.1451 
 236   0.0000       1.085984        29.5511 
 237   0.0000       1.089896        29.6576 
 238   0.0000       1.097196        29.8562 
 239   0.0000       1.119135        30.4532 
 240   0.0000       1.128472        30.7073 
 241   0.0000       1.135673        30.9032 
 242   0.0000       1.145366        31.1670 
 243   0.0000       1.159859        31.5614 
 244   0.0000       1.169160        31.8145 
 245   0.0000       1.171251        31.8714 
 246   0.0000       1.187879        32.3238 
 247   0.0000       1.196845        32.5678 
 248   0.0000       1.201550        32.6959 
 249   0.0000       1.208461        32.8839 
 250   0.0000       1.213772        33.0284 
 251   0.0000       1.227108        33.3913 
 252   0.0000       1.239505        33.7286 
 253   0.0000       1.243194        33.8290 
 254   0.0000       1.262890        34.3650 
 255   0.0000       1.268290        34.5119 
 256   0.0000       1.281278        34.8653 
 257   0.0000       1.299735        35.3676 
 258   0.0000       1.306304        35.5464 
 259   0.0000       1.314739        35.7759 
 260   0.0000       1.319038        35.8929 
 261   0.0000       1.322430        35.9852 
 262   0.0000       1.333967        36.2991 
 263   0.0000       1.345345        36.6087 
 264   0.0000       1.348784        36.7023 
 265   0.0000       1.360583        37.0234 
 266   0.0000       1.369771        37.2734 
 267   0.0000       1.390593        37.8399 
 268   0.0000       1.406362        38.2690 
 269   0.0000       1.427744        38.8509 
 270   0.0000       1.438422        39.1414 
 271   0.0000       1.439076        39.1593 
 272   0.0000       1.450150        39.4606 
 273   0.0000       1.469997        40.0007 
 274   0.0000       1.472802        40.0770 
 275   0.0000       1.485012        40.4092 
 276   0.0000       1.490972        40.5714 
 277   0.0000       1.504366        40.9359 
 278   0.0000       1.514195        41.2034 
 279   0.0000       1.518351        41.3164 
 280   0.0000       1.523839        41.4658 
 281   0.0000       1.531842        41.6835 
 282   0.0000       1.541163        41.9372 
 283   0.0000       1.552216        42.2379 
 284   0.0000       1.554091        42.2890 
 285   0.0000       1.557525        42.3824 
 286   0.0000       1.566836        42.6358 
 287   0.0000       1.572027        42.7770 
 288   0.0000       1.576210        42.8909 
 289   0.0000       1.587566        43.1999 
 290   0.0000       1.595312        43.4106 
 291   0.0000       1.604520        43.6612 
 292   0.0000       1.612850        43.8879 
 293   0.0000       1.614572        43.9347 
 294   0.0000       1.626037        44.2467 
 295   0.0000       1.629601        44.3437 
 296   0.0000       1.638570        44.5878 
 297   0.0000       1.644350        44.7450 
 298   0.0000       1.647024        44.8178 
 299   0.0000       1.657640        45.1067 
 300   0.0000       1.665539        45.3216 
 301   0.0000       1.673038        45.5257 
 302   0.0000       1.685862        45.8746 
 303   0.0000       1.691881        46.0384 
 304   0.0000       1.700597        46.2756 
 305   0.0000       1.712979        46.6125 
 306   0.0000       1.725513        46.9536 
 307   0.0000       1.729458        47.0610 
 308   0.0000       1.736961        47.2651 
 309   0.0000       1.741528        47.3894 
 310   0.0000       1.753310        47.7100 
 311   0.0000       1.766414        48.0666 
 312   0.0000       1.773141        48.2496 
 313   0.0000       1.781140        48.4673 
 314   0.0000       1.792260        48.7699 
 315   0.0000       1.797792        48.9204 
 316   0.0000       1.808667        49.2163 
 317   0.0000       1.817288        49.4509 
 318   0.0000       1.835461        49.9454 
 319   0.0000       1.838313        50.0230 
 320   0.0000       1.850860        50.3644 
 321   0.0000       1.866136        50.7801 
 322   0.0000       1.873968        50.9933 
 323   0.0000       1.880234        51.1638 
 324   0.0000       1.884163        51.2707 
 325   0.0000       1.893416        51.5225 
 326   0.0000       1.908786        51.9407 
 327   0.0000       1.914810        52.1046 
 328   0.0000       1.925977        52.4085 
 329   0.0000       1.929590        52.5068 
 330   0.0000       1.950438        53.0741 
 331   0.0000       1.952420        53.1281 
 332   0.0000       1.973806        53.7100 
 333   0.0000       1.978614        53.8408 
 334   0.0000       1.985166        54.0191 
 335   0.0000       1.993577        54.2480 
 336   0.0000       2.001023        54.4506 
 337   0.0000       2.002103        54.4800 
 338   0.0000       2.021130        54.9978 
 339   0.0000       2.029293        55.2199 
 340   0.0000       2.034372        55.3581 
 341   0.0000       2.040315        55.5198 
 342   0.0000       2.052667        55.8559 
 343   0.0000       2.067170        56.2505 
 344   0.0000       2.069263        56.3075 
 345   0.0000       2.092364        56.9361 
 346   0.0000       2.106454        57.3195 
 347   0.0000       2.114535        57.5394 
 348   0.0000       2.120924        57.7133 
 349   0.0000       2.132939        58.0402 
 350   0.0000       2.138004        58.1781 
 351   0.0000       2.165313        58.9212 
 352   0.0000       2.172563        59.1184 
 353   0.0000       2.187151        59.5154 
 354   0.0000       2.189537        59.5803 
 355   0.0000       2.196607        59.7727 
 356   0.0000       2.208194        60.0880 
 357   0.0000       2.214755        60.2666 
 358   0.0000       2.231487        60.7219 
 359   0.0000       2.238172        60.9038 
 360   0.0000       2.253738        61.3273 
 361   0.0000       2.266907        61.6857 
 362   0.0000       2.287111        62.2354 
 363   0.0000       2.294850        62.4461 
 364   0.0000       2.308503        62.8176 
 365   0.0000       2.319397        63.1140 
 366   0.0000       2.324074        63.2413 
 367   0.0000       2.329034        63.3762 
 368   0.0000       2.352484        64.0144 
 369   0.0000       2.358323        64.1732 
 370   0.0000       2.371967        64.5445 
 371   0.0000       2.376964        64.6805 
 372   0.0000       2.382911        64.8423 
 373   0.0000       2.392346        65.0991 
 374   0.0000       2.401311        65.3430 
 375   0.0000       2.426993        66.0418 
 376   0.0000       2.429207        66.1021 
 377   0.0000       2.440084        66.3981 
 378   0.0000       2.444030        66.5054 
 379   0.0000       2.451104        66.6979 
 380   0.0000       2.461319        66.9759 
 381   0.0000       2.471010        67.2396 
 382   0.0000       2.473397        67.3046 
 383   0.0000       2.482957        67.5647 
 384   0.0000       2.496266        67.9269 
 385   0.0000       2.503461        68.1226 
 386   0.0000       2.511903        68.3524 
 387   0.0000       2.515110        68.4396 
 388   0.0000       2.529408        68.8287 
 389   0.0000       2.535542        68.9956 
 390   0.0000       2.542425        69.1829 
 391   0.0000       2.547063        69.3091 
 392   0.0000       2.551324        69.4251 
 393   0.0000       2.557608        69.5960 
 394   0.0000       2.570115        69.9364 
 395   0.0000       2.579945        70.2039 
 396   0.0000       2.582485        70.2730 
 397   0.0000       2.593066        70.5609 
 398   0.0000       2.598350        70.7047 
 399   0.0000       2.612077        71.0782 
 400   0.0000       2.613948        71.1291 
 401   0.0000       2.621058        71.3226 
 402   0.0000       2.621818        71.3433 
 403   0.0000       2.629934        71.5641 
 404   0.0000       2.637220        71.7624 
 405   0.0000       2.640843        71.8610 
 406   0.0000       2.655369        72.2563 
 407   0.0000       2.662302        72.4449 
 408   0.0000       2.672368        72.7188 
 409   0.0000       2.675631        72.8076 
 410   0.0000       2.683652        73.0259 
 411   0.0000       2.687267        73.1243 
 412   0.0000       2.695471        73.3475 
 413   0.0000       2.700034        73.4717 
 414   0.0000       2.705017        73.6073 
 415   0.0000       2.715065        73.8807 
 416   0.0000       2.721282        74.0499 
 417   0.0000       2.724353        74.1334 
 418   0.0000       2.728824        74.2551 
 419   0.0000       2.734137        74.3996 
 420   0.0000       2.743019        74.6413 
 421   0.0000       2.753486        74.9262 
 422   0.0000       2.759291        75.0841 
 423   0.0000       2.764030        75.2131 
 424   0.0000       2.776455        75.5512 
 425   0.0000       2.781423        75.6864 
 426   0.0000       2.788334        75.8744 
 427   0.0000       2.799556        76.1798 
 428   0.0000       2.802602        76.2627 
 429   0.0000       2.814900        76.5973 
 430   0.0000       2.821539        76.7780 
 431   0.0000       2.828872        76.9775 
 432   0.0000       2.837208        77.2043 
 433   0.0000       2.854741        77.6815 
 434   0.0000       2.856456        77.7281 
 435   0.0000       2.867310        78.0235 
 436   0.0000       2.899533        78.9003 
 437   0.0000       2.907798        79.1252 
 438   0.0000       2.915301        79.3294 
 439   0.0000       2.916694        79.3673 
 440   0.0000       2.932503        79.7975 
 441   0.0000       2.958314        80.4998 
 442   0.0000       2.969389        80.8012 
 443   0.0000       2.980499        81.1035 
 444   0.0000       2.989225        81.3410 
 445   0.0000       3.002585        81.7045 
 446   0.0000       3.011532        81.9480 
 447   0.0000       3.016128        82.0730 
 448   0.0000       3.033329        82.5411 
 449   0.0000       3.038565        82.6836 
 450   0.0000       3.059595        83.2558 
 451   0.0000       3.069215        83.5176 
 452   0.0000       3.074407        83.6589 
 453   0.0000       3.087743        84.0218 
 454   0.0000       3.098084        84.3031 
 455   0.0000       3.116315        84.7992 
 456   0.0000       3.119565        84.8877 
 457   0.0000       3.125671        85.0538 
 458   0.0000       3.136267        85.3422 
 459   0.0000       3.149255        85.6956 
 460   0.0000       3.154460        85.8372 
 461   0.0000       3.166882        86.1752 
 462   0.0000       3.168682        86.2242 
 463   0.0000       3.170682        86.2786 
 464   0.0000       3.186283        86.7032 
 465   0.0000       3.189602        86.7935 
 466   0.0000       3.218560        87.5815 
 467   0.0000       3.222459        87.6876 
 468   0.0000       3.231256        87.9270 
 469   0.0000       3.234046        88.0029 
 470   0.0000       3.239568        88.1531 
 471   0.0000       3.259636        88.6992 
 472   0.0000       3.265818        88.8674 
 473   0.0000       3.267979        88.9262 
 474   0.0000       3.275076        89.1193 
 475   0.0000       3.287845        89.4668 
 476   0.0000       3.297896        89.7403 
 477   0.0000       3.306211        89.9666 
 478   0.0000       3.319646        90.3321 
 479   0.0000       3.325576        90.4935 
 480   0.0000       3.334031        90.7236 
 481   0.0000       3.339635        90.8761 
 482   0.0000       3.344143        90.9988 
 483   0.0000       3.352262        91.2197 
 484   0.0000       3.358954        91.4018 
 485   0.0000       3.367156        91.6250 
 486   0.0000       3.372070        91.7587 
 487   0.0000       3.375901        91.8629 
 488   0.0000       3.386469        92.1505 
 489   0.0000       3.392497        92.3145 
 490   0.0000       3.401932        92.5713 
 491   0.0000       3.414326        92.9085 
 492   0.0000       3.416440        92.9661 
 493   0.0000       3.428939        93.3062 
 494   0.0000       3.431308        93.3707 
 495   0.0000       3.440377        93.6174 
 496   0.0000       3.448262        93.8320 
 497   0.0000       3.451175        93.9112 
 498   0.0000       3.474574        94.5480 
 499   0.0000       3.489190        94.9457 
 500   0.0000       3.495936        95.1292 
 501   0.0000       3.498988        95.2123 
 502   0.0000       3.502990        95.3212 
 503   0.0000       3.512245        95.5731 
 504   0.0000       3.514548        95.6357 
 505   0.0000       3.526204        95.9529 
 506   0.0000       3.534289        96.1729 
 507   0.0000       3.549341        96.5825 
 508   0.0000       3.558808        96.8401 
 509   0.0000       3.567755        97.0836 
 510   0.0000       3.573941        97.2519 
 511   0.0000       3.583377        97.5087 
 512   0.0000       3.596144        97.8561 
 513   0.0000       3.606902        98.1488 
 514   0.0000       3.619102        98.4808 
 515   0.0000       3.641040        99.0777 
 516   0.0000       3.643580        99.1469 
 517   0.0000       3.656444        99.4969 
 518   0.0000       3.669369        99.8486 
 519   0.0000       3.678495       100.0969 
 520   0.0000       3.711598       100.9977 
 521   0.0000       3.723111       101.3110 
 522   0.0000       3.740913       101.7954 
 523   0.0000       3.762000       102.3692 
 524   0.0000       3.773407       102.6796 
 525   0.0000       3.790287       103.1390 
 526   0.0000       3.810380       103.6857 
 527   0.0000       3.818649       103.9107 
 528   0.0000       3.832372       104.2841 
 529   0.0000       3.842228       104.5523 
 530   0.0000       3.860556       105.0511 
 531   0.0000       3.870604       105.3245 
 532   0.0000       3.890998       105.8794 
 533   0.0000       3.906819       106.3100 
 534   0.0000       3.915534       106.5471 
 535   0.0000       3.927311       106.8676 
 536   0.0000       3.936156       107.1083 
 537   0.0000       3.946028       107.3769 
 538   0.0000       3.950459       107.4974 
 539   0.0000       3.961054       107.7858 
 540   0.0000       3.997173       108.7686 
 541   0.0000       4.008111       109.0662 
 542   0.0000       4.016687       109.2996 
 543   0.0000       4.024768       109.5195 
 544   0.0000       4.035125       109.8013 
 545   0.0000       4.057612       110.4132 
 546   0.0000       4.059662       110.4690 
 547   0.0000       4.079627       111.0123 
 548   0.0000       4.092584       111.3649 
 549   0.0000       4.103761       111.6690 
 550   0.0000       4.153201       113.0144 
 551   0.0000       4.178561       113.7044 
 552   0.0000       4.187026       113.9348 
 553   0.0000       4.213906       114.6662 
 554   0.0000       4.239017       115.3495 
 555   0.0000       4.251668       115.6938 
 556   0.0000       4.263544       116.0169 
 557   0.0000       4.309705       117.2730 
 558   0.0000       4.327921       117.7687 
 559   0.0000       4.335999       117.9885 
 560   0.0000       4.367976       118.8587 
 561   0.0000       4.388111       119.4066 
 562   0.0000       4.413035       120.0848 
 563   0.0000       4.416167       120.1700 
 564   0.0000       4.427497       120.4783 
 565   0.0000       4.442518       120.8871 
 566   0.0000       4.456293       121.2619 
 567   0.0000       4.488756       122.1452 
 568   0.0000       4.503457       122.5453 
 569   0.0000       4.561545       124.1260 
 570   0.0000       4.567262       124.2815 
 571   0.0000       4.582762       124.7033 
 572   0.0000       4.592522       124.9689 
 573   0.0000       4.624062       125.8271 
 574   0.0000       4.636292       126.1599 
 575   0.0000       4.655113       126.6721 
 576   0.0000       4.669457       127.0624 
 577   0.0000       4.676790       127.2619 
 578   0.0000       4.700867       127.9171 
 579   0.0000       4.703278       127.9827 
 580   0.0000       4.712246       128.2267 
 581   0.0000       4.731837       128.7598 
 582   0.0000       4.761046       129.5546 
 583   0.0000       4.770196       129.8036 
 584   0.0000       4.794457       130.4638 
 585   0.0000       4.803056       130.6978 
 586   0.0000       4.813801       130.9902 
 587   0.0000       4.829760       131.4244 
 588   0.0000       4.844082       131.8142 
 589   0.0000       4.870579       132.5352 
 590   0.0000       4.887019       132.9826 
 591   0.0000       4.896784       133.2483 
 592   0.0000       4.955232       134.8387 
 593   0.0000       4.970700       135.2596 
 594   0.0000       5.013901       136.4352 
 595   0.0000       5.023596       136.6990 
 596   0.0000       5.066858       137.8762 
 597   0.0000       5.079822       138.2290 
 598   0.0000       5.114975       139.1855 
 599   0.0000       5.117984       139.2674 
 600   0.0000       5.121390       139.3601 
 601   0.0000       5.135036       139.7314 
 602   0.0000       5.138839       139.8349 
 603   0.0000       5.153818       140.2425 
 604   0.0000       5.163108       140.4953 
 605   0.0000       5.174388       140.8022 
 606   0.0000       5.203713       141.6002 
 607   0.0000       5.218773       142.0100 
 608   0.0000       5.243710       142.6886 
 609   0.0000       5.263891       143.2378 
 610   0.0000       5.291429       143.9871 
 611   0.0000       5.320574       144.7802 
 612   0.0000       5.347049       145.5006 
 613   0.0000       5.364718       145.9814 
 614   0.0000       5.378196       146.3482 
 615   0.0000       5.401447       146.9808 
 616   0.0000       5.440749       148.0503 
 617   0.0000       5.456253       148.4722 
 618   0.0000       5.459439       148.5589 
 619   0.0000       5.483264       149.2072 
 620   0.0000       5.526179       150.3750 
 621   0.0000       5.543234       150.8391 
 622   0.0000       5.598261       152.3364 
 623   0.0000       5.656443       153.9196 
 624   0.0000       5.699363       155.0876 
 625   0.0000       5.891891       160.3265 
 626   0.0000       6.044688       164.4843 
 627   0.0000       6.180485       168.1795 
 628   0.0000       6.264482       170.4652 
 629   0.0000       6.277429       170.8175 
 630   0.0000       6.343943       172.6275 
 631   0.0000       6.423420       174.7901 
 632   0.0000       6.485979       176.4925 
 633   0.0000       6.586862       179.2376 
 634   0.0000       6.628004       180.3572 
 635   0.0000       6.700913       182.3411 
 636   0.0000       6.738610       183.3669 
 637   0.0000       6.780600       184.5095 
 638   0.0000       6.808627       185.2721 
 639   0.0000       6.819353       185.5640 
 640   0.0000       6.844013       186.2351 
 641   0.0000       6.851871       186.4489 
 642   0.0000       6.889576       187.4749 
 643   0.0000       6.895501       187.6361 
 644   0.0000       6.983926       190.0423 
 645   0.0000       7.041961       191.6215 
 646   0.0000       8.173152       222.4028 
 647   0.0000       8.181214       222.6222 
 648   0.0000       8.551560       232.6998 
 649   0.0000       8.573599       233.2995 
 650   0.0000       8.635076       234.9724 
 651   0.0000       9.287526       252.7264 
 652   0.0000       9.423146       256.4168 
 653   0.0000       9.664373       262.9809 
 654   0.0000      22.064603       600.4084 
 655   0.0000      22.350088       608.1768 
 656   0.0000      22.435914       610.5123 
 657   0.0000      22.448225       610.8473 
 658   0.0000      22.477714       611.6497 
 659   0.0000      22.488489       611.9429 
 660   0.0000      22.503823       612.3602 
 661   0.0000      22.521651       612.8453 
 662   0.0000      22.536704       613.2549 
 663   0.0000      22.567576       614.0950 
 664   0.0000      22.708909       617.9408 
 665   0.0000      23.442449       637.9015 
 666   0.0000      32.033314       871.6708 
 667   0.0000      32.723639       890.4555 
 668   0.0000      43.632837      1187.3099 
 669   0.0000      43.699238      1189.1167 
 670   0.0000      57.018892      1551.5629 

                    ********************************
                    * MULLIKEN POPULATION ANALYSIS *
                    ********************************

-----------------------
MULLIKEN ATOMIC CHARGES
-----------------------
   0 C :   -0.216753
   1 N :   -0.289769
   2 C :   -0.155552
   3 C :   -0.177305
   4 H :    0.124683
   5 H :    0.140197
   6 S :    0.785867
   7 C :    0.388244
   8 C :   -0.622392
   9 N :   -0.515494
  10 H :    0.220363
  11 H :    0.230275
  12 H :    0.235848
  13 H :    0.172319
  14 H :    0.073338
  15 O :   -0.384968
  16 F :   -0.064402
  17 C :   -0.027453
  18 H :    0.110606
  19 H :    0.095353
  20 C :   -0.191865
  21 C :   -0.281526
  22 H :    0.074094
  23 H :    0.143913
  24 H :    0.104446
  25 H :    0.131464
  26 C :   -0.231394
  27 H :    0.056964
  28 H :    0.092104
  29 C :   -0.243855
  30 H :    0.080024
  31 H :    0.125045
  32 C :   -0.067209
  33 H :    0.080549
  34 H :    0.101960
  35 H :    0.109401
  36 H :    0.081189
  37 H :    0.074413
  38 H :    0.082168
  39 O :   -0.444889
Sum of atomic charges:   -0.0000000

--------------------------------
MULLIKEN REDUCED ORBITAL CHARGES
--------------------------------
  0 C s       :     3.204728  s :     3.204728
      pz      :     0.803645  p :     2.873727
      px      :     0.990866
      py      :     1.079215
      dz2     :     0.022775  d :     0.129354
      dxz     :     0.046356
      dyz     :     0.024755
      dx2y2   :     0.011699
      dxy     :     0.023768
      f0      :     0.002064  f :     0.008945
      f+1     :     0.002557
      f-1     :     0.001408
      f+2     :     0.000572
      f-2     :     0.000531
      f+3     :     0.001070
      f-3     :     0.000743
  1 N s       :     3.441853  s :     3.441853
      pz      :     1.068138  p :     3.780686
      px      :     1.531924
      py      :     1.180624
      dz2     :     0.016694  d :     0.062748
      dxz     :     0.014327
      dyz     :     0.017903
      dx2y2   :     0.005578
      dxy     :     0.008247
      f0      :     0.000758  f :     0.004482
      f+1     :     0.000579
      f-1     :     0.000894
      f+2     :     0.000421
      f-2     :     0.000662
      f+3     :     0.000693
      f-3     :     0.000476
  2 C s       :     3.144432  s :     3.144432
      pz      :     0.960267  p :     2.901172
      px      :     0.918810
      py      :     1.022095
      dz2     :     0.018325  d :     0.103176
      dxz     :     0.031215
      dyz     :     0.023982
      dx2y2   :     0.012988
      dxy     :     0.016664
      f0      :     0.001292  f :     0.006772
      f+1     :     0.001644
      f-1     :     0.001058
      f+2     :     0.000560
      f-2     :     0.000530
      f+3     :     0.000865
      f-3     :     0.000824
  3 C s       :     3.155683  s :     3.155683
      pz      :     1.045127  p :     2.918832
      px      :     1.002343
      py      :     0.871361
      dz2     :     0.024450  d :     0.097024
      dxz     :     0.017124
      dyz     :     0.008138
      dx2y2   :     0.018468
      dxy     :     0.028843
      f0      :     0.001020  f :     0.005766
      f+1     :     0.000739
      f-1     :     0.000533
      f+2     :     0.000624
      f-2     :     0.000561
      f+3     :     0.001027
      f-3     :     0.001262
  4 H s       :     0.854431  s :     0.854431
      pz      :     0.005973  p :     0.020886
      px      :     0.008120
      py      :     0.006793
  5 H s       :     0.838816  s :     0.838816
      pz      :     0.011102  p :     0.020987
      px      :     0.004754
      py      :     0.005131
  6 S s       :     5.387867  s :     5.387867
      pz      :     2.810997  p :     8.579318
      px      :     2.767727
      py      :     3.000594
      dz2     :     0.249309  d :     1.126449
      dxz     :     0.261579
      dyz     :     0.196508
      dx2y2   :     0.252940
      dxy     :     0.166113
      f0      :     0.014633  f :     0.120499
      f+1     :     0.034082
      f-1     :     0.015087
      f+2     :     0.015015
      f-2     :     0.015203
      f+3     :     0.013390
      f-3     :     0.013089
  7 C s       :     2.988435  s :     2.988435
      pz      :     0.873376  p :     2.412199
      px      :     0.865064
      py      :     0.673758
      dz2     :     0.027862  d :     0.193021
      dxz     :     0.061744
      dyz     :     0.047984
      dx2y2   :     0.024181
      dxy     :     0.031249
      f0      :     0.001150  f :     0.018102
      f+1     :     0.002113
      f-1     :     0.005184
      f+2     :     0.002294
      f-2     :     0.002650
      f+3     :     0.002097
      f-3     :     0.002613
  8 C s       :     3.254210  s :     3.254210
      pz      :     0.886973  p :     3.321859
      px      :     1.339800
      py      :     1.095087
      dz2     :     0.008185  d :     0.040479
      dxz     :     0.011580
      dyz     :     0.014253
      dx2y2   :     0.004343
      dxy     :     0.002118
      f0      :     0.000832  f :     0.005845
      f+1     :     0.001640
      f-1     :     0.001362
      f+2     :     0.000904
      f-2     :     0.000245
      f+3     :     0.000333
      f-3     :     0.000530
  9 N s       :     3.476848  s :     3.476848
      pz      :     1.118708  p :     3.995202
      px      :     1.706694
      py      :     1.169800
      dz2     :     0.009210  d :     0.039762
      dxz     :     0.004514
      dyz     :     0.011611
      dx2y2   :     0.008024
      dxy     :     0.006404
      f0      :     0.000610  f :     0.003682
      f+1     :     0.000247
      f-1     :     0.000518
      f+2     :     0.000648
      f-2     :     0.000326
      f+3     :     0.000627
      f-3     :     0.000705
 10 H s       :     0.743746  s :     0.743746
      pz      :     0.016178  p :     0.035891
      px      :     0.012974
      py      :     0.006739
 11 H s       :     0.734850  s :     0.734850
      pz      :     0.009008  p :     0.034876
      px      :     0.012767
      py      :     0.013100
 12 H s       :     0.714982  s :     0.714982
      pz      :     0.010558  p :     0.049170
      px      :     0.017656
      py      :     0.020956
 13 H s       :     0.791436  s :     0.791436
      pz      :     0.007536  p :     0.036245
      px      :     0.009792
      py      :     0.018917
 14 H s       :     0.902896  s :     0.902896
      pz      :     0.006611  p :     0.023766
      px      :     0.009136
      py      :     0.008019
 15 O s       :     3.872371  s :     3.872371
      pz      :     1.616547  p :     4.477248
      px      :     1.329165
      py      :     1.531535
      dz2     :     0.004950  d :     0.033447
      dxz     :     0.006711
      dyz     :     0.004301
      dx2y2   :     0.009357
      dxy     :     0.008128
      f0      :     0.000166  f :     0.001903
      f+1     :     0.000295
      f-1     :     0.000141
      f+2     :     0.000212
      f-2     :     0.000331
      f+3     :     0.000400
      f-3     :     0.000357
 16 F s       :     3.902113  s :     3.902113
      pz      :     1.733026  p :     5.140242
      px      :     1.581086
      py      :     1.826130
      dz2     :     0.003651  d :     0.021113
      dxz     :     0.006603
      dyz     :     0.001693
      dx2y2   :     0.004847
      dxy     :     0.004320
      f0      :     0.000092  f :     0.000933
      f+1     :     0.000221
      f-1     :     0.000009
      f+2     :     0.000220
      f-2     :     0.000126
      f+3     :     0.000139
      f-3     :     0.000126
 17 C s       :     3.062527  s :     3.062527
      pz      :     0.960483  p :     2.858841
      px      :     0.925450
      py      :     0.972909
      dz2     :     0.027577  d :     0.099513
      dxz     :     0.010977
      dyz     :     0.009933
      dx2y2   :     0.020003
      dxy     :     0.031022
      f0      :     0.001261  f :     0.006572
      f+1     :     0.000663
      f-1     :     0.000615
      f+2     :     0.000761
      f-2     :     0.000636
      f+3     :     0.001223
      f-3     :     0.001414
 18 H s       :     0.869099  s :     0.869099
      pz      :     0.004747  p :     0.020295
      px      :     0.007227
      py      :     0.008321
 19 H s       :     0.884754  s :     0.884754
      pz      :     0.005471  p :     0.019893
      px      :     0.005906
      py      :     0.008516
 20 C s       :     3.170253  s :     3.170253
      pz      :     0.958941  p :     2.914259
      px      :     0.936418
      py      :     1.018900
      dz2     :     0.018090  d :     0.100787
      dxz     :     0.029652
      dyz     :     0.020009
      dx2y2   :     0.010115
      dxy     :     0.022921
      f0      :     0.001284  f :     0.006566
      f+1     :     0.001454
      f-1     :     0.001021
      f+2     :     0.000565
      f-2     :     0.000504
      f+3     :     0.000913
      f-3     :     0.000826
 21 C s       :     3.217750  s :     3.217750
      pz      :     0.936399  p :     2.960623
      px      :     0.973386
      py      :     1.050839
      dz2     :     0.019494  d :     0.096678
      dxz     :     0.024700
      dyz     :     0.020270
      dx2y2   :     0.007183
      dxy     :     0.025031
      f0      :     0.001326  f :     0.006475
      f+1     :     0.001490
[...]
      f0      :     0.004309  f :     0.032680
      f+1     :     0.003911
      f-1     :     0.003371
      f+2     :     0.003797
      f-2     :     0.004809
      f+3     :     0.005471
      f-3     :     0.007012
  4 H s       :     0.798962  s :     0.798962
      pz      :     0.018818  p :     0.062837
      px      :     0.024077
      py      :     0.019942
  5 H s       :     0.797884  s :     0.797884
      pz      :     0.035345  p :     0.062981
      px      :     0.013360
      py      :     0.014276
  6 S s       :     4.763886  s :     4.763886
      pz      :     2.844388  p :     8.571553
      px      :     2.801102
      py      :     2.926062
      dz2     :     0.408393  d :     1.768662
      dxz     :     0.422559
      dyz     :     0.279617
      dx2y2   :     0.390422
      dxy     :     0.267671
      f0      :     0.054688  f :     0.374245
      f+1     :     0.094220
      f-1     :     0.044618
      f+2     :     0.051592
      f-2     :     0.044438
      f+3     :     0.042764
      f-3     :     0.041925
  7 C s       :     2.694831  s :     2.694831
      pz      :     1.056773  p :     2.806717
      px      :     0.860685
      py      :     0.889259
      dz2     :     0.153740  d :     0.855379
      dxz     :     0.201108
      dyz     :     0.227258
      dx2y2   :     0.132868
      dxy     :     0.140405
      f0      :     0.012095  f :     0.116586
      f+1     :     0.010853
      f-1     :     0.032741
      f+2     :     0.015706
      f-2     :     0.017797
      f+3     :     0.012421
      f-3     :     0.014974
  8 C s       :     2.802515  s :     2.802515
      pz      :     1.054440  p :     3.290819
      px      :     1.196937
      py      :     1.039441
      dz2     :     0.059419  d :     0.226788
      dxz     :     0.037920
      dyz     :     0.106695
      dx2y2   :     0.017441
      dxy     :     0.005314
      f0      :     0.008987  f :     0.030667
      f+1     :     0.006723
      f-1     :     0.008131
      f+2     :     0.003120
      f-2     :     0.000810
      f+3     :     0.000952
      f-3     :     0.001944
  9 N s       :     2.979116  s :     2.979116
      pz      :     1.132499  p :     3.880848
      px      :     1.562980
      py      :     1.185369
      dz2     :     0.040171  d :     0.151305
      dxz     :     0.012729
      dyz     :     0.050767
      dx2y2   :     0.025243
      dxy     :     0.022396
      f0      :     0.001339  f :     0.011171
      f+1     :     0.000895
      f-1     :     0.002123
      f+2     :     0.001872
      f-2     :     0.001170
      f+3     :     0.001786
      f-3     :     0.001986
 10 H s       :     0.735292  s :     0.735292
      pz      :     0.053745  p :     0.110765
      px      :     0.038185
      py      :     0.018835
 11 H s       :     0.723926  s :     0.723926
      pz      :     0.031257  p :     0.106816
      px      :     0.035507
      py      :     0.040051
 12 H s       :     0.693427  s :     0.693427
      pz      :     0.030512  p :     0.140848
      px      :     0.050014
      py      :     0.060322
 13 H s       :     0.805540  s :     0.805540
      pz      :     0.022321  p :     0.111321
      px      :     0.029046
      py      :     0.059955
 14 H s       :     0.834328  s :     0.834328
      pz      :     0.020790  p :     0.077722
      px      :     0.027695
      py      :     0.029237
 15 O s       :     3.572888  s :     3.572888
      pz      :     1.598521  p :     4.579947
      px      :     1.450524
      py      :     1.530903
      dz2     :     0.009478  d :     0.071235
      dxz     :     0.014578
      dyz     :     0.008716
      dx2y2   :     0.015695
      dxy     :     0.022768
      f0      :     0.000524  f :     0.004528
      f+1     :     0.000529
      f-1     :     0.000272
      f+2     :     0.000474
      f-2     :     0.000939
      f+3     :     0.000665
      f-3     :     0.001125
 16 F s       :     3.657052  s :     3.657052
      pz      :     1.737135  p :     5.175941
      px      :     1.667902
      py      :     1.770904
      dz2     :     0.005649  d :     0.041232
      dxz     :     0.015594
      dyz     :     0.002398
      dx2y2   :     0.011102
      dxy     :     0.006489
      f0      :     0.000217  f :     0.001830
      f+1     :     0.000382
      f-1     :     0.000019
      f+2     :     0.000501
      f-2     :     0.000202
      f+3     :     0.000294
      f-3     :     0.000216
 17 C s       :     2.784615  s :     2.784615
      pz      :     1.009540  p :     3.046090
      px      :     1.021308
      py      :     1.015242
      dz2     :     0.106707  d :     0.397405
      dxz     :     0.046946
      dyz     :     0.041722
      dx2y2   :     0.085232
      dxy     :     0.116798
      f0      :     0.005417  f :     0.038703
      f+1     :     0.003659
      f-1     :     0.003264
      f+2     :     0.006409
      f-2     :     0.005767
      f+3     :     0.006528
      f-3     :     0.007660
 18 H s       :     0.811190  s :     0.811190
      pz      :     0.012611  p :     0.058408
      px      :     0.019834
      py      :     0.025963
 19 H s       :     0.823356  s :     0.823356
      pz      :     0.014960  p :     0.057990
      px      :     0.016145
      py      :     0.026886
 20 C s       :     2.775864  s :     2.775864
      pz      :     1.013904  p :     3.041897
      px      :     1.008685
      py      :     1.019308
      dz2     :     0.088960  d :     0.406789
      dxz     :     0.106227
      dyz     :     0.072062
      dx2y2   :     0.052907
      dxy     :     0.086634
      f0      :     0.006157  f :     0.039450
      f+1     :     0.008909
      f-1     :     0.005820
      f+2     :     0.004249
      f-2     :     0.005405
      f+3     :     0.004479
      f-3     :     0.004431
 21 C s       :     2.773159  s :     2.773159
      pz      :     0.992842  p :     3.048087
      px      :     1.024911
      py      :     1.030334
      dz2     :     0.094007  d :     0.404242
      dxz     :     0.099788
      dyz     :     0.071960
      dx2y2   :     0.047740
      dxy     :     0.090747
      f0      :     0.006670  f :     0.040054
      f+1     :     0.009041
      f-1     :     0.006075
      f+2     :     0.004393
      f-2     :     0.005016
      f+3     :     0.004768
      f-3     :     0.004091
 22 H s       :     0.808821  s :     0.808821
      pz      :     0.015937  p :     0.057951
      px      :     0.018551
      py      :     0.023463
 23 H s       :     0.797653  s :     0.797653
      pz      :     0.015125  p :     0.063279
      px      :     0.017387
      py      :     0.030767
 24 H s       :     0.797305  s :     0.797305
      pz      :     0.014879  p :     0.058469
      px      :     0.013631
      py      :     0.029958
 25 H s       :     0.791203  s :     0.791203
      pz      :     0.016282  p :     0.059833
      px      :     0.020604
      py      :     0.022947
 26 C s       :     2.775052  s :     2.775052
      pz      :     1.028624  p :     3.045671
      px      :     1.015103
      py      :     1.001944
      dz2     :     0.115277  d :     0.403178
      dxz     :     0.020986
      dyz     :     0.072969
      dx2y2   :     0.122638
      dxy     :     0.071309
      f0      :     0.004377  f :     0.039632
      f+1     :     0.003057
      f-1     :     0.006581
      f+2     :     0.005483
      f-2     :     0.006633
      f+3     :     0.006823
      f-3     :     0.006679
 27 H s       :     0.812317  s :     0.812317
      pz      :     0.032081  p :     0.058185
      px      :     0.013216
      py      :     0.012888
 28 H s       :     0.807113  s :     0.807113
      pz      :     0.015236  p :     0.059441
      px      :     0.019010
      py      :     0.025195
 29 C s       :     2.776322  s :     2.776322
      pz      :     1.016275  p :     3.045297
      px      :     1.022053
      py      :     1.006969
      dz2     :     0.115893  d :     0.406185
      dxz     :     0.020378
      dyz     :     0.071716
      dx2y2   :     0.125332
      dxy     :     0.072865
      f0      :     0.004270  f :     0.039320
      f+1     :     0.003498
      f-1     :     0.006375
      f+2     :     0.005165
      f-2     :     0.006397
      f+3     :     0.006797
      f-3     :     0.006818
 30 H s       :     0.808904  s :     0.808904
      pz      :     0.014033  p :     0.058001
      px      :     0.031263
      py      :     0.012706
 31 H s       :     0.800619  s :     0.800619
      pz      :     0.033388  p :     0.060378
      px      :     0.013934
      py      :     0.013056
 32 C s       :     2.778897  s :     2.778897
      pz      :     1.008982  p :     3.039636
      px      :     1.019179
      py      :     1.011476
      dz2     :     0.091497  d :     0.403563
      dxz     :     0.067039
      dyz     :     0.109635
      dx2y2   :     0.084875
      dxy     :     0.050516
      f0      :     0.006121  f :     0.038780
      f+1     :     0.006692
      f-1     :     0.007691
      f+2     :     0.004402
      f-2     :     0.005433
      f+3     :     0.004942
      f-3     :     0.003498
 33 H s       :     0.809675  s :     0.809675
      pz      :     0.031220  p :     0.057796
      px      :     0.013805
      py      :     0.012770
 34 H s       :     0.810660  s :     0.810660
      pz      :     0.013843  p :     0.059428
      px      :     0.032257
      py      :     0.013328
 35 H s       :     0.804652  s :     0.804652
      pz      :     0.017181  p :     0.058637
      px      :     0.018358
      py      :     0.023098
 36 H s       :     0.810558  s :     0.810558
      pz      :     0.014161  p :     0.057929
      px      :     0.015556
      py      :     0.028212
 37 H s       :     0.810155  s :     0.810155
      pz      :     0.016992  p :     0.057833
      px      :     0.016911
      py      :     0.023929
 38 H s       :     0.808310  s :     0.808310
      pz      :     0.013679  p :     0.057739
      px      :     0.031211
      py      :     0.012849
 39 O s       :     3.569750  s :     3.569750
      pz      :     1.436879  p :     4.622246
      px      :     1.599092
      py      :     1.586274
      dz2     :     0.033603  d :     0.067509
      dxz     :     0.012479
      dyz     :     0.016570
      dx2y2   :     0.001670
      dxy     :     0.003188
      f0      :     0.001952  f :     0.004417
      f+1     :     0.000831
      f-1     :     0.001159
      f+2     :     0.000217
      f-2     :     0.000191
      f+3     :     0.000045
      f-3     :     0.000022


                      *****************************
                      * MAYER POPULATION ANALYSIS *
                      *****************************

  NA   - Mulliken gross atomic population
  ZA   - Total nuclear charge
  QA   - Mulliken gross atomic charge
  VA   - Mayer's total valence
  BVA  - Mayer's bonded valence
  FA   - Mayer's free valence

  ATOM       NA         ZA         QA         VA         BVA        FA
  0 C      6.2168     6.0000    -0.2168     4.0723     4.0723    -0.0000
  1 N      7.2898     7.0000    -0.2898     3.1648     3.1648    -0.0000
  2 C      6.1556     6.0000    -0.1556     3.9712     3.9712     0.0000
  3 C      6.1773     6.0000    -0.1773     3.9290     3.9290     0.0000
  4 H      0.8753     1.0000     0.1247     0.9786     0.9786    -0.0000
  5 H      0.8598     1.0000     0.1402     0.9687     0.9687    -0.0000
  6 S     15.2141    16.0000     0.7859     5.8578     5.8578    -0.0000
  7 C      5.6118     6.0000     0.3882     3.9159     3.9159    -0.0000
  8 C      6.6224     6.0000    -0.6224     3.7651     3.7651    -0.0000
  9 N      7.5155     7.0000    -0.5155     3.0838     3.0838    -0.0000
 10 H      0.7796     1.0000     0.2204     0.9569     0.9569     0.0000
 11 H      0.7697     1.0000     0.2303     0.9581     0.9581    -0.0000
 12 H      0.7642     1.0000     0.2358     0.9679     0.9679    -0.0000
 13 H      0.8277     1.0000     0.1723     1.0309     1.0309     0.0000
 14 H      0.9267     1.0000     0.0733     1.0016     1.0016     0.0000
 15 O      8.3850     8.0000    -0.3850     2.0535     2.0535    -0.0000
 16 F      9.0644     9.0000    -0.0644     1.2831     1.2831    -0.0000
 17 C      6.0275     6.0000    -0.0275     3.7680     3.7680    -0.0000
 18 H      0.8894     1.0000     0.1106     0.9832     0.9832    -0.0000
 19 H      0.9046     1.0000     0.0954     0.9612     0.9612    -0.0000
 20 C      6.1919     6.0000    -0.1919     4.0099     4.0099    -0.0000
 21 C      6.2815     6.0000    -0.2815     4.0829     4.0829    -0.0000
 22 H      0.9259     1.0000     0.0741     0.9698     0.9698    -0.0000
 23 H      0.8561     1.0000     0.1439     0.9729     0.9729    -0.0000
 24 H      0.8956     1.0000     0.1044     0.9647     0.9647     0.0000
 25 H      0.8685     1.0000     0.1315     0.9888     0.9888     0.0000
 26 C      6.2314     6.0000    -0.2314     4.0432     4.0432    -0.0000
 27 H      0.9430     1.0000     0.0570     0.9831     0.9831    -0.0000
 28 H      0.9079     1.0000     0.0921     0.9983     0.9983    -0.0000
 29 C      6.2439     6.0000    -0.2439     4.0228     4.0228     0.0000
 30 H      0.9200     1.0000     0.0800     0.9662     0.9662    -0.0000
 31 H      0.8750     1.0000     0.1250     0.9831     0.9831    -0.0000
 32 C      6.0672     6.0000    -0.0672     3.9212     3.9212     0.0000
 33 H      0.9195     1.0000     0.0805     0.9710     0.9710     0.0000
 34 H      0.8980     1.0000     0.1020     0.9700     0.9700    -0.0000
 35 H      0.8906     1.0000     0.1094     0.9716     0.9716     0.0000
 36 H      0.9188     1.0000     0.0812     0.9672     0.9672    -0.0000
 37 H      0.9256     1.0000     0.0744     0.9721     0.9721    -0.0000
 38 H      0.9178     1.0000     0.0822     0.9732     0.9732    -0.0000
 39 O      8.4449     8.0000    -0.4449     1.9932     1.9932     0.0000

  Mayer bond orders larger than 0.100000
B(  0-C ,  1-N ) :   0.9971 B(  0-C , 17-C ) :   0.9829 B(  0-C , 18-H ) :   0.9659 
B(  0-C , 19-H ) :   0.9598 B(  1-N ,  7-C ) :   1.2020 B(  1-N , 12-H ) :   0.8689 
B(  2-C ,  3-C ) :   1.0112 B(  2-C , 21-C ) :   1.0456 B(  2-C , 24-H ) :   0.9272 
B(  2-C , 25-H ) :   0.9390 B(  3-C ,  4-H ) :   0.9223 B(  3-C ,  5-H ) :   0.9238 
B(  3-C ,  6-S ) :   0.9253 B(  6-S , 15-O ) :   1.8650 B(  6-S , 16-F ) :   1.1743 
B(  6-S , 39-O ) :   1.7816 B(  7-C ,  8-C ) :   1.5945 B(  7-C ,  9-N ) :   1.1060 
B(  8-C , 13-H ) :   0.9876 B(  8-C , 14-H ) :   0.9848 B(  9-N , 10-H ) :   0.9136 
B(  9-N , 11-H ) :   0.9197 B( 17-C , 26-C ) :   1.0156 B( 17-C , 27-H ) :   0.9323 
B( 17-C , 28-H ) :   0.9346 B( 20-C , 21-C ) :   1.0366 B( 20-C , 32-C ) :   1.0207 
B( 20-C , 35-H ) :   0.9589 B( 20-C , 36-H ) :   0.9389 B( 21-C , 22-H ) :   0.9427 
B( 21-C , 23-H ) :   0.9460 B( 26-C , 29-C ) :   1.0310 B( 26-C , 30-H ) :   0.9410 
B( 26-C , 31-H ) :   0.9503 B( 29-C , 32-C ) :   1.0156 B( 29-C , 33-H ) :   0.9359 
B( 29-C , 34-H ) :   0.9656 B( 32-C , 37-H ) :   0.9463 B( 32-C , 38-H ) :   0.9439 


-------
TIMINGS
-------

Total SCF time: 0 days 0 hours 0 min 29 sec 

Total time                  ....      29.934 sec
Sum of individual times     ....      28.206 sec  ( 94.2%)

Fock matrix formation       ....      22.158 sec  ( 74.0%)
  Split-RI-J                ....       7.922 sec  ( 35.8% of F)
  XC integration            ....      13.743 sec  ( 62.0% of F)
    Basis function eval.    ....       2.023 sec  ( 14.7% of XC)
    Density eval.           ....       5.365 sec  ( 39.0% of XC)
    XC-Functional eval.     ....       0.391 sec  (  2.8% of XC)
    XC-Potential eval.      ....       4.883 sec  ( 35.5% of XC)
Diagonalization             ....       1.454 sec  (  4.9%)
Density matrix formation    ....       0.105 sec  (  0.4%)
Population analysis         ....       0.152 sec  (  0.5%)
Initial guess               ....       0.986 sec  (  3.3%)
Orbital Transformation      ....       0.000 sec  (  0.0%)
Orbital Orthonormalization  ....       0.000 sec  (  0.0%)
DIIS solution               ....       0.783 sec  (  2.6%)
SOSCF solution              ....       1.240 sec  (  4.1%)
Grid generation             ....       1.327 sec  (  4.4%)

Maximum memory used throughout the entire SCF-calculation: 104.6 MB


-------------------------------------------------------------------------------
                          DFT DISPERSION CORRECTION                            
                                                                               
                              DFTD3 V3.1  Rev 1                                
                          USING Becke-Johnson damping                          
-------------------------------------------------------------------------------
The TPSS functional is recognized
Active option DFTDOPT                   ...         4   

molecular C6(AA) [au] = 13770.515290 


            DFT-D V3
 parameters
 s6 scaling factor         :     1.0000 
 a1 scaling factor         :     0.4535 
 s8 scaling factor         :     1.9435 
 a2 scaling factor         :     4.4752 
 ad hoc parameters k1-k3   :    16.0000     1.3333    -4.0000 

 Edisp/kcal,au: -38.288646389346  -0.061016835423 
 E6   /kcal   : -20.016383995 
 E8   /kcal   : -18.272262395 
 % E8         :  47.722403683 

-------------------------   ----------------
Dispersion correction           -0.061016835
-------------------------   ----------------


-------------------------   --------------------
FINAL SINGLE POINT ENERGY     -1191.428039672163
-------------------------   --------------------


                            ***************************************
                            *     ORCA property calculations      *
                            ***************************************

                                    ---------------------
                                    Active property flags
                                    ---------------------
   (+) Dipole Moment


------------------------------------------------------------------------------
                       ORCA ELECTRIC PROPERTIES CALCULATION
------------------------------------------------------------------------------

Dipole Moment Calculation                       ... on
Quadrupole Moment Calculation                   ... off
Polarizability Calculation                      ... off
GBWName                                         ... TPSS_D5_wb97.gbw
Electron density file                           ... TPSS_D5_wb97.scfp
The origin for moment calculation is the CENTER OF MASS  = ( 8.524657, -1.074254 -8.852513)

-------------
DIPOLE MOMENT
-------------
                                X             Y             Z
Electronic contribution:    -20.61278       2.75930     -20.20101
Nuclear contribution   :     20.03262      -4.53368      20.24480
                        -----------------------------------------
Total Dipole Moment    :     -0.58016      -1.77439       0.04378
                        -----------------------------------------
Magnitude (a.u.)       :      1.86734
Magnitude (Debye)      :      4.74639



--------------------
Rotational spectrum 
--------------------
 
Rotational constants in cm-1:     0.014367     0.012055     0.007393 
Rotational constants in MHz :   430.711297   361.391195   221.649333 

 Dipole components along the rotational axes: 
x,y,z [a.u.] :    -0.888465     1.492827     0.684867 
x,y,z [Debye]:    -2.258297     3.794464     1.740794 

 

Timings for individual modules:

Sum of individual times         ...       32.317 sec (=   0.539 min)
GTO integral calculation        ...        1.950 sec (=   0.032 min)   6.0 %
SCF iterations                  ...       30.368 sec (=   0.506 min)  94.0 %
                             ****ORCA TERMINATED NORMALLY****
TOTAL RUN TIME: 0 days 0 hours 0 minutes 33 seconds 63 msec
