
                                        *****************
                                        * O   R   C   A *
                                        *****************

                                            #,                                       
                                            ###                                      
                                            ####                                     
                                            #####                                    
                                            ######                                   
                                           ########,                                 
                                     ,,################,,,,,                         
                               ,,#################################,,                 
                          ,,##########################################,,             
                       ,#########################################, ''#####,          
                    ,#############################################,,   '####,        
                  ,##################################################,,,,####,       
                ,###########''''           ''''###############################       
              ,#####''   ,,,,##########,,,,          '''####'''          '####       
            ,##' ,,,,###########################,,,                        '##       
           ' ,,###''''                  '''############,,,                           
         ,,##''                                '''############,,,,        ,,,,,,###''
      ,#''                                            '''#######################'''  
     '                                                          ''''####''''         
             ,#######,   #######,   ,#######,      ##                                
            ,#'     '#,  ##    ##  ,#'     '#,    #''#        ######   ,####,        
            ##       ##  ##   ,#'  ##            #'  '#       #        #'  '#        
            ##       ##  #######   ##           ,######,      #####,   #    #        
            '#,     ,#'  ##    ##  '#,     ,#' ,#      #,         ##   #,  ,#        
             '#######'   ##     ##  '#######'  #'      '#     #####' # '####'        



                  #######################################################
                  #                        -***-                        #
                  #          Department of theory and spectroscopy      #
                  #    Directorship and core code : Frank Neese         #
                  #        Max Planck Institute fuer Kohlenforschung    #
                  #                Kaiser Wilhelm Platz 1               #
                  #                 D-45470 Muelheim/Ruhr               #
                  #                      Germany                        #
                  #                                                     #
                  #                  All rights reserved                #
                  #                        -***-                        #
                  #######################################################


                         Program Version 5.0.0 -  RELEASE  -
                                (SVN: $Rev: 19529$)
                ($Date: 2021-06-28 11:36:33 +0200 (Mo, 28 Jun 2021) $)


 With contributions from (in alphabetic order):
   Daniel Aravena         : Magnetic Suceptibility
   Michael Atanasov       : Ab Initio Ligand Field Theory (pilot matlab implementation)
   Alexander A. Auer      : GIAO ZORA, VPT2 properties, NMR spectrum
   Ute Becker             : Parallelization
   Giovanni Bistoni       : ED, misc. LED, open-shell LED, HFLD
   Martin Brehm           : Molecular dynamics
   Dmytro Bykov           : SCF Hessian
   Vijay G. Chilkuri      : MRCI spin determinant printing, contributions to CSF-ICE
   Dipayan Datta          : RHF DLPNO-CCSD density
   Achintya Kumar Dutta   : EOM-CC, STEOM-CC
   Dmitry Ganyushin       : Spin-Orbit,Spin-Spin,Magnetic field MRCI
   Miquel Garcia          : C-PCM Hessian, Gaussian charge scheme
   Yang Guo               : DLPNO-NEVPT2, F12-NEVPT2, CIM, IAO-localization
   Andreas Hansen         : Spin unrestricted coupled pair/coupled cluster methods
   Benjamin Helmich-Paris : MC-RPA, TRAH-SCF, COSX integrals
   Lee Huntington         : MR-EOM, pCC
   Robert Izsak           : Overlap fitted RIJCOSX, COSX-SCS-MP3, EOM
   Marcus Kettner         : VPT2
   Christian Kollmar      : KDIIS, OOCD, Brueckner-CCSD(T), CCSD density, CASPT2, CASPT2-K
   Simone Kossmann        : Meta GGA functionals, TD-DFT gradient, OOMP2, MP2 Hessian
   Martin Krupicka        : Initial AUTO-CI
   Lucas Lang             : DCDCAS
   Marvin Lechner         : AUTO-CI (C++ implementation), FIC-MRCC
   Dagmar Lenk            : GEPOL surface, SMD
   Dimitrios Liakos       : Extrapolation schemes; Compound Job, initial MDCI parallelization
   Dimitrios Manganas     : Further ROCIS development; embedding schemes
   Dimitrios Pantazis     : SARC Basis sets
   Anastasios Papadopoulos: AUTO-CI, single reference methods and gradients
   Taras Petrenko         : DFT Hessian,TD-DFT gradient, ASA, ECA, R-Raman, ABS, FL, XAS/XES, NRVS
   Peter Pinski           : DLPNO-MP2, DLPNO-MP2 Gradient
   Christoph Reimann      : Effective Core Potentials
   Marius Retegan         : Local ZFS, SOC
   Christoph Riplinger    : Optimizer, TS searches, QM/MM, DLPNO-CCSD(T), (RO)-DLPNO pert. Triples
   Tobias Risthaus        : Range-separated hybrids, TD-DFT gradient, RPA, STAB
   Michael Roemelt        : Original ROCIS implementation
   Masaaki Saitow         : Open-shell DLPNO-CCSD energy and density
   Barbara Sandhoefer     : DKH picture change effects
   Avijit Sen             : IP-ROCIS
   Kantharuban Sivalingam : CASSCF convergence, NEVPT2, FIC-MRCI
   Bernardo de Souza      : ESD, SOC TD-DFT
   Georgi Stoychev        : AutoAux, RI-MP2 NMR
   Willem Van den Heuvel  : Paramagnetic NMR
   Boris Wezisla          : Elementary symmetry handling
   Frank Wennmohs         : Technical directorship


 We gratefully acknowledge several colleagues who have allowed us to
 interface, adapt or use parts of their codes:
   Stefan Grimme, W. Hujo, H. Kruse, P. Pracht,  : VdW corrections, initial TS optimization,
                  C. Bannwarth, S. Ehlert          DFT functionals, gCP, sTDA/sTD-DF
   Ed Valeev, F. Pavosevic, A. Kumar             : LibInt (2-el integral package), F12 methods
   Garnet Chan, S. Sharma, J. Yang, R. Olivares  : DMRG
   Ulf Ekstrom                                   : XCFun DFT Library
   Mihaly Kallay                                 : mrcc  (arbitrary order and MRCC methods)
   Jiri Pittner, Ondrej Demel                    : Mk-CCSD
   Frank Weinhold                                : gennbo (NPA and NBO analysis)
   Christopher J. Cramer and Donald G. Truhlar   : smd solvation model
   Lars Goerigk                                  : TD-DFT with DH, B97 family of functionals
   V. Asgeirsson, H. Jonsson                     : NEB implementation
   FAccTs GmbH                                   : IRC, NEB, NEB-TS, DLPNO-Multilevel, CI-OPT
                                                   MM, QMMM, 2- and 3-layer-ONIOM, Crystal-QMMM,
                                                   LR-CPCM, SF, NACMEs, symmetry and pop. for TD-DFT,
                                                   nearIR, NL-DFT gradient (VV10), updates on ESD,
                                                   ML-optimized integration grids
   S Lehtola, MJT Oliveira, MAL Marques          : LibXC Library
   Liviu Ungur et al                             : ANISO software


 Your calculation uses the libint2 library for the computation of 2-el integrals
 For citations please refer to: http://libint.valeyev.net

 Your ORCA version has been built with support for libXC version: 5.1.0
 For citations please refer to: https://tddft.org/programs/libxc/

 This ORCA versions uses:
   CBLAS   interface :  Fast vector & matrix operations
   LAPACKE interface :  Fast linear algebra routines
   SCALAPACK package :  Parallel linear algebra routines
   Shared memory     :  Shared parallel matrices
   BLAS/LAPACK       :  OpenBLAS 0.3.15  USE64BITINT DYNAMIC_ARCH NO_AFFINITY Haswell SINGLE_THREADED
        Core in use  :  Haswell
   Copyright (c) 2011-2014, The OpenBLAS Project


Your calculation utilizes the atom-pairwise dispersion correction
with the zero-damping scheme (D30)
Cite in your paper:
S.Grimme, J.Antony, S.Ehrlich and H.Krieg, J.Chem.Phys., 132, (2010), 154104 
   

XCFun DFT library Copyright 2009-2010 Ulf Ekstrom and contributors.
See http://admol.org/xcfun for more information.
This is free software; see the source code for copying conditions.
There is ABSOLUTELY NO WARRANTY; not even for MERCHANTABILITY or FITNESS FOR A PARTICULAR PURPOSE.
For details see the documentation.
Scientific users of this library should cite U. Ekstrom, L. Visscher, R. Bast, A. J. Thorvaldsen and K. Ruud;
J.Chem.Theor.Comp. 2010, DOI: 10.1021/ct100117s
XCFun Version 0.99 

================================================================================

----- Orbital basis set information -----
Your calculation utilizes the basis: def2-SVPD
   F. Weigend and R. Ahlrichs, Phys. Chem. Chem. Phys. 7, 3297 (2005).
   D. Rappoport and F. Furche, J. Chem. Phys. 133 134105 (2010).

----- AuxJ basis set information -----
Your calculation utilizes the auxiliary basis: def2/J
   F. Weigend, Phys. Chem. Chem. Phys. 8, 1057 (2006).

================================================================================
                                        WARNINGS
                       Please study these warnings very carefully!
================================================================================


INFO   : the flag for use of the SHARK integral package has been found!

================================================================================
                                       INPUT FILE
================================================================================
NAME = C1_wt_wb97_typm1_neg.com
|  1> !wB97X-D3 RIJCOSX def2-SVPD def2/J TightSCF CPCM(Water) 
|  2> *xyz 0 1 
|  3> C         -0.71189        0.84252       -4.21834
|  4> C         -0.39762       -0.20587       -5.28802
|  5> F          0.61717       -0.00535       -5.99827
|  6> O         -1.13317       -1.22138       -5.34147
|  7> H         -0.00939        1.64646       -4.28960
|  8> H         -0.64409        0.39449       -3.24902
|  9> H         -1.70192        1.21961       -4.36851
| 10> *
| 11> 
| 12> %MaxCore 64000
| 13> 
| 14> %pal nprocs 18
| 15> end  
| 16> 
| 17> %scf
| 18>   MaxIter 150
| 19> end
| 20> 
| 21> 
| 22>                          ****END OF INPUT****
================================================================================

                       ****************************
                       * Single Point Calculation *
                       ****************************

---------------------------------
CARTESIAN COORDINATES (ANGSTROEM)
---------------------------------
  C     -0.711890    0.842520   -4.218340
  C     -0.397620   -0.205870   -5.288020
  F      0.617170   -0.005350   -5.998270
  O     -1.133170   -1.221380   -5.341470
  H     -0.009390    1.646460   -4.289600
  H     -0.644090    0.394490   -3.249020
  H     -1.701920    1.219610   -4.368510

----------------------------
CARTESIAN COORDINATES (A.U.)
----------------------------
  NO LB      ZA    FRAG     MASS         X           Y           Z
   0 C     6.0000    0    12.011   -1.345277    1.592132   -7.971507
   1 C     6.0000    0    12.011   -0.751393   -0.389038   -9.992910
   2 F     9.0000    0    18.998    1.166282   -0.010110  -11.335088
   3 O     8.0000    0    15.999   -2.141381   -2.308074  -10.093915
   4 H     1.0000    0     1.008   -0.017745    3.111358   -8.106169
   5 H     1.0000    0     1.008   -1.217154    0.745478   -6.139758
   6 H     1.0000    0     1.008   -3.216163    2.304729   -8.255288

--------------------------------
INTERNAL COORDINATES (ANGSTROEM)
--------------------------------
 C      0   0   0     0.000000000000     0.00000000     0.00000000
 C      1   0   0     1.530392932354     0.00000000     0.00000000
 F      2   1   0     1.254775707846   116.88744745     0.00000000
 O      2   1   3     1.255050303813   117.62698629   176.69010279
 H      1   2   3     1.070001757569   109.47127787     3.30993646
 H      1   2   3     1.070004197796   109.47130423   243.30997867
 H      1   2   3     1.070003410228   109.47116059   123.31006799

---------------------------
INTERNAL COORDINATES (A.U.)
---------------------------
 C      0   0   0     0.000000000000     0.00000000     0.00000000
 C      1   0   0     2.892023519438     0.00000000     0.00000000
 F      2   1   0     2.371182447326   116.88744745     0.00000000
 O      2   1   3     2.371701358500   117.62698629   176.69010279
 H      1   2   3     2.022010284619   109.47127787     3.30993646
 H      1   2   3     2.022014895980   109.47130423   243.30997867
 H      1   2   3     2.022013407693   109.47116059   123.31006799

---------------------
BASIS SET INFORMATION
---------------------
There are 4 groups of distinct atoms

 Group   1 Type C   : 8s4p2d contracted to 4s2p2d pattern {5111/31/11}
 Group   2 Type F   : 8s5p2d contracted to 4s3p2d pattern {5111/311/11}
 Group   3 Type O   : 8s5p2d contracted to 4s3p2d pattern {5111/311/11}
 Group   4 Type H   : 4s2p contracted to 2s2p pattern {31/11}

Atom   0C    basis set group =>   1
Atom   1C    basis set group =>   1
Atom   2F    basis set group =>   2
Atom   3O    basis set group =>   3
Atom   4H    basis set group =>   4
Atom   5H    basis set group =>   4
Atom   6H    basis set group =>   4
---------------------------------
AUXILIARY/J BASIS SET INFORMATION
---------------------------------
There are 4 groups of distinct atoms

 Group   1 Type C   : 12s5p4d2f1g contracted to 6s4p3d1f1g pattern {711111/2111/211/2/1}
 Group   2 Type F   : 12s5p4d2f1g contracted to 6s4p3d1f1g pattern {711111/2111/211/2/1}
 Group   3 Type O   : 12s5p4d2f1g contracted to 6s4p3d1f1g pattern {711111/2111/211/2/1}
 Group   4 Type H   : 5s2p1d contracted to 3s1p1d pattern {311/2/1}

Atom   0C    basis set group =>   1
Atom   1C    basis set group =>   1
Atom   2F    basis set group =>   2
Atom   3O    basis set group =>   3
Atom   4H    basis set group =>   4
Atom   5H    basis set group =>   4
Atom   6H    basis set group =>   4


           ************************************************************
           *        Program running with 18 parallel MPI-processes    *
           *              working on a common directory               *
           ************************************************************
------------------------------------------------------------------------------
                           ORCA GTO INTEGRAL CALCULATION
                           -- RI-GTO INTEGRALS CHOSEN --
------------------------------------------------------------------------------
------------------------------------------------------------------------------
                   ___                                                        
                  /   \      - P O W E R E D   B Y -                         
                 /     \                                                     
                 |  |  |   _    _      __       _____    __    __             
                 |  |  |  | |  | |    /  \     |  _  \  |  |  /  |          
                  \  \/   | |  | |   /    \    | | | |  |  | /  /          
                 / \  \   | |__| |  /  /\  \   | |_| |  |  |/  /          
                |  |  |   |  __  | /  /__\  \  |    /   |      \           
                |  |  |   | |  | | |   __   |  |    \   |  |\   \          
                \     /   | |  | | |  |  |  |  | |\  \  |  | \   \       
                 \___/    |_|  |_| |__|  |__|  |_| \__\ |__|  \__/        
                                                                              
                      - O R C A' S   B I G   F R I E N D -                    
                                      &                                       
                       - I N T E G R A L  F E E D E R -                       
                                                                              
 v1 FN, 2020, v2 2021                                                         
------------------------------------------------------------------------------


Reading SHARK input file C1_wt_wb97_typm1_neg.SHARKINP.tmp ... ok
----------------------
SHARK INTEGRAL PACKAGE
----------------------

Number of atoms                             ...      7
Number of basis functions                   ...    110
Number of shells                            ...     46
Maximum angular momentum                    ...      2
Integral batch strategy                     ... SHARK/LIBINT Hybrid
RI-J (if used) integral strategy            ... SPLIT-RIJ (Revised 2003 algorithm where possible)
Printlevel                                  ...      1
Contraction scheme used                     ... SEGMENTED contraction
Coulomb Range Separation                    ... NOT USED
Exchange Range Separation                   ... Long Range
   Mu parameter                             ...  0.250000
   Scaling (regular/separated)              ...  0.195728  0.804272
Finite Nucleus Model                        ... NOT USED
Auxiliary Coulomb fitting basis             ... AVAILABLE
   # of basis functions in Aux-J            ...    229
   # of shells in Aux-J                     ...     75
   Maximum angular momentum in Aux-J        ...      4
Auxiliary J/K fitting basis                 ... NOT available
Auxiliary Correlation fitting basis         ... NOT available
Auxiliary 'external' fitting basis          ... NOT available
Integral threshold                          ...     2.500000e-11
Primitive cut-off                           ...     2.500000e-12
Primitive pair pre-selection threshold      ...     2.500000e-12

Calculating pre-screening integrals         ... done (  0.0 sec) Dimension = 46
Organizing shell pair data                  ... done (  0.0 sec)
Shell pair information
Total number of shell pairs                 ...      1081
Shell pairs after pre-screening             ...      1078
Total number of primitive shell pairs       ...      2987
Primitive shell pairs kept                  ...      2620
          la=0 lb=0:    250 shell pairs
          la=1 lb=0:    352 shell pairs
          la=1 lb=1:    136 shell pairs
          la=2 lb=0:    176 shell pairs
          la=2 lb=1:    128 shell pairs
          la=2 lb=2:     36 shell pairs

Calculating one electron integrals          ... done (  0.0 sec)
Calculating RI/J V-Matrix + Cholesky decomp.... done (  0.0 sec)
Calculating Nuclear repulsion               ... done (  0.0 sec) ENN=    118.955674945513 Eh

SHARK setup successfully completed in   0.1 seconds

Maximum memory used throughout the entire GTOINT-calculation: 8.8 MB


           ************************************************************
           *        Program running with 18 parallel MPI-processes    *
           *              working on a common directory               *
           ************************************************************
-------------------------------------------------------------------------------
                                 ORCA SCF
-------------------------------------------------------------------------------

------------
SCF SETTINGS
------------
Hamiltonian:
 Density Functional     Method          .... DFT(GTOs)
 Exchange Functional    Exchange        .... WB97X-D3
 Correlation Functional Correlation     .... WB97X-D3
 Gradients option       PostSCFGGA      .... off
 Hybrid DFT is turned on
   Fraction HF Exchange ScalHFX         ....  0.195728
   Scaling of DF-GGA-X  ScalDFX         ....  0.000000
   Scaling of DF-GGA-C  ScalDFC         ....  1.000000
   Scaling of DF-LDA-C  ScalLDAC        ....  1.000000
   Perturbative correction              ....  0.000000
   Density functional embedding theory  .... OFF
 Long-range corrected/Screened/Range-Separated Hybrid DFT is turned on
   Amount of maximum screened exact exchange              ....  0.804272
   Range separation parameter mu (erf(mu*r12)/r12)        ....  0.250000
 RI-approximation to the Coulomb term is turned on
   Number of AuxJ basis functions       .... 229
   RIJ-COSX (HFX calculated with COS-X)).... on


General Settings:
 Integral files         IntName         .... C1_wt_wb97_typm1_neg
 Hartree-Fock type      HFTyp           .... RHF
 Total Charge           Charge          ....    0
 Multiplicity           Mult            ....    1
 Number of Electrons    NEL             ....   32
 Basis Dimension        Dim             ....  110
 Nuclear Repulsion      ENuc            ....    118.9556749455 Eh

Convergence Acceleration:
 DIIS                   CNVDIIS         .... on
   Start iteration      DIISMaxIt       ....    12
   Startup error        DIISStart       ....  0.200000
   # of expansion vecs  DIISMaxEq       ....     5
   Bias factor          DIISBfac        ....   1.050
   Max. coefficient     DIISMaxC        ....  10.000
 Trust-Rad. Augm. Hess. CNVTRAH         .... auto
   Auto Start mean grad. ratio tolernc. ....  1.125000
   Auto Start start iteration           ....    20
   Auto Start num. interpolation iter.  ....    10
   Max. Number of Micro iterations      ....    16
   Max. Number of Macro iterations      .... Maxiter - #DIIS iter
   Number of Davidson start vectors     ....     2
   Converg. threshold I  (grad. norm)   ....   1.000e-05
   Converg. threshold II (energy diff.) ....   1.000e-08
   Grad. Scal. Fac. for Micro threshold ....   0.100
   Minimum threshold for Micro iter.    ....   0.010
   NR start threshold (gradient norm)   ....   0.001
   Initial trust radius                 ....   0.400
   Minimum AH scaling param. (alpha)    ....   1.000
   Maximum AH scaling param. (alpha)    .... 1000.000
   Orbital update algorithm             .... Taylor
   White noise on init. David. guess    .... on
   Maximum white noise                  ....   0.010
   Quad. conv. algorithm                .... NR
 SOSCF                  CNVSOSCF        .... on
   Start iteration      SOSCFMaxIt      ....   150
   Startup grad/error   SOSCFStart      ....  0.003300
 Level Shifting         CNVShift        .... on
   Level shift para.    LevelShift      ....    0.2500
   Turn off err/grad.   ShiftErr        ....    0.0010
 Zerner damping         CNVZerner       .... off
 Static damping         CNVDamp         .... on
   Fraction old density DampFac         ....    0.7000
   Max. Damping (<1)    DampMax         ....    0.9800
   Min. Damping (>=0)   DampMin         ....    0.0000
   Turn off err/grad.   DampErr         ....    0.1000
 Fernandez-Rico         CNVRico         .... off

SCF Procedure:
 Maximum # iterations   MaxIter         ....   150
 SCF integral mode      SCFMode         .... Direct
   Integral package                     .... SHARK and LIBINT hybrid scheme
 Reset frequency        DirectResetFreq ....    20
 Integral Threshold     Thresh          ....  2.500e-11 Eh
 Primitive CutOff       TCut            ....  2.500e-12 Eh

Convergence Tolerance:
 Convergence Check Mode ConvCheckMode   .... Total+1el-Energy
 Convergence forced     ConvForced      .... 0
 Energy Change          TolE            ....  1.000e-08 Eh
 1-El. energy change                    ....  1.000e-05 Eh
 Orbital Gradient       TolG            ....  1.000e-05
 Orbital Rotation angle TolX            ....  1.000e-05
 DIIS Error             TolErr          ....  5.000e-07


Diagonalization of the overlap matrix:
Smallest eigenvalue                        ... 3.174e-04
Time for diagonalization                   ...    0.004 sec
Threshold for overlap eigenvalues          ... 1.000e-08
Number of eigenvalues below threshold      ... 0
Time for construction of square roots      ...    0.007 sec
Total time needed                          ...    0.012 sec

Time for model grid setup =    0.032 sec

------------------------------
INITIAL GUESS: MODEL POTENTIAL
------------------------------
Loading Hartree-Fock densities                     ... done
Calculating cut-offs                               ... done
Initializing the effective Hamiltonian             ... done
Setting up the integral package (SHARK)            ... done
Starting the Coulomb interaction                   ... done (   0.0 sec)
Reading the grid                                   ... done
Mapping shells                                     ... done
Starting the XC term evaluation                    ... done (   0.0 sec)
  promolecular density results
     # of electrons  =     31.999879086
     EX              =    -29.248852614
     EC              =     -1.067777318
     EX+EC           =    -30.316629932
Transforming the Hamiltonian                       ... done (   0.0 sec)
Diagonalizing the Hamiltonian                      ... done (   0.0 sec)
Back transforming the eigenvectors                 ... done (   0.0 sec)
Now organizing SCF variables                       ... done
                      ------------------
                      INITIAL GUESS DONE (   0.1 sec)
                      ------------------
-------------------
DFT GRID GENERATION
-------------------

General Integration Accuracy     IntAcc      ... 4.388
Radial Grid Type                 RadialGrid  ... OptM3 with GC (2021)
Angular Grid (max. ang.)         AngularGrid ... 4 (Lebedev-302)
Angular grid pruning method      GridPruning ... 4 (adaptive)
Weight generation scheme         WeightScheme... Becke
Basis function cutoff            BFCut       ... 1.0000e-11
Integration weight cutoff        WCut        ... 1.0000e-14
Angular grids for H and He will be reduced by one unit
Partially contracted basis set               ... off
Rotationally invariant grid construction     ... off

Total number of grid points                  ...    35450
Total number of batches                      ...      556
Average number of points per batch           ...       63
Average number of grid points per atom       ...     5064
Time for grid setup =    0.193 sec

--------------------
COSX GRID GENERATION
--------------------

GRIDX 1
-------
General Integration Accuracy     IntAcc      ... 3.816
Radial Grid Type                 RadialGrid  ... OptM3 with GC (2021)
Angular Grid (max. ang.)         AngularGrid ... 1 (Lebedev-50)
Angular grid pruning method      GridPruning ... 4 (adaptive)
Weight generation scheme         WeightScheme... Becke
Basis function cutoff            BFCut       ... 1.0000e-11
Integration weight cutoff        WCut        ... 1.0000e-14
Angular grids for H and He will be reduced by one unit
Partially contracted basis set               ... on
Rotationally invariant grid construction     ... off

Total number of grid points                  ...     4459
Total number of batches                      ...       73
Average number of points per batch           ...       61
Average number of grid points per atom       ...      637
UseSFitting                                  ... on

GRIDX 2
-------
General Integration Accuracy     IntAcc      ... 4.020
Radial Grid Type                 RadialGrid  ... OptM3 with GC (2021)
Angular Grid (max. ang.)         AngularGrid ... 2 (Lebedev-110)
Angular grid pruning method      GridPruning ... 4 (adaptive)
Weight generation scheme         WeightScheme... Becke
Basis function cutoff            BFCut       ... 1.0000e-11
Integration weight cutoff        WCut        ... 1.0000e-14
Angular grids for H and He will be reduced by one unit
Partially contracted basis set               ... on
Rotationally invariant grid construction     ... off

Total number of grid points                  ...    10861
Total number of batches                      ...      174
Average number of points per batch           ...       62
Average number of grid points per atom       ...     1552
UseSFitting                                  ... on

GRIDX 3
-------
General Integration Accuracy     IntAcc      ... 4.338
Radial Grid Type                 RadialGrid  ... OptM3 with GC (2021)
Angular Grid (max. ang.)         AngularGrid ... 3 (Lebedev-194)
Angular grid pruning method      GridPruning ... 4 (adaptive)
Weight generation scheme         WeightScheme... Becke
Basis function cutoff            BFCut       ... 1.0000e-11
Integration weight cutoff        WCut        ... 1.0000e-14
Angular grids for H and He will be reduced by one unit
Partially contracted basis set               ... on
Rotationally invariant grid construction     ... off

Total number of grid points                  ...    24416
Total number of batches                      ...      386
Average number of points per batch           ...       63
Average number of grid points per atom       ...     3488
UseSFitting                                  ... on

Time for X-Grid setup             =    0.155 sec


--------------------
CPCM SOLVATION MODEL
--------------------
CPCM parameters:
  Epsilon                                         ...      80.4000
  Refrac                                          ...       1.3300
  Rsolv                                           ...       1.3000
  Surface type                                    ... GAUSSIAN VDW
  Epsilon function type                           ...         CPCM
Radii:
 Radius for C  used is    3.8550 Bohr (=   2.0400 Ang.)
 Radius for F  used is    3.3335 Bohr (=   1.7640 Ang.)
 Radius for O  used is    3.4469 Bohr (=   1.8240 Ang.)
 Radius for H  used is    2.4944 Bohr (=   1.3200 Ang.)
Calculating surface                               ...        done! (  0.0s)
GEPOL surface points                              ...          467
GEPOL Volume                                      ...     501.4606
GEPOL Surface-area                                ...     334.4290
Calculating surface distance matrix               ...        done! (  0.0s)
Performing Cholesky decomposition & store         ...        done! (  0.0s)
Overall time for CPCM initialization              ...                 0.0s
--------------
SCF ITERATIONS
--------------
ITER       Energy         Delta-E        Max-DP      RMS-DP      [F,P]     Damp
               ***  Starting incremental Fock matrix formation  ***
  0   -252.7025493002   0.000000000000 0.10549244  0.00321494  0.2535023 0.7000
  1   -252.7671185295  -0.064569229312 0.06290400  0.00203469  0.1111665 0.7000
                               ***Turning on DIIS***
  2   -252.7937915824  -0.026673052931 0.12810303  0.00369408  0.0476986 0.0000
  3   -252.8381598124  -0.044368230007 0.04562834  0.00145725  0.0595086 0.0000
  4   -252.8458374592  -0.007677646748 0.01372496  0.00036229  0.0100820 0.0000
                      *** Initiating the SOSCF procedure ***
                           *** Shutting down DIIS ***
                      *** Re-Reading the Fockian *** 
                      *** Removing any level shift *** 
ITER      Energy       Delta-E        Grad      Rot      Max-DP    RMS-DP
  5   -252.84613872  -0.0003012607  0.000843  0.000843  0.002506  0.000104
               *** Restarting incremental Fock matrix formation ***
  6   -252.84614915  -0.0000104340  0.000529  0.001036  0.001642  0.000059
  7   -252.84615396  -0.0000048096  0.000189  0.000784  0.001156  0.000043
  8   -252.84615498  -0.0000010179  0.000106  0.000073  0.000342  0.000012
  9   -252.84615518  -0.0000001941  0.000022  0.000045  0.000127  0.000005
 10   -252.84615519  -0.0000000102  0.000027  0.000045  0.000035  0.000001
 11   -252.84615519  -0.0000000058  0.000007  0.000005  0.000020  0.000001
 12   -252.84615519  -0.0000000005  0.000004  0.000003  0.000013  0.000000
                  ***Gradient check signals convergence***
              ***Rediagonalizing the Fockian in SOSCF/NRSCF***

               *****************************************************
               *                     SUCCESS                       *
               *           SCF CONVERGED AFTER  13 CYCLES          *
               *****************************************************

Old exchange energy                            =     -9.262984150 Eh
New exchange energy                            =     -9.262972120 Eh
Exchange energy change after final integration =      0.000012029 Eh
Total energy after final integration           =   -252.846143163 Eh
Final COS-X integration done in                =     0.296 sec

----------------
TOTAL SCF ENERGY
----------------

Total Energy       :         -252.84614316 Eh           -6880.29334 eV

Components:
Nuclear Repulsion  :          118.95567495 Eh            3236.94848 eV
Electronic Energy  :         -371.80181811 Eh          -10117.24182 eV
One Electron Energy:         -581.95429168 Eh          -15835.78135 eV
Two Electron Energy:          210.15247357 Eh            5718.53953 eV
Max COSX asymmetry :            0.00000234 Eh               0.00006 eV
CPCM Dielectric    :           -0.01048198 Eh              -0.28523 eV

Virial components:
Potential Energy   :         -503.51612584 Eh          -13701.37035 eV
Kinetic Energy     :          250.66998267 Eh            6821.07701 eV
Virial Ratio       :            2.00868138


DFT components:
N(Alpha)           :       16.000033325791 electrons
N(Beta)            :       16.000033325791 electrons
N(Total)           :       32.000066651582 electrons
E(XC)              :      -21.619152883764 Eh       
DFET-embed. en.    :        0.000000000000 Eh       
CPCM Solvation Model Properties:
Surface-charge          :           -0.01297912
Charge-correction       :           -0.00008834 Eh              -0.00240 eV
Free-energy (cav+disp)  :  This term is not implemented in the current solvation scheme

---------------
SCF CONVERGENCE
---------------

  Last Energy change         ...   -1.7164e-10  Tolerance :   1.0000e-08
  Last MAX-Density change    ...    9.9226e-16  Tolerance :   1.0000e-07
  Last RMS-Density change    ...    3.3506e-17  Tolerance :   5.0000e-09
  Last Orbital Gradient      ...    7.0633e-07  Tolerance :   1.0000e-05
  Last Orbital Rotation      ...    1.7749e-06  Tolerance :   1.0000e-05

             **** THE GBW FILE WAS UPDATED (C1_wt_wb97_typm1_neg.gbw) ****
             **** DENSITY C1_wt_wb97_typm1_neg.scfp WAS UPDATED ****
             **** ENERGY FILE WAS UPDATED (C1_wt_wb97_typm1_neg.en.tmp) ****
             **** THE GBW FILE WAS UPDATED (C1_wt_wb97_typm1_neg.gbw) ****
             **** DENSITY C1_wt_wb97_typm1_neg.scfp WAS UPDATED ****
----------------
ORBITAL ENERGIES
----------------

  NO   OCC          E(Eh)            E(eV) 
   0   2.0000     -24.877462      -676.9502 
   1   2.0000     -19.263743      -524.1931 
   2   2.0000     -10.484835      -285.3069 
   3   2.0000     -10.301826      -280.3269 
   4   2.0000      -1.427811       -38.8527 
   5   2.0000      -1.151779       -31.3415 
   6   2.0000      -0.872826       -23.7508 
   7   2.0000      -0.768363       -20.9082 
   8   2.0000      -0.658875       -17.9289 
   9   2.0000      -0.651734       -17.7346 
  10   2.0000      -0.613431       -16.6923 
  11   2.0000      -0.533355       -14.5133 
  12   2.0000      -0.522496       -14.2179 
  13   2.0000      -0.503650       -13.7050 
  14   2.0000      -0.459258       -12.4970 
  15   2.0000      -0.404324       -11.0022 
  16   0.0000       0.050876         1.3844 
  17   0.0000       0.091185         2.4813 
  18   0.0000       0.131064         3.5664 
  19   0.0000       0.152522         4.1503 
  20   0.0000       0.161176         4.3858 
  21   0.0000       0.178179         4.8485 
  22   0.0000       0.188765         5.1366 
  23   0.0000       0.209963         5.7134 
  24   0.0000       0.211937         5.7671 
  25   0.0000       0.232883         6.3371 
  26   0.0000       0.244119         6.6428 
  27   0.0000       0.261653         7.1199 
  28   0.0000       0.272097         7.4041 
  29   0.0000       0.281976         7.6729 
  30   0.0000       0.321607         8.7514 
  31   0.0000       0.332113         9.0373 
  32   0.0000       0.349861         9.5202 
  33   0.0000       0.383336        10.4311 
  34   0.0000       0.419343        11.4109 
  35   0.0000       0.420314        11.4373 
  36   0.0000       0.422433        11.4950 
  37   0.0000       0.438753        11.9391 
  38   0.0000       0.449622        12.2348 
  39   0.0000       0.458903        12.4874 
  40   0.0000       0.474662        12.9162 
  41   0.0000       0.489911        13.3311 
  42   0.0000       0.495818        13.4919 
  43   0.0000       0.504414        13.7258 
  44   0.0000       0.513520        13.9736 
  45   0.0000       0.543972        14.8022 
  46   0.0000       0.559332        15.2202 
  47   0.0000       0.564735        15.3672 
  48   0.0000       0.584127        15.8949 
  49   0.0000       0.605040        16.4640 
  50   0.0000       0.609264        16.5789 
  51   0.0000       0.681545        18.5458 
  52   0.0000       0.698902        19.0181 
  53   0.0000       0.705858        19.2074 
  54   0.0000       0.710644        19.3376 
  55   0.0000       0.716835        19.5061 
  56   0.0000       0.772642        21.0247 
  57   0.0000       0.803173        21.8555 
  58   0.0000       0.821597        22.3568 
  59   0.0000       0.840652        22.8753 
  60   0.0000       0.850557        23.1448 
  61   0.0000       0.907349        24.6902 
  62   0.0000       0.926573        25.2133 
  63   0.0000       0.934757        25.4360 
  64   0.0000       0.995708        27.0946 
  65   0.0000       1.057270        28.7698 
  66   0.0000       1.070120        29.1195 
  67   0.0000       1.084828        29.5197 
  68   0.0000       1.109135        30.1811 
  69   0.0000       1.110851        30.2278 
  70   0.0000       1.193144        32.4671 
  71   0.0000       1.285143        34.9705 
  72   0.0000       1.312849        35.7244 
  73   0.0000       1.564209        42.5643 
  74   0.0000       1.597910        43.4813 
  75   0.0000       1.628786        44.3215 
  76   0.0000       1.648852        44.8675 
  77   0.0000       1.662838        45.2481 
  78   0.0000       1.737928        47.2914 
  79   0.0000       1.765390        48.0387 
  80   0.0000       1.828838        49.7652 
  81   0.0000       1.868594        50.8470 
  82   0.0000       1.898511        51.6611 
  83   0.0000       1.944554        52.9140 
  84   0.0000       2.037848        55.4527 
  85   0.0000       2.043236        55.5993 
  86   0.0000       2.099907        57.1414 
  87   0.0000       2.104218        57.2587 
  88   0.0000       2.117494        57.6200 
  89   0.0000       2.265033        61.6347 
  90   0.0000       2.301053        62.6148 
  91   0.0000       2.312822        62.9351 
  92   0.0000       2.397622        65.2426 
  93   0.0000       2.454146        66.7807 
  94   0.0000       2.591884        70.5288 
  95   0.0000       2.688505        73.1579 
  96   0.0000       2.702740        73.5453 
  97   0.0000       2.945432        80.1493 
  98   0.0000       2.954113        80.3855 
  99   0.0000       3.008917        81.8768 
 100   0.0000       3.134691        85.2993 
 101   0.0000       3.175183        86.4011 
 102   0.0000       3.175865        86.4197 
 103   0.0000       3.326169        90.5097 
 104   0.0000       3.405445        92.6669 
 105   0.0000       3.431992        93.3892 
 106   0.0000       3.573800        97.2480 
 107   0.0000       3.633447        98.8711 
 108   0.0000       3.836467       104.3956 
 109   0.0000       4.172816       113.5481 

                    ********************************
                    * MULLIKEN POPULATION ANALYSIS *
                    ********************************

-----------------------
MULLIKEN ATOMIC CHARGES
-----------------------
   0 C :    0.228442
   1 C :    0.434227
   2 F :   -0.349607
   3 O :   -0.530643
   4 H :    0.037421
   5 H :    0.092840
   6 H :    0.087321
Sum of atomic charges:    0.0000000

--------------------------------
MULLIKEN REDUCED ORBITAL CHARGES
--------------------------------
  0 C s       :     2.598816  s :     2.598816
      pz      :     1.045217  p :     3.096476
      px      :     1.067010
      py      :     0.984249
      dz2     :     0.011445  d :     0.076266
      dxz     :     0.012565
      dyz     :     0.016293
      dx2y2   :     0.022260
      dxy     :     0.013703
  1 C s       :     2.988326  s :     2.988326
      pz      :     0.746709  p :     2.283407
      px      :     0.690468
      py      :     0.846231
      dz2     :     0.068182  d :     0.294040
      dxz     :     0.043510
      dyz     :     0.051944
      dx2y2   :     0.052777
      dxy     :     0.077627
  2 F s       :     3.994445  s :     3.994445
      pz      :     1.773252  p :     5.329089
      px      :     1.617342
      py      :     1.938495
      dz2     :     0.004874  d :     0.026074
      dxz     :     0.007023
      dyz     :     0.005129
      dx2y2   :     0.005760
      dxy     :     0.003288
  3 O s       :     3.886601  s :     3.886601
      pz      :     1.694427  p :     4.610759
      px      :     1.522136
      py      :     1.394195
      dz2     :     0.000976  d :     0.033284
      dxz     :     0.006033
      dyz     :     0.008488
      dx2y2   :     0.014111
      dxy     :     0.003676
  4 H s       :     0.873401  s :     0.873401
      pz      :     0.010272  p :     0.089179
      px      :     0.048967
      py      :     0.029940
  5 H s       :     0.845552  s :     0.845552
      pz      :     0.051778  p :     0.061608
      px      :    -0.019159
      py      :     0.028989
  6 H s       :     0.849612  s :     0.849612
      pz      :    -0.003360  p :     0.063067
      px      :     0.059052
      py      :     0.007375


                     *******************************
                     * LOEWDIN POPULATION ANALYSIS *
                     *******************************

----------------------
LOEWDIN ATOMIC CHARGES
----------------------
   0 C :    0.220443
   1 C :   -0.018183
   2 F :   -0.035860
   3 O :   -0.190032
   4 H :   -0.002310
   5 H :    0.013710
   6 H :    0.012231

-------------------------------
LOEWDIN REDUCED ORBITAL CHARGES
-------------------------------
  0 C s       :     2.698016  s :     2.698016
      pz      :     0.909872  p :     2.776873
      px      :     0.955616
      py      :     0.911385
      dz2     :     0.073794  d :     0.304669
      dxz     :     0.033173
      dyz     :     0.076099
      dx2y2   :     0.049227
      dxy     :     0.072374
  1 C s       :     2.660225  s :     2.660225
      pz      :     0.715290  p :     2.296497
      px      :     0.732453
      py      :     0.848755
      dz2     :     0.181821  d :     1.061461
      dxz     :     0.192788
      dyz     :     0.193822
      dx2y2   :     0.246700
      dxy     :     0.246329
  2 F s       :     3.617835  s :     3.617835
      pz      :     1.732296  p :     5.207177
      px      :     1.637580
      py      :     1.837301
      dz2     :     0.034931  d :     0.210847
      dxz     :     0.064171
      dyz     :     0.025405
      dx2y2   :     0.037984
      dxy     :     0.048355
  3 O s       :     3.478149  s :     3.478149
      pz      :     1.561345  p :     4.515346
      px      :     1.486223
      py      :     1.467777
      dz2     :     0.021456  d :     0.196537
      dxz     :     0.020234
      dyz     :     0.040759
      dx2y2   :     0.055614
      dxy     :     0.058474
  4 H s       :     0.731000  s :     0.731000
      pz      :     0.069455  p :     0.271309
      px      :     0.100656
      py      :     0.101199
  5 H s       :     0.719242  s :     0.719242
      pz      :     0.113860  p :     0.267048
      px      :     0.072620
      py      :     0.080569
  6 H s       :     0.720505  s :     0.720505
      pz      :     0.068868  p :     0.267264
      px      :     0.123581
      py      :     0.074814


                      *****************************
                      * MAYER POPULATION ANALYSIS *
                      *****************************

  NA   - Mulliken gross atomic population
  ZA   - Total nuclear charge
  QA   - Mulliken gross atomic charge
  VA   - Mayer's total valence
  BVA  - Mayer's bonded valence
  FA   - Mayer's free valence

  ATOM       NA         ZA         QA         VA         BVA        FA
  0 C      5.7716     6.0000     0.2284     3.9154     3.9154     0.0000
  1 C      5.5658     6.0000     0.4342     4.2520     4.2520     0.0000
  2 F      9.3496     9.0000    -0.3496     0.9068     0.9068    -0.0000
  3 O      8.5306     8.0000    -0.5306     1.9241     1.9241    -0.0000
  4 H      0.9626     1.0000     0.0374     1.2073     1.2073    -0.0000
  5 H      0.9072     1.0000     0.0928     1.1280     1.1280     0.0000
  6 H      0.9127     1.0000     0.0873     1.1342     1.1342     0.0000

  Mayer bond orders larger than 0.100000
B(  0-C ,  1-C ) :   1.2745 B(  0-C ,  4-H ) :   0.9004 B(  0-C ,  5-H ) :   0.8273 
B(  0-C ,  6-H ) :   0.8205 B(  1-C ,  2-F ) :   0.8097 B(  1-C ,  3-O ) :   1.7848 
B(  1-C ,  4-H ) :   0.1377 B(  1-C ,  5-H ) :   0.1179 B(  1-C ,  6-H ) :   0.1275 


-------
TIMINGS
-------

Total SCF time: 0 days 0 hours 0 min 4 sec 

Total time                  ....       4.298 sec
Sum of individual times     ....       4.138 sec  ( 96.3%)

Fock matrix formation       ....       3.652 sec  ( 85.0%)
  Split-RI-J                ....       0.293 sec  (  8.0% of F)
  Chain of spheres X        ....       2.039 sec  ( 55.8% of F)
  XC integration            ....       0.396 sec  ( 10.8% of F)
    Basis function eval.    ....       0.097 sec  ( 24.6% of XC)
    Density eval.           ....       0.058 sec  ( 14.6% of XC)
    XC-Functional eval.     ....       0.044 sec  ( 11.1% of XC)
    XC-Potential eval.      ....       0.076 sec  ( 19.2% of XC)
Diagonalization             ....       0.026 sec  (  0.6%)
Density matrix formation    ....       0.003 sec  (  0.1%)
Population analysis         ....       0.005 sec  (  0.1%)
Initial guess               ....       0.020 sec  (  0.5%)
Orbital Transformation      ....       0.000 sec  (  0.0%)
Orbital Orthonormalization  ....       0.000 sec  (  0.0%)
DIIS solution               ....       0.023 sec  (  0.5%)
SOSCF solution              ....       0.028 sec  (  0.7%)
Grid generation             ....       0.381 sec  (  8.9%)

Maximum memory used throughout the entire SCF-calculation: 46.6 MB


-------------------------------------------------------------------------------
                          DFT DISPERSION CORRECTION                            
                                                                               
                              DFTD3 V3.1  Rev 1                                
                              USING zero damping                               
-------------------------------------------------------------------------------
The omegaB97X-D3 functional is recognized. Fit by Chai et al.
Active option DFTDOPT                   ...         3   

molecular C6(AA) [au] = 427.238041 


            DFT-D V3
 parameters
 s6 scaling factor         :     1.0000 
 rs6 scaling factor        :     1.2810 
 s8 scaling factor         :     1.0000 
 rs8 scaling factor        :     1.0940 
 Damping factor alpha6     :    14.0000 
 Damping factor alpha8     :    16.0000 
 ad hoc parameters k1-k3   :    16.0000     1.3333    -4.0000 

 Edisp/kcal,au: -0.570930227001  -0.000909835133 
 E6   /kcal   :  -0.190230564 
 E8   /kcal   :  -0.380699663 
 % E8         :  66.680593372 

-------------------------   ----------------
Dispersion correction           -0.000909835
-------------------------   ----------------


-------------------------   --------------------
FINAL SINGLE POINT ENERGY      -252.847052997906
-------------------------   --------------------


                            ***************************************
                            *     ORCA property calculations      *
                            ***************************************

                                    ---------------------
                                    Active property flags
                                    ---------------------
   (+) Dipole Moment


------------------------------------------------------------------------------
                       ORCA ELECTRIC PROPERTIES CALCULATION
------------------------------------------------------------------------------

Dipole Moment Calculation                       ... on
Quadrupole Moment Calculation                   ... off
Polarizability Calculation                      ... off
GBWName                                         ... C1_wt_wb97_typm1_neg.gbw
Electron density file                           ... C1_wt_wb97_typm1_neg.scfp
The origin for moment calculation is the CENTER OF MASS  = (-0.673286, -0.265263 -9.917128)

-------------
DIPOLE MOMENT
-------------
                                X             Y             Z
Electronic contribution:      2.53056      -1.96341      -3.70034
Nuclear contribution   :     -2.12043       3.31297       4.29327
                        -----------------------------------------
Total Dipole Moment    :      0.41013       1.34956       0.59293
                        -----------------------------------------
Magnitude (a.u.)       :      1.53006
Magnitude (Debye)      :      3.88910



--------------------
Rotational spectrum 
--------------------
 
Rotational constants in cm-1:     0.368089     0.321934     0.177312 
Rotational constants in MHz : 11035.034199  9651.332398  5315.666874 

 Dipole components along the rotational axes: 
x,y,z [a.u.] :     0.922157     1.220835    -0.016335 
x,y,z [Debye]:     2.343938     3.103116    -0.041521 

 

Timings for individual modules:

Sum of individual times         ...        5.208 sec (=   0.087 min)
GTO integral calculation        ...        0.521 sec (=   0.009 min)  10.0 %
SCF iterations                  ...        4.687 sec (=   0.078 min)  90.0 %
                             ****ORCA TERMINATED NORMALLY****
TOTAL RUN TIME: 0 days 0 hours 0 minutes 5 seconds 759 msec
