
                                        *****************
                                        * O   R   C   A *
                                        *****************

                                            #,                                       
                                            ###                                      
                                            ####                                     
                                            #####                                    
                                            ######                                   
                                           ########,                                 
                                     ,,################,,,,,                         
                               ,,#################################,,                 
                          ,,##########################################,,             
                       ,#########################################, ''#####,          
                    ,#############################################,,   '####,        
                  ,##################################################,,,,####,       
                ,###########''''           ''''###############################       
              ,#####''   ,,,,##########,,,,          '''####'''          '####       
            ,##' ,,,,###########################,,,                        '##       
           ' ,,###''''                  '''############,,,                           
         ,,##''                                '''############,,,,        ,,,,,,###''
      ,#''                                            '''#######################'''  
     '                                                          ''''####''''         
             ,#######,   #######,   ,#######,      ##                                
            ,#'     '#,  ##    ##  ,#'     '#,    #''#        ######   ,####,        
            ##       ##  ##   ,#'  ##            #'  '#       #        #'  '#        
            ##       ##  #######   ##           ,######,      #####,   #    #        
            '#,     ,#'  ##    ##  '#,     ,#' ,#      #,         ##   #,  ,#        
             '#######'   ##     ##  '#######'  #'      '#     #####' # '####'        



                  #######################################################
                  #                        -***-                        #
                  #          Department of theory and spectroscopy      #
                  #    Directorship and core code : Frank Neese         #
                  #        Max Planck Institute fuer Kohlenforschung    #
                  #                Kaiser Wilhelm Platz 1               #
                  #                 D-45470 Muelheim/Ruhr               #
                  #                      Germany                        #
                  #                                                     #
                  #                  All rights reserved                #
                  #                        -***-                        #
                  #######################################################


                         Program Version 5.0.0 -  RELEASE  -
                                (SVN: $Rev: 19529$)
                ($Date: 2021-06-28 11:36:33 +0200 (Mo, 28 Jun 2021) $)


 With contributions from (in alphabetic order):
   Daniel Aravena         : Magnetic Suceptibility
   Michael Atanasov       : Ab Initio Ligand Field Theory (pilot matlab implementation)
   Alexander A. Auer      : GIAO ZORA, VPT2 properties, NMR spectrum
   Ute Becker             : Parallelization
   Giovanni Bistoni       : ED, misc. LED, open-shell LED, HFLD
   Martin Brehm           : Molecular dynamics
   Dmytro Bykov           : SCF Hessian
   Vijay G. Chilkuri      : MRCI spin determinant printing, contributions to CSF-ICE
   Dipayan Datta          : RHF DLPNO-CCSD density
   Achintya Kumar Dutta   : EOM-CC, STEOM-CC
   Dmitry Ganyushin       : Spin-Orbit,Spin-Spin,Magnetic field MRCI
   Miquel Garcia          : C-PCM Hessian, Gaussian charge scheme
   Yang Guo               : DLPNO-NEVPT2, F12-NEVPT2, CIM, IAO-localization
   Andreas Hansen         : Spin unrestricted coupled pair/coupled cluster methods
   Benjamin Helmich-Paris : MC-RPA, TRAH-SCF, COSX integrals
   Lee Huntington         : MR-EOM, pCC
   Robert Izsak           : Overlap fitted RIJCOSX, COSX-SCS-MP3, EOM
   Marcus Kettner         : VPT2
   Christian Kollmar      : KDIIS, OOCD, Brueckner-CCSD(T), CCSD density, CASPT2, CASPT2-K
   Simone Kossmann        : Meta GGA functionals, TD-DFT gradient, OOMP2, MP2 Hessian
   Martin Krupicka        : Initial AUTO-CI
   Lucas Lang             : DCDCAS
   Marvin Lechner         : AUTO-CI (C++ implementation), FIC-MRCC
   Dagmar Lenk            : GEPOL surface, SMD
   Dimitrios Liakos       : Extrapolation schemes; Compound Job, initial MDCI parallelization
   Dimitrios Manganas     : Further ROCIS development; embedding schemes
   Dimitrios Pantazis     : SARC Basis sets
   Anastasios Papadopoulos: AUTO-CI, single reference methods and gradients
   Taras Petrenko         : DFT Hessian,TD-DFT gradient, ASA, ECA, R-Raman, ABS, FL, XAS/XES, NRVS
   Peter Pinski           : DLPNO-MP2, DLPNO-MP2 Gradient
   Christoph Reimann      : Effective Core Potentials
   Marius Retegan         : Local ZFS, SOC
   Christoph Riplinger    : Optimizer, TS searches, QM/MM, DLPNO-CCSD(T), (RO)-DLPNO pert. Triples
   Tobias Risthaus        : Range-separated hybrids, TD-DFT gradient, RPA, STAB
   Michael Roemelt        : Original ROCIS implementation
   Masaaki Saitow         : Open-shell DLPNO-CCSD energy and density
   Barbara Sandhoefer     : DKH picture change effects
   Avijit Sen             : IP-ROCIS
   Kantharuban Sivalingam : CASSCF convergence, NEVPT2, FIC-MRCI
   Bernardo de Souza      : ESD, SOC TD-DFT
   Georgi Stoychev        : AutoAux, RI-MP2 NMR
   Willem Van den Heuvel  : Paramagnetic NMR
   Boris Wezisla          : Elementary symmetry handling
   Frank Wennmohs         : Technical directorship


 We gratefully acknowledge several colleagues who have allowed us to
 interface, adapt or use parts of their codes:
   Stefan Grimme, W. Hujo, H. Kruse, P. Pracht,  : VdW corrections, initial TS optimization,
                  C. Bannwarth, S. Ehlert          DFT functionals, gCP, sTDA/sTD-DF
   Ed Valeev, F. Pavosevic, A. Kumar             : LibInt (2-el integral package), F12 methods
   Garnet Chan, S. Sharma, J. Yang, R. Olivares  : DMRG
   Ulf Ekstrom                                   : XCFun DFT Library
   Mihaly Kallay                                 : mrcc  (arbitrary order and MRCC methods)
   Jiri Pittner, Ondrej Demel                    : Mk-CCSD
   Frank Weinhold                                : gennbo (NPA and NBO analysis)
   Christopher J. Cramer and Donald G. Truhlar   : smd solvation model
   Lars Goerigk                                  : TD-DFT with DH, B97 family of functionals
   V. Asgeirsson, H. Jonsson                     : NEB implementation
   FAccTs GmbH                                   : IRC, NEB, NEB-TS, DLPNO-Multilevel, CI-OPT
                                                   MM, QMMM, 2- and 3-layer-ONIOM, Crystal-QMMM,
                                                   LR-CPCM, SF, NACMEs, symmetry and pop. for TD-DFT,
                                                   nearIR, NL-DFT gradient (VV10), updates on ESD,
                                                   ML-optimized integration grids
   S Lehtola, MJT Oliveira, MAL Marques          : LibXC Library
   Liviu Ungur et al                             : ANISO software


 Your calculation uses the libint2 library for the computation of 2-el integrals
 For citations please refer to: http://libint.valeyev.net

 Your ORCA version has been built with support for libXC version: 5.1.0
 For citations please refer to: https://tddft.org/programs/libxc/

 This ORCA versions uses:
   CBLAS   interface :  Fast vector & matrix operations
   LAPACKE interface :  Fast linear algebra routines
   SCALAPACK package :  Parallel linear algebra routines
   Shared memory     :  Shared parallel matrices
   BLAS/LAPACK       :  OpenBLAS 0.3.15  USE64BITINT DYNAMIC_ARCH NO_AFFINITY Haswell SINGLE_THREADED
        Core in use  :  Haswell
   Copyright (c) 2011-2014, The OpenBLAS Project


Your calculation utilizes the atom-pairwise dispersion correction
with the Becke-Johnson damping scheme (D3BJ)
Cite in your paper:
S.Grimme, S.Ehrlich, L.Goerigk, J Comput Chem, (2011), 32, 1456–1465 
S.Grimme, J.Antony, S.Ehrlich and H.Krieg, J.Chem.Phys., 132, (2010), 154104 
   

================================================================================

----- Orbital basis set information -----
Your calculation utilizes the basis: def2-TZVP
   F. Weigend and R. Ahlrichs, Phys. Chem. Chem. Phys. 7, 3297 (2005).

----- AuxJ basis set information -----
Your calculation utilizes the auxiliary basis: def2/J
   F. Weigend, Phys. Chem. Chem. Phys. 8, 1057 (2006).

================================================================================
                                        WARNINGS
                       Please study these warnings very carefully!
================================================================================



WARNING: Found flag for RIJCOSX approximation but no HF exchange needed!
  ===> : RIJCOSX  will be disabled and Split-RI-J is turned on

INFO   : the flag for use of the SHARK integral package has been found!

================================================================================
                                       INPUT FILE
================================================================================
NAME = TZVP_PBE_C3_wt_dlpno_neg.com
|  1> !PBE D3BJ RIJCOSX def2-TZVP def2/J TightSCF
|  2> *xyz 0 1
|  3> C          0.70466        1.44313       -4.50363
|  4> C          1.72854        1.42432       -5.63944
|  5> H          2.64672        1.95379       -5.38105
|  6> H          1.29992        1.93061       -6.50361
|  7> S          2.25263       -0.18811       -6.27184
|  8> O          3.56261       -0.44446       -5.63155
|  9> O          2.34494       -0.03374       -7.69650
| 10> F          1.26606       -1.15918       -5.80536
| 11> H         -0.17385        0.91270       -4.80656
| 12> H          0.44778        2.45562       -4.27173
| 13> H          1.12367        0.97423       -3.63791
| 14> *
| 15> 
| 16> %MaxCore 64000
| 17> 
| 18> %pal nprocs 4
| 19> end  
| 20> 
| 21> %scf
| 22>   MaxIter 150
| 23> end
| 24> 
| 25> 
| 26>                          ****END OF INPUT****
================================================================================

                       ****************************
                       * Single Point Calculation *
                       ****************************

---------------------------------
CARTESIAN COORDINATES (ANGSTROEM)
---------------------------------
  C      0.704660    1.443130   -4.503630
  C      1.728540    1.424320   -5.639440
  H      2.646720    1.953790   -5.381050
  H      1.299920    1.930610   -6.503610
  S      2.252630   -0.188110   -6.271840
  O      3.562610   -0.444460   -5.631550
  O      2.344940   -0.033740   -7.696500
  F      1.266060   -1.159180   -5.805360
  H     -0.173850    0.912700   -4.806560
  H      0.447780    2.455620   -4.271730
  H      1.123670    0.974230   -3.637910

----------------------------
CARTESIAN COORDINATES (A.U.)
----------------------------
  NO LB      ZA    FRAG     MASS         X           Y           Z
   0 C     6.0000    0    12.011    1.331614    2.727120   -8.510627
   1 C     6.0000    0    12.011    3.266467    2.691575  -10.656997
   2 H     1.0000    0     1.008    5.001576    3.692128  -10.168711
   3 H     1.0000    0     1.008    2.456493    3.648324  -12.290042
   4 S    16.0000    0    32.060    4.256854   -0.355476  -11.852060
   5 O     8.0000    0    15.999    6.732357   -0.839908  -10.642087
   6 O     8.0000    0    15.999    4.431294   -0.063759  -14.544277
   7 F     9.0000    0    18.998    2.392507   -2.190533  -10.970541
   8 H     1.0000    0     1.008   -0.328529    1.724753   -9.083082
   9 H     1.0000    0     1.008    0.846182    4.640449   -8.072400
  10 H     1.0000    0     1.008    2.123429    1.841028   -6.874654

--------------------------------
INTERNAL COORDINATES (ANGSTROEM)
--------------------------------
 C      0   0   0     0.000000000000     0.00000000     0.00000000
 C      1   0   0     1.529296709798     0.00000000     0.00000000
 H      2   1   0     1.090943804877   112.43328207     0.00000000
 H      2   1   3     1.089419321198   108.66363796   241.66929353
 S      2   1   3     1.809566410221   117.67274222   123.23928946
 O      5   2   1     1.480450676990   105.03554050   259.70518295
 O      5   2   1     1.435969132189   105.63754188   140.00773506
 F      5   2   1     1.460787766994   106.56703737    16.57367235
 H      1   2   3     1.070001116775   109.47087815   180.00014641
 H      1   2   3     1.070000441355   109.47137608    60.00032598
 H      1   2   3     1.070003602097   109.47146090   300.00030428

---------------------------
INTERNAL COORDINATES (A.U.)
---------------------------
 C      0   0   0     0.000000000000     0.00000000     0.00000000
 C      1   0   0     2.889951959026     0.00000000     0.00000000
 H      2   1   0     2.061585018716   112.43328207     0.00000000
 H      2   1   3     2.058704162067   108.66363796   241.66929353
 S      2   1   3     3.419584936461   117.67274222   123.23928946
 O      5   2   1     2.797646334289   105.03554050   259.70518295
 O      5   2   1     2.713588396602   105.63754188   140.00773506
 F      5   2   1     2.760488819401   106.56703737    16.57367235
 H      1   2   3     2.022009073695   109.47087815   180.00014641
 H      1   2   3     2.022007797336   109.47137608    60.00032598
 H      1   2   3     2.022013770272   109.47146090   300.00030428

---------------------
BASIS SET INFORMATION
---------------------
There are 5 groups of distinct atoms

 Group   1 Type C   : 11s6p2d1f contracted to 5s3p2d1f pattern {62111/411/11/1}
 Group   2 Type H   : 5s1p contracted to 3s1p pattern {311/1}
 Group   3 Type S   : 14s9p3d1f contracted to 5s5p2d1f pattern {73211/51111/21/1}
 Group   4 Type O   : 11s6p2d1f contracted to 5s3p2d1f pattern {62111/411/11/1}
 Group   5 Type F   : 11s6p2d1f contracted to 5s3p2d1f pattern {62111/411/11/1}

Atom   0C    basis set group =>   1
Atom   1C    basis set group =>   1
Atom   2H    basis set group =>   2
Atom   3H    basis set group =>   2
Atom   4S    basis set group =>   3
Atom   5O    basis set group =>   4
Atom   6O    basis set group =>   4
Atom   7F    basis set group =>   5
Atom   8H    basis set group =>   2
Atom   9H    basis set group =>   2
Atom  10H    basis set group =>   2
---------------------------------
AUXILIARY/J BASIS SET INFORMATION
---------------------------------
There are 5 groups of distinct atoms

 Group   1 Type C   : 12s5p4d2f1g contracted to 6s4p3d1f1g pattern {711111/2111/211/2/1}
 Group   2 Type H   : 5s2p1d contracted to 3s1p1d pattern {311/2/1}
 Group   3 Type S   : 14s5p5d2f1g contracted to 8s4p3d1f1g pattern {71111111/2111/311/2/1}
 Group   4 Type O   : 12s5p4d2f1g contracted to 6s4p3d1f1g pattern {711111/2111/211/2/1}
 Group   5 Type F   : 12s5p4d2f1g contracted to 6s4p3d1f1g pattern {711111/2111/211/2/1}

Atom   0C    basis set group =>   1
Atom   1C    basis set group =>   1
Atom   2H    basis set group =>   2
Atom   3H    basis set group =>   2
Atom   4S    basis set group =>   3
Atom   5O    basis set group =>   4
Atom   6O    basis set group =>   4
Atom   7F    basis set group =>   5
Atom   8H    basis set group =>   2
Atom   9H    basis set group =>   2
Atom  10H    basis set group =>   2


           ************************************************************
           *        Program running with 4 parallel MPI-processes     *
           *              working on a common directory               *
           ************************************************************
------------------------------------------------------------------------------
                           ORCA GTO INTEGRAL CALCULATION
                           -- RI-GTO INTEGRALS CHOSEN --
------------------------------------------------------------------------------
------------------------------------------------------------------------------
                   ___                                                        
                  /   \      - P O W E R E D   B Y -                         
                 /     \                                                     
                 |  |  |   _    _      __       _____    __    __             
                 |  |  |  | |  | |    /  \     |  _  \  |  |  /  |          
                  \  \/   | |  | |   /    \    | | | |  |  | /  /          
                 / \  \   | |__| |  /  /\  \   | |_| |  |  |/  /          
                |  |  |   |  __  | /  /__\  \  |    /   |      \           
                |  |  |   | |  | | |   __   |  |    \   |  |\   \          
                \     /   | |  | | |  |  |  |  | |\  \  |  | \   \       
                 \___/    |_|  |_| |__|  |__|  |_| \__\ |__|  \__/        
                                                                              
                      - O R C A' S   B I G   F R I E N D -                    
                                      &                                       
                       - I N T E G R A L  F E E D E R -                       
                                                                              
 v1 FN, 2020, v2 2021                                                         
------------------------------------------------------------------------------


Reading SHARK input file TZVP_PBE_C3_wt_dlpno_neg.SHARKINP.tmp ... ok
----------------------
SHARK INTEGRAL PACKAGE
----------------------

Number of atoms                             ...     11
Number of basis functions                   ...    222
Number of shells                            ...     88
Maximum angular momentum                    ...      3
Integral batch strategy                     ... SHARK/LIBINT Hybrid
RI-J (if used) integral strategy            ... SPLIT-RIJ (Revised 2003 algorithm where possible)
Printlevel                                  ...      1
Contraction scheme used                     ... SEGMENTED contraction
Coulomb Range Separation                    ... NOT USED
Exchange Range Separation                   ... NOT USED
Finite Nucleus Model                        ... NOT USED
Auxiliary Coulomb fitting basis             ... AVAILABLE
   # of basis functions in Aux-J            ...    351
   # of shells in Aux-J                     ...    117
   Maximum angular momentum in Aux-J        ...      4
Auxiliary J/K fitting basis                 ... NOT available
Auxiliary Correlation fitting basis         ... NOT available
Auxiliary 'external' fitting basis          ... NOT available
Integral threshold                          ...     2.500000e-11
Primitive cut-off                           ...     2.500000e-12
Primitive pair pre-selection threshold      ...     2.500000e-12

Calculating pre-screening integrals         ... done (  0.1 sec) Dimension = 88
Organizing shell pair data                  ... done (  0.0 sec)
Shell pair information
Total number of shell pairs                 ...      3916
Shell pairs after pre-screening             ...      3657
Total number of primitive shell pairs       ...     12564
Primitive shell pairs kept                  ...      8854
          la=0 lb=0:    925 shell pairs
          la=1 lb=0:   1059 shell pairs
          la=1 lb=1:    318 shell pairs
          la=2 lb=0:    497 shell pairs
          la=2 lb=1:    292 shell pairs
          la=2 lb=2:     76 shell pairs
          la=3 lb=0:    251 shell pairs
          la=3 lb=1:    146 shell pairs
          la=3 lb=2:     72 shell pairs
          la=3 lb=3:     21 shell pairs

Calculating one electron integrals          ... done (  0.0 sec)
Calculating RI/J V-Matrix + Cholesky decomp.... done (  0.0 sec)
Calculating Nuclear repulsion               ... done (  0.0 sec) ENN=    361.256603737547 Eh

SHARK setup successfully completed in   0.2 seconds

Maximum memory used throughout the entire GTOINT-calculation: 15.3 MB


           ************************************************************
           *        Program running with 4 parallel MPI-processes     *
           *              working on a common directory               *
           ************************************************************
-------------------------------------------------------------------------------
                                 ORCA SCF
-------------------------------------------------------------------------------

------------
SCF SETTINGS
------------
Hamiltonian:
 Density Functional     Method          .... DFT(GTOs)
 Exchange Functional    Exchange        .... PBE
   PBE kappa parameter   XKappa         ....  0.804000
   PBE mue parameter    XMuePBE         ....  0.219520
 Correlation Functional Correlation     .... PBE
   PBE beta parameter  CBetaPBE         ....  0.066725
 LDA part of GGA corr.  LDAOpt          .... PW91-LDA
 Gradients option       PostSCFGGA      .... off
   Density functional embedding theory  .... OFF
   NL short-range parameter             ....  6.400000
 RI-approximation to the Coulomb term is turned on
   Number of AuxJ basis functions       .... 351


General Settings:
 Integral files         IntName         .... TZVP_PBE_C3_wt_dlpno_neg
 Hartree-Fock type      HFTyp           .... RHF
 Total Charge           Charge          ....    0
 Multiplicity           Mult            ....    1
 Number of Electrons    NEL             ....   58
 Basis Dimension        Dim             ....  222
 Nuclear Repulsion      ENuc            ....    361.2566037375 Eh

Convergence Acceleration:
 DIIS                   CNVDIIS         .... on
   Start iteration      DIISMaxIt       ....    12
   Startup error        DIISStart       ....  0.200000
   # of expansion vecs  DIISMaxEq       ....     5
   Bias factor          DIISBfac        ....   1.050
   Max. coefficient     DIISMaxC        ....  10.000
 Trust-Rad. Augm. Hess. CNVTRAH         .... auto
   Auto Start mean grad. ratio tolernc. ....  1.125000
   Auto Start start iteration           ....    20
   Auto Start num. interpolation iter.  ....    10
   Max. Number of Micro iterations      ....    16
   Max. Number of Macro iterations      .... Maxiter - #DIIS iter
   Number of Davidson start vectors     ....     2
   Converg. threshold I  (grad. norm)   ....   1.000e-05
   Converg. threshold II (energy diff.) ....   1.000e-08
   Grad. Scal. Fac. for Micro threshold ....   0.100
   Minimum threshold for Micro iter.    ....   0.010
   NR start threshold (gradient norm)   ....   0.001
   Initial trust radius                 ....   0.400
   Minimum AH scaling param. (alpha)    ....   1.000
   Maximum AH scaling param. (alpha)    .... 1000.000
   Orbital update algorithm             .... Taylor
   White noise on init. David. guess    .... on
   Maximum white noise                  ....   0.010
   Quad. conv. algorithm                .... NR
 SOSCF                  CNVSOSCF        .... on
   Start iteration      SOSCFMaxIt      ....   150
   Startup grad/error   SOSCFStart      ....  0.003300
 Level Shifting         CNVShift        .... on
   Level shift para.    LevelShift      ....    0.2500
   Turn off err/grad.   ShiftErr        ....    0.0010
 Zerner damping         CNVZerner       .... off
 Static damping         CNVDamp         .... on
   Fraction old density DampFac         ....    0.7000
   Max. Damping (<1)    DampMax         ....    0.9800
   Min. Damping (>=0)   DampMin         ....    0.0000
   Turn off err/grad.   DampErr         ....    0.1000
 Fernandez-Rico         CNVRico         .... off

SCF Procedure:
 Maximum # iterations   MaxIter         ....   150
 SCF integral mode      SCFMode         .... Direct
   Integral package                     .... SHARK and LIBINT hybrid scheme
 Reset frequency        DirectResetFreq ....    20
 Integral Threshold     Thresh          ....  2.500e-11 Eh
 Primitive CutOff       TCut            ....  2.500e-12 Eh

Convergence Tolerance:
 Convergence Check Mode ConvCheckMode   .... Total+1el-Energy
 Convergence forced     ConvForced      .... 0
 Energy Change          TolE            ....  1.000e-08 Eh
 1-El. energy change                    ....  1.000e-05 Eh
 Orbital Gradient       TolG            ....  1.000e-05
 Orbital Rotation angle TolX            ....  1.000e-05
 DIIS Error             TolErr          ....  5.000e-07


Diagonalization of the overlap matrix:
Smallest eigenvalue                        ... 4.704e-04
Time for diagonalization                   ...    0.012 sec
Threshold for overlap eigenvalues          ... 1.000e-08
Number of eigenvalues below threshold      ... 0
Time for construction of square roots      ...    0.009 sec
Total time needed                          ...    0.022 sec

Time for model grid setup =    0.077 sec

------------------------------
INITIAL GUESS: MODEL POTENTIAL
------------------------------
Loading Hartree-Fock densities                     ... done
Calculating cut-offs                               ... done
Initializing the effective Hamiltonian             ... done
Setting up the integral package (SHARK)            ... done
Starting the Coulomb interaction                   ... done (   0.1 sec)
Reading the grid                                   ... done
Mapping shells                                     ... done
Starting the XC term evaluation                    ... done (   0.1 sec)
  promolecular density results
     # of electrons  =     57.998356010
     EX              =    -63.046873871
     EC              =     -2.061834674
     EX+EC           =    -65.108708545
Transforming the Hamiltonian                       ... done (   0.0 sec)
Diagonalizing the Hamiltonian                      ... done (   0.0 sec)
Back transforming the eigenvectors                 ... done (   0.0 sec)
Now organizing SCF variables                       ... done
                      ------------------
                      INITIAL GUESS DONE (   0.2 sec)
                      ------------------
-------------------
DFT GRID GENERATION
-------------------

General Integration Accuracy     IntAcc      ... 4.388
Radial Grid Type                 RadialGrid  ... OptM3 with GC (2021)
Angular Grid (max. ang.)         AngularGrid ... 4 (Lebedev-302)
Angular grid pruning method      GridPruning ... 4 (adaptive)
Weight generation scheme         WeightScheme... Becke
Basis function cutoff            BFCut       ... 1.0000e-11
Integration weight cutoff        WCut        ... 1.0000e-14
Angular grids for H and He will be reduced by one unit
Partially contracted basis set               ... off
Rotationally invariant grid construction     ... off

Total number of grid points                  ...    53866
Total number of batches                      ...      847
Average number of points per batch           ...       63
Average number of grid points per atom       ...     4897
Time for grid setup =    0.382 sec

--------------
SCF ITERATIONS
--------------
ITER       Energy         Delta-E        Max-DP      RMS-DP      [F,P]     Damp
               ***  Starting incremental Fock matrix formation  ***
  0   -726.9748937569   0.000000000000 0.18672619  0.00201349  0.3000093 0.7000
  1   -727.1519151671  -0.177021410186 0.05705465  0.00105169  0.0866411 0.7000
                               ***Turning on DIIS***
  2   -727.1910301862  -0.039115019146 0.04591647  0.00130729  0.0294625 0.0000
  3   -727.3012879878  -0.110257801561 0.02922831  0.00071693  0.0563699 0.0000
  4   -727.3076422207  -0.006354232881 0.02545042  0.00028498  0.0347734 0.0000
  5   -727.3116470298  -0.004004809109 0.00778979  0.00010326  0.0073511 0.0000
                      *** Initiating the SOSCF procedure ***
                           *** Shutting down DIIS ***
                      *** Re-Reading the Fockian *** 
                      *** Removing any level shift *** 
ITER      Energy       Delta-E        Grad      Rot      Max-DP    RMS-DP
  6   -727.31195003  -0.0003030024  0.000350  0.000350  0.001261  0.000035
               *** Restarting incremental Fock matrix formation ***
  7   -727.31197963  -0.0000295973  0.000365  0.000637  0.001342  0.000031
  8   -727.31196654   0.0000130898  0.000678  0.000558  0.000844  0.000021
  9   -727.31198332  -0.0000167831  0.000117  0.000239  0.000501  0.000012
 10   -727.31198146   0.0000018630  0.000205  0.000165  0.000323  0.000008
 11   -727.31198376  -0.0000023032  0.000027  0.000075  0.000153  0.000004
 12   -727.31198367   0.0000000969  0.000061  0.000062  0.000094  0.000002
 13   -727.31198379  -0.0000001237  0.000009  0.000021  0.000133  0.000001
 14   -727.31198377   0.0000000175  0.000020  0.000015  0.000091  0.000001
                  ***Gradient check signals convergence***
              ***Rediagonalizing the Fockian in SOSCF/NRSCF***

               *****************************************************
               *                     SUCCESS                       *
               *           SCF CONVERGED AFTER  15 CYCLES          *
               *****************************************************


----------------
TOTAL SCF ENERGY
----------------

Total Energy       :         -727.31198379 Eh          -19791.16524 eV

Components:
Nuclear Repulsion  :          361.25660374 Eh            9830.29195 eV
Electronic Energy  :        -1088.56858753 Eh          -29621.45719 eV
One Electron Energy:        -1718.91263896 Eh          -46773.99085 eV
Two Electron Energy:          630.34405143 Eh           17152.53366 eV

Virial components:
Potential Energy   :        -1453.03021373 Eh          -39538.96224 eV
Kinetic Energy     :          725.71822994 Eh           19747.79700 eV
Virial Ratio       :            2.00219611


DFT components:
N(Alpha)           :       28.999995854088 electrons
N(Beta)            :       28.999995854088 electrons
N(Total)           :       57.999991708175 electrons
E(X)               :      -63.662191117047 Eh       
E(C)               :       -2.061685853710 Eh       
E(XC)              :      -65.723876970757 Eh       
DFET-embed. en.    :        0.000000000000 Eh       

---------------
SCF CONVERGENCE
---------------

  Last Energy change         ...   -1.9505e-08  Tolerance :   1.0000e-08
  Last MAX-Density change    ...    5.9161e-06  Tolerance :   1.0000e-07
  Last RMS-Density change    ...    1.4037e-07  Tolerance :   5.0000e-09
  Last Orbital Gradient      ...    1.7060e-06  Tolerance :   1.0000e-05
  Last Orbital Rotation      ...    3.3792e-06  Tolerance :   1.0000e-05

             **** THE GBW FILE WAS UPDATED (TZVP_PBE_C3_wt_dlpno_neg.gbw) ****
             **** DENSITY TZVP_PBE_C3_wt_dlpno_neg.scfp WAS UPDATED ****
             **** ENERGY FILE WAS UPDATED (TZVP_PBE_C3_wt_dlpno_neg.en.tmp) ****
             **** THE GBW FILE WAS UPDATED (TZVP_PBE_C3_wt_dlpno_neg.gbw) ****
             **** DENSITY TZVP_PBE_C3_wt_dlpno_neg.scfp WAS UPDATED ****
----------------
ORBITAL ENERGIES
----------------

  NO   OCC          E(Eh)            E(eV) 
   0   2.0000     -88.264927     -2401.8108 
   1   2.0000     -24.362290      -662.9316 
   2   2.0000     -18.761037      -510.5138 
   3   2.0000     -18.745836      -510.1001 
   4   2.0000      -9.938300      -270.4349 
   5   2.0000      -9.904017      -269.5020 
   6   2.0000      -7.860515      -213.8955 
   7   2.0000      -5.884986      -160.1386 
   8   2.0000      -5.878281      -159.9562 
   9   2.0000      -5.878070      -159.9504 
  10   2.0000      -1.259944       -34.2848 
  11   2.0000      -1.014888       -27.6165 
  12   2.0000      -0.918693       -24.9989 
  13   2.0000      -0.749155       -20.3855 
  14   2.0000      -0.658546       -17.9199 
  15   2.0000      -0.612526       -16.6677 
  16   2.0000      -0.525750       -14.3064 
  17   2.0000      -0.507399       -13.8070 
  18   2.0000      -0.484254       -13.1772 
  19   2.0000      -0.444330       -12.0908 
  20   2.0000      -0.420047       -11.4301 
  21   2.0000      -0.400047       -10.8858 
  22   2.0000      -0.390990       -10.6394 
  23   2.0000      -0.366219        -9.9653 
  24   2.0000      -0.350293        -9.5319 
  25   2.0000      -0.335964        -9.1420 
  26   2.0000      -0.289727        -7.8839 
  27   2.0000      -0.274099        -7.4586 
  28   2.0000      -0.260025        -7.0756 
  29   0.0000      -0.022155        -0.6029 
  30   0.0000       0.016061         0.4371 
  31   0.0000       0.028773         0.7830 
  32   0.0000       0.035435         0.9642 
  33   0.0000       0.051639         1.4052 
  34   0.0000       0.059678         1.6239 
  35   0.0000       0.065527         1.7831 
  36   0.0000       0.079541         2.1644 
  37   0.0000       0.107552         2.9266 
  38   0.0000       0.128002         3.4831 
  39   0.0000       0.160951         4.3797 
  40   0.0000       0.180484         4.9112 
  41   0.0000       0.185681         5.0526 
  42   0.0000       0.221391         6.0244 
  43   0.0000       0.235658         6.4126 
  44   0.0000       0.240748         6.5511 
  45   0.0000       0.270258         7.3541 
  46   0.0000       0.278382         7.5752 
  47   0.0000       0.327578         8.9139 
  48   0.0000       0.338795         9.2191 
  49   0.0000       0.345174         9.3927 
  50   0.0000       0.361937         9.8488 
  51   0.0000       0.380080        10.3425 
  52   0.0000       0.389908        10.6099 
  53   0.0000       0.403865        10.9897 
  54   0.0000       0.410809        11.1787 
  55   0.0000       0.414102        11.2683 
  56   0.0000       0.426477        11.6050 
  57   0.0000       0.443381        12.0650 
  58   0.0000       0.447405        12.1745 
  59   0.0000       0.480055        13.0630 
  60   0.0000       0.500860        13.6291 
  61   0.0000       0.523740        14.2517 
  62   0.0000       0.535938        14.5836 
  63   0.0000       0.555038        15.1033 
  64   0.0000       0.584007        15.8916 
  65   0.0000       0.611670        16.6444 
  66   0.0000       0.645368        17.5613 
  67   0.0000       0.668892        18.2015 
  68   0.0000       0.679837        18.4993 
  69   0.0000       0.723357        19.6836 
  70   0.0000       0.774230        21.0679 
  71   0.0000       0.785157        21.3652 
  72   0.0000       0.792035        21.5524 
  73   0.0000       0.847744        23.0683 
  74   0.0000       0.852433        23.1959 
  75   0.0000       0.870102        23.6767 
  76   0.0000       0.894284        24.3347 
  77   0.0000       0.947842        25.7921 
  78   0.0000       0.992032        26.9946 
  79   0.0000       1.006127        27.3781 
  80   0.0000       1.021561        27.7981 
  81   0.0000       1.065546        28.9950 
  82   0.0000       1.091679        29.7061 
  83   0.0000       1.215242        33.0684 
  84   0.0000       1.254220        34.1291 
  85   0.0000       1.260910        34.3111 
  86   0.0000       1.335411        36.3384 
  87   0.0000       1.358947        36.9788 
  88   0.0000       1.383833        37.6560 
  89   0.0000       1.395684        37.9785 
  90   0.0000       1.419503        38.6266 
  91   0.0000       1.443190        39.2712 
  92   0.0000       1.450270        39.4638 
  93   0.0000       1.460540        39.7433 
  94   0.0000       1.477089        40.1936 
  95   0.0000       1.479695        40.2645 
  96   0.0000       1.498406        40.7737 
  97   0.0000       1.527114        41.5549 
  98   0.0000       1.537939        41.8494 
  99   0.0000       1.564329        42.5676 
 100   0.0000       1.620355        44.0921 
 101   0.0000       1.627974        44.2994 
 102   0.0000       1.638461        44.5848 
 103   0.0000       1.698301        46.2131 
 104   0.0000       1.723318        46.8939 
 105   0.0000       1.738478        47.3064 
 106   0.0000       1.761873        47.9430 
 107   0.0000       1.809433        49.2372 
 108   0.0000       1.841104        50.0990 
 109   0.0000       1.897951        51.6459 
 110   0.0000       1.918084        52.1937 
 111   0.0000       1.934951        52.6527 
 112   0.0000       1.963286        53.4237 
 113   0.0000       2.056483        55.9597 
 114   0.0000       2.068951        56.2990 
 115   0.0000       2.093193        56.9587 
 116   0.0000       2.142575        58.3024 
 117   0.0000       2.162999        58.8582 
 118   0.0000       2.206563        60.0436 
 119   0.0000       2.225641        60.5628 
 120   0.0000       2.227134        60.6034 
 121   0.0000       2.251039        61.2539 
 122   0.0000       2.255231        61.3680 
 123   0.0000       2.272086        61.8266 
 124   0.0000       2.294796        62.4446 
 125   0.0000       2.326200        63.2991 
 126   0.0000       2.346305        63.8462 
 127   0.0000       2.357362        64.1471 
 128   0.0000       2.391695        65.0813 
 129   0.0000       2.482064        67.5404 
 130   0.0000       2.498841        67.9969 
 131   0.0000       2.502737        68.1029 
 132   0.0000       2.514147        68.4134 
 133   0.0000       2.549741        69.3820 
 134   0.0000       2.561115        69.6915 
 135   0.0000       2.578266        70.1582 
 136   0.0000       2.589196        70.4556 
 137   0.0000       2.654879        72.2429 
 138   0.0000       2.670162        72.6588 
 139   0.0000       2.748941        74.8025 
 140   0.0000       2.786081        75.8131 
 141   0.0000       2.800095        76.1945 
 142   0.0000       2.846751        77.4640 
 143   0.0000       2.878047        78.3157 
 144   0.0000       2.901951        78.9661 
 145   0.0000       2.935769        79.8863 
 146   0.0000       2.953606        80.3717 
 147   0.0000       2.978140        81.0393 
 148   0.0000       2.997392        81.5632 
 149   0.0000       3.047322        82.9218 
 150   0.0000       3.092662        84.1556 
 151   0.0000       3.108436        84.5848 
 152   0.0000       3.156596        85.8953 
 153   0.0000       3.216076        87.5139 
 154   0.0000       3.235623        88.0458 
 155   0.0000       3.269913        88.9789 
 156   0.0000       3.306378        89.9711 
 157   0.0000       3.319944        90.3403 
 158   0.0000       3.354150        91.2711 
 159   0.0000       3.400715        92.5381 
 160   0.0000       3.419503        93.0494 
 161   0.0000       3.491123        94.9983 
 162   0.0000       3.633183        98.8639 
 163   0.0000       3.647552        99.2549 
 164   0.0000       3.711503       100.9951 
 165   0.0000       3.729995       101.4983 
 166   0.0000       3.779959       102.8579 
 167   0.0000       3.839886       104.4886 
 168   0.0000       3.871973       105.3617 
 169   0.0000       4.006752       109.0293 
 170   0.0000       4.138760       112.6214 
 171   0.0000       4.208722       114.5252 
 172   0.0000       4.310831       117.3037 
 173   0.0000       4.332992       117.9067 
 174   0.0000       4.374096       119.0252 
 175   0.0000       4.454648       121.2171 
 176   0.0000       4.641996       126.3151 
 177   0.0000       5.008179       136.2795 
 178   0.0000       5.017789       136.5410 
 179   0.0000       5.025852       136.7604 
 180   0.0000       5.029088       136.8484 
 181   0.0000       5.048469       137.3758 
 182   0.0000       5.069238       137.9410 
 183   0.0000       5.091685       138.5518 
 184   0.0000       5.197484       141.4307 
 185   0.0000       5.241662       142.6329 
 186   0.0000       5.326688       144.9465 
 187   0.0000       5.369684       146.1165 
 188   0.0000       5.419310       147.4669 
 189   0.0000       5.480778       149.1396 
 190   0.0000       5.551292       151.0583 
 191   0.0000       6.130358       166.8155 
 192   0.0000       6.179652       168.1569 
 193   0.0000       6.205799       168.8684 
 194   0.0000       6.243619       169.8975 
 195   0.0000       6.454320       175.6310 
 196   0.0000       6.516677       177.3278 
 197   0.0000       6.555514       178.3846 
 198   0.0000       6.624202       180.2537 
 199   0.0000       6.644568       180.8079 
 200   0.0000       6.654351       181.0741 
 201   0.0000       6.692133       182.1022 
 202   0.0000       6.707331       182.5158 
 203   0.0000       6.715686       182.7431 
 204   0.0000       6.764997       184.0849 
 205   0.0000       6.778456       184.4512 
 206   0.0000       6.825867       185.7413 
 207   0.0000       6.916804       188.2158 
 208   0.0000       8.093584       220.2376 
 209   0.0000       8.098928       220.3830 
 210   0.0000       8.455501       230.0859 
 211   0.0000       8.473398       230.5729 
 212   0.0000       8.530131       232.1167 
 213   0.0000       9.170701       249.5475 
 214   0.0000       9.376874       255.1577 
 215   0.0000       9.529887       259.3214 
 216   0.0000      21.882338       595.4487 
 217   0.0000      22.097500       601.3035 
 218   0.0000      22.197141       604.0149 
 219   0.0000      43.032094      1170.9628 
 220   0.0000      43.232302      1176.4107 
 221   0.0000      56.518331      1537.9420 

                    ********************************
                    * MULLIKEN POPULATION ANALYSIS *
                    ********************************

-----------------------
MULLIKEN ATOMIC CHARGES
-----------------------
   0 C :   -0.352138
   1 C :   -0.252363
   2 H :    0.158682
   3 H :    0.146640
   4 S :    0.719259
   5 O :   -0.395836
   6 O :   -0.346067
   7 F :   -0.072646
   8 H :    0.126307
   9 H :    0.132741
  10 H :    0.135423
Sum of atomic charges:    0.0000000

--------------------------------
MULLIKEN REDUCED ORBITAL CHARGES
--------------------------------
  0 C s       :     3.242943  s :     3.242943
      pz      :     0.988879  p :     3.056846
      px      :     0.996659
      py      :     1.071309
      dz2     :     0.016270  d :     0.049225
      dxz     :     0.006458
      dyz     :     0.010304
      dx2y2   :     0.006992
      dxy     :     0.009201
      f0      :     0.000465  f :     0.003124
      f+1     :     0.000766
      f-1     :     0.000227
      f+2     :     0.000429
      f-2     :     0.000715
      f+3     :     0.000130
      f-3     :     0.000393
  1 C s       :     3.213684  s :     3.213684
      pz      :     1.012988  p :     2.950536
      px      :     1.030004
      py      :     0.907543
      dz2     :     0.024100  d :     0.083633
      dxz     :     0.008164
      dyz     :     0.019944
      dx2y2   :     0.014196
      dxy     :     0.017230
      f0      :     0.000680  f :     0.004511
      f+1     :     0.000826
      f-1     :     0.000450
      f+2     :     0.000642
      f-2     :     0.000923
      f+3     :     0.000387
      f-3     :     0.000602
  2 H s       :     0.819043  s :     0.819043
      pz      :     0.005171  p :     0.022275
      px      :     0.010731
      py      :     0.006374
  3 H s       :     0.831343  s :     0.831343
      pz      :     0.009919  p :     0.022018
      px      :     0.005747
      py      :     0.006352
  4 S s       :     5.400412  s :     5.400412
      pz      :     2.852499  p :     8.648160
      px      :     2.844295
      py      :     2.951366
      dz2     :     0.239939  d :     1.115439
      dxz     :     0.257224
      dyz     :     0.235325
      dx2y2   :     0.165224
      dxy     :     0.217727
      f0      :     0.011032  f :     0.116730
      f+1     :     0.031588
      f-1     :     0.019052
      f+2     :     0.011291
      f-2     :     0.015644
      f+3     :     0.014573
      f-3     :     0.013549
  5 O s       :     3.838512  s :     3.838512
      pz      :     1.590124  p :     4.523299
      px      :     1.301699
      py      :     1.631476
      dz2     :     0.004769  d :     0.032213
      dxz     :     0.009339
      dyz     :     0.002146
      dx2y2   :     0.008159
      dxy     :     0.007801
      f0      :     0.000158  f :     0.001812
      f+1     :     0.000411
      f-1     :     0.000026
      f+2     :     0.000348
      f-2     :     0.000228
      f+3     :     0.000322
      f-3     :     0.000319
  6 O s       :     3.819715  s :     3.819715
      pz      :     1.284830  p :     4.489639
      px      :     1.610473
      py      :     1.594336
      dz2     :     0.012314  d :     0.034709
      dxz     :     0.010631
      dyz     :     0.010787
      dx2y2   :     0.000537
      dxy     :     0.000441
      f0      :     0.000670  f :     0.002004
      f+1     :     0.000612
      f-1     :     0.000609
      f+2     :     0.000056
      f-2     :     0.000053
      f+3     :     0.000002
      f-3     :     0.000002
  7 F s       :     3.889777  s :     3.889777
      pz      :     1.799522  p :     5.161580
      px      :     1.681522
      py      :     1.680536
      dz2     :     0.002783  d :     0.020438
      dxz     :     0.003299
      dyz     :     0.003390
      dx2y2   :     0.005005
      dxy     :     0.005961
      f0      :     0.000083  f :     0.000851
      f+1     :     0.000087
      f-1     :     0.000085
      f+2     :     0.000056
      f-2     :     0.000177
      f+3     :     0.000177
      f-3     :     0.000185
  8 H s       :     0.851832  s :     0.851832
      pz      :     0.005275  p :     0.021861
      px      :     0.009975
      py      :     0.006611
  9 H s       :     0.845167  s :     0.845167
      pz      :     0.005423  p :     0.022092
      px      :     0.005470
      py      :     0.011199
 10 H s       :     0.842694  s :     0.842694
      pz      :     0.009886  p :     0.021883
      px      :     0.005807
      py      :     0.006190


                     *******************************
                     * LOEWDIN POPULATION ANALYSIS *
                     *******************************

----------------------
LOEWDIN ATOMIC CHARGES
----------------------
   0 C :   -0.322053
   1 C :   -0.396425
   2 H :    0.147968
   3 H :    0.141850
   4 S :    0.473655
   5 O :   -0.284566
   6 O :   -0.228291
   7 F :    0.095492
   8 H :    0.120668
   9 H :    0.127593
  10 H :    0.124109

-------------------------------
LOEWDIN REDUCED ORBITAL CHARGES
-------------------------------
  0 C s       :     2.829049  s :     2.829049
      pz      :     1.063173  p :     3.213177
      px      :     1.063040
      py      :     1.086963
      dz2     :     0.067492  d :     0.254225
      dxz     :     0.054671
      dyz     :     0.044668
      dx2y2   :     0.041672
      dxy     :     0.045721
      f0      :     0.004218  f :     0.025603
      f+1     :     0.004819
      f-1     :     0.003308
      f+2     :     0.003196
      f-2     :     0.004795
      f+3     :     0.001990
      f-3     :     0.003276
  1 C s       :     2.856721  s :     2.856721
      pz      :     1.075859  p :     3.152520
      px      :     1.076930
      py      :     0.999731
      dz2     :     0.076766  d :     0.355307
      dxz     :     0.058632
      dyz     :     0.082494
      dx2y2   :     0.063350
      dxy     :     0.074064
      f0      :     0.005226  f :     0.031877
      f+1     :     0.004706
      f-1     :     0.004363
      f+2     :     0.004002
      f-2     :     0.005735
      f+3     :     0.003393
      f-3     :     0.004451
  2 H s       :     0.787811  s :     0.787811
      pz      :     0.015401  p :     0.064221
      px      :     0.030449
      py      :     0.018371
  3 H s       :     0.793797  s :     0.793797
      pz      :     0.027976  p :     0.064352
      px      :     0.018060
      py      :     0.018316
  4 S s       :     4.775726  s :     4.775726
      pz      :     2.881135  p :     8.607747
      px      :     2.847770
      py      :     2.878842
      dz2     :     0.405140  d :     1.776813
      dxz     :     0.393630
      dyz     :     0.343962
      dx2y2   :     0.278618
      dxy     :     0.355463
      f0      :     0.044137  f :     0.366058
      f+1     :     0.088079
      f-1     :     0.056268
      f+2     :     0.037184
      f-2     :     0.049784
      f+3     :     0.046916
      f-3     :     0.043691
  5 O s       :     3.592905  s :     3.592905
      pz      :     1.589325  p :     4.623041
      px      :     1.445722
      py      :     1.587994
      dz2     :     0.007790  d :     0.064380
      dxz     :     0.021589
      dyz     :     0.003222
      dx2y2   :     0.019889
      dxy     :     0.011891
      f0      :     0.000505  f :     0.004240
      f+1     :     0.000706
      f-1     :     0.000061
      f+2     :     0.001053
      f-2     :     0.000436
      f+3     :     0.000816
      f-3     :     0.000664
  6 O s       :     3.563924  s :     3.563924
      pz      :     1.480642  p :     4.589235
      px      :     1.561894
      py      :     1.546699
      dz2     :     0.039005  d :     0.070333
      dxz     :     0.014671
      dyz     :     0.015284
      dx2y2   :     0.000676
      dxy     :     0.000698
      f0      :     0.002323  f :     0.004800
      f+1     :     0.001124
      f-1     :     0.001129
      f+2     :     0.000093
      f-2     :     0.000124
      f+3     :     0.000003
      f-3     :     0.000002
  7 F s       :     3.668485  s :     3.668485
      pz      :     1.771638  p :     5.194509
      px      :     1.716963
      py      :     1.705908
      dz2     :     0.005333  d :     0.039788
      dxz     :     0.006145
      dyz     :     0.006195
      dx2y2   :     0.007372
      dxy     :     0.014743
      f0      :     0.000184  f :     0.001725
      f+1     :     0.000164
      f-1     :     0.000167
      f+2     :     0.000087
      f-2     :     0.000384
      f+3     :     0.000363
      f-3     :     0.000377
  8 H s       :     0.813556  s :     0.813556
      pz      :     0.016461  p :     0.065777
      px      :     0.028932
      py      :     0.020383
  9 H s       :     0.806547  s :     0.806547
      pz      :     0.015555  p :     0.065860
      px      :     0.015704
      py      :     0.034601
 10 H s       :     0.809925  s :     0.809925
      pz      :     0.028596  p :     0.065966
      px      :     0.018187
      py      :     0.019183


                      *****************************
                      * MAYER POPULATION ANALYSIS *
                      *****************************

  NA   - Mulliken gross atomic population
  ZA   - Total nuclear charge
  QA   - Mulliken gross atomic charge
  VA   - Mayer's total valence
  BVA  - Mayer's bonded valence
  FA   - Mayer's free valence

  ATOM       NA         ZA         QA         VA         BVA        FA
  0 C      6.3521     6.0000    -0.3521     3.8949     3.8949    -0.0000
  1 C      6.2524     6.0000    -0.2524     3.8774     3.8774     0.0000
  2 H      0.8413     1.0000     0.1587     0.9681     0.9681     0.0000
  3 H      0.8534     1.0000     0.1466     0.9666     0.9666     0.0000
  4 S     15.2807    16.0000     0.7193     6.0200     6.0200     0.0000
  5 O      8.3958     8.0000    -0.3958     2.0710     2.0710     0.0000
  6 O      8.3461     8.0000    -0.3461     2.1287     2.1287     0.0000
  7 F      9.0726     9.0000    -0.0726     1.2586     1.2586     0.0000
  8 H      0.8737     1.0000     0.1263     0.9737     0.9737    -0.0000
  9 H      0.8673     1.0000     0.1327     0.9700     0.9700    -0.0000
 10 H      0.8646     1.0000     0.1354     0.9755     0.9755    -0.0000

  Mayer bond orders larger than 0.100000
B(  0-C ,  1-C ) :   0.9943 B(  0-C ,  8-H ) :   0.9642 B(  0-C ,  9-H ) :   0.9529 
B(  0-C , 10-H ) :   0.9642 B(  1-C ,  2-H ) :   0.9330 B(  1-C ,  3-H ) :   0.9324 
B(  1-C ,  4-S ) :   0.9003 B(  4-S ,  5-O ) :   1.9334 B(  4-S ,  6-O ) :   1.9836 
B(  4-S ,  7-F ) :   1.1526 

-------
TIMINGS
-------

Total SCF time: 0 days 0 hours 0 min 6 sec 

Total time                  ....       6.173 sec
Sum of individual times     ....       5.965 sec  ( 96.6%)

Fock matrix formation       ....       5.117 sec  ( 82.9%)
  Split-RI-J                ....       1.552 sec  ( 30.3% of F)
  XC integration            ....       3.507 sec  ( 68.5% of F)
    Basis function eval.    ....       1.174 sec  ( 33.5% of XC)
    Density eval.           ....       0.853 sec  ( 24.3% of XC)
    XC-Functional eval.     ....       0.208 sec  (  5.9% of XC)
    XC-Potential eval.      ....       1.048 sec  ( 29.9% of XC)
Diagonalization             ....       0.081 sec  (  1.3%)
Density matrix formation    ....       0.008 sec  (  0.1%)
Population analysis         ....       0.012 sec  (  0.2%)
Initial guess               ....       0.155 sec  (  2.5%)
Orbital Transformation      ....       0.000 sec  (  0.0%)
Orbital Orthonormalization  ....       0.000 sec  (  0.0%)
DIIS solution               ....       0.053 sec  (  0.9%)
SOSCF solution              ....       0.080 sec  (  1.3%)
Grid generation             ....       0.459 sec  (  7.4%)

Maximum memory used throughout the entire SCF-calculation: 22.1 MB


-------------------------------------------------------------------------------
                          DFT DISPERSION CORRECTION                            
                                                                               
                              DFTD3 V3.1  Rev 1                                
                          USING Becke-Johnson damping                          
-------------------------------------------------------------------------------
The PBE functional is recognized
Active option DFTDOPT                   ...         4   

molecular C6(AA) [au] = 1445.731823 


            DFT-D V3
 parameters
 s6 scaling factor         :     1.0000 
 a1 scaling factor         :     0.4289 
 s8 scaling factor         :     0.7875 
 a2 scaling factor         :     4.4407 
 ad hoc parameters k1-k3   :    16.0000     1.3333    -4.0000 

 Edisp/kcal,au: -5.701873984824  -0.009086513610 
 E6   /kcal   :  -3.965657146 
 E8   /kcal   :  -1.736216839 
 % E8         :  30.449933536 

-------------------------   ----------------
Dispersion correction           -0.009086514
-------------------------   ----------------


-------------------------   --------------------
FINAL SINGLE POINT ENERGY      -727.321070305355
-------------------------   --------------------


                            ***************************************
                            *     ORCA property calculations      *
                            ***************************************

                                    ---------------------
                                    Active property flags
                                    ---------------------
   (+) Dipole Moment


------------------------------------------------------------------------------
                       ORCA ELECTRIC PROPERTIES CALCULATION
------------------------------------------------------------------------------

Dipole Moment Calculation                       ... on
Quadrupole Moment Calculation                   ... off
Polarizability Calculation                      ... off
GBWName                                         ... TZVP_PBE_C3_wt_dlpno_neg.gbw
Electron density file                           ... TZVP_PBE_C3_wt_dlpno_neg.scfp
The origin for moment calculation is the CENTER OF MASS  = ( 3.799054,  0.118491 -11.313394)

-------------
DIPOLE MOMENT
-------------
                                X             Y             Z
Electronic contribution:      2.45491      -7.73488      -4.05107
Nuclear contribution   :     -3.70606       8.55465       4.82350
                        -----------------------------------------
Total Dipole Moment    :     -1.25115       0.81977       0.77243
                        -----------------------------------------
Magnitude (a.u.)       :      1.68346
Magnitude (Debye)      :      4.27902



--------------------
Rotational spectrum 
--------------------
 
Rotational constants in cm-1:     0.153201     0.080978     0.077494 
Rotational constants in MHz :  4592.852844  2427.650814  2323.207507 

 Dipole components along the rotational axes: 
x,y,z [a.u.] :     1.620228     0.220671    -0.400253 
x,y,z [Debye]:     4.118293     0.560900    -1.017364 

 

Timings for individual modules:

Sum of individual times         ...        7.406 sec (=   0.123 min)
GTO integral calculation        ...        0.780 sec (=   0.013 min)  10.5 %
SCF iterations                  ...        6.626 sec (=   0.110 min)  89.5 %
                             ****ORCA TERMINATED NORMALLY****
TOTAL RUN TIME: 0 days 0 hours 0 minutes 7 seconds 968 msec
