
                                        *****************
                                        * O   R   C   A *
                                        *****************

                                            #,                                       
                                            ###                                      
                                            ####                                     
                                            #####                                    
                                            ######                                   
                                           ########,                                 
                                     ,,################,,,,,                         
                               ,,#################################,,                 
                          ,,##########################################,,             
                       ,#########################################, ''#####,          
                    ,#############################################,,   '####,        
                  ,##################################################,,,,####,       
                ,###########''''           ''''###############################       
              ,#####''   ,,,,##########,,,,          '''####'''          '####       
            ,##' ,,,,###########################,,,                        '##       
           ' ,,###''''                  '''############,,,                           
         ,,##''                                '''############,,,,        ,,,,,,###''
      ,#''                                            '''#######################'''  
     '                                                          ''''####''''         
             ,#######,   #######,   ,#######,      ##                                
            ,#'     '#,  ##    ##  ,#'     '#,    #''#        ######   ,####,        
            ##       ##  ##   ,#'  ##            #'  '#       #        #'  '#        
            ##       ##  #######   ##           ,######,      #####,   #    #        
            '#,     ,#'  ##    ##  '#,     ,#' ,#      #,         ##   #,  ,#        
             '#######'   ##     ##  '#######'  #'      '#     #####' # '####'        



                  #######################################################
                  #                        -***-                        #
                  #          Department of theory and spectroscopy      #
                  #    Directorship and core code : Frank Neese         #
                  #        Max Planck Institute fuer Kohlenforschung    #
                  #                Kaiser Wilhelm Platz 1               #
                  #                 D-45470 Muelheim/Ruhr               #
                  #                      Germany                        #
                  #                                                     #
                  #                  All rights reserved                #
                  #                        -***-                        #
                  #######################################################


                         Program Version 5.0.0 -  RELEASE  -
                                (SVN: $Rev: 19529$)
                ($Date: 2021-06-28 11:36:33 +0200 (Mo, 28 Jun 2021) $)


 With contributions from (in alphabetic order):
   Daniel Aravena         : Magnetic Suceptibility
   Michael Atanasov       : Ab Initio Ligand Field Theory (pilot matlab implementation)
   Alexander A. Auer      : GIAO ZORA, VPT2 properties, NMR spectrum
   Ute Becker             : Parallelization
   Giovanni Bistoni       : ED, misc. LED, open-shell LED, HFLD
   Martin Brehm           : Molecular dynamics
   Dmytro Bykov           : SCF Hessian
   Vijay G. Chilkuri      : MRCI spin determinant printing, contributions to CSF-ICE
   Dipayan Datta          : RHF DLPNO-CCSD density
   Achintya Kumar Dutta   : EOM-CC, STEOM-CC
   Dmitry Ganyushin       : Spin-Orbit,Spin-Spin,Magnetic field MRCI
   Miquel Garcia          : C-PCM Hessian, Gaussian charge scheme
   Yang Guo               : DLPNO-NEVPT2, F12-NEVPT2, CIM, IAO-localization
   Andreas Hansen         : Spin unrestricted coupled pair/coupled cluster methods
   Benjamin Helmich-Paris : MC-RPA, TRAH-SCF, COSX integrals
   Lee Huntington         : MR-EOM, pCC
   Robert Izsak           : Overlap fitted RIJCOSX, COSX-SCS-MP3, EOM
   Marcus Kettner         : VPT2
   Christian Kollmar      : KDIIS, OOCD, Brueckner-CCSD(T), CCSD density, CASPT2, CASPT2-K
   Simone Kossmann        : Meta GGA functionals, TD-DFT gradient, OOMP2, MP2 Hessian
   Martin Krupicka        : Initial AUTO-CI
   Lucas Lang             : DCDCAS
   Marvin Lechner         : AUTO-CI (C++ implementation), FIC-MRCC
   Dagmar Lenk            : GEPOL surface, SMD
   Dimitrios Liakos       : Extrapolation schemes; Compound Job, initial MDCI parallelization
   Dimitrios Manganas     : Further ROCIS development; embedding schemes
   Dimitrios Pantazis     : SARC Basis sets
   Anastasios Papadopoulos: AUTO-CI, single reference methods and gradients
   Taras Petrenko         : DFT Hessian,TD-DFT gradient, ASA, ECA, R-Raman, ABS, FL, XAS/XES, NRVS
   Peter Pinski           : DLPNO-MP2, DLPNO-MP2 Gradient
   Christoph Reimann      : Effective Core Potentials
   Marius Retegan         : Local ZFS, SOC
   Christoph Riplinger    : Optimizer, TS searches, QM/MM, DLPNO-CCSD(T), (RO)-DLPNO pert. Triples
   Tobias Risthaus        : Range-separated hybrids, TD-DFT gradient, RPA, STAB
   Michael Roemelt        : Original ROCIS implementation
   Masaaki Saitow         : Open-shell DLPNO-CCSD energy and density
   Barbara Sandhoefer     : DKH picture change effects
   Avijit Sen             : IP-ROCIS
   Kantharuban Sivalingam : CASSCF convergence, NEVPT2, FIC-MRCI
   Bernardo de Souza      : ESD, SOC TD-DFT
   Georgi Stoychev        : AutoAux, RI-MP2 NMR
   Willem Van den Heuvel  : Paramagnetic NMR
   Boris Wezisla          : Elementary symmetry handling
   Frank Wennmohs         : Technical directorship


 We gratefully acknowledge several colleagues who have allowed us to
 interface, adapt or use parts of their codes:
   Stefan Grimme, W. Hujo, H. Kruse, P. Pracht,  : VdW corrections, initial TS optimization,
                  C. Bannwarth, S. Ehlert          DFT functionals, gCP, sTDA/sTD-DF
   Ed Valeev, F. Pavosevic, A. Kumar             : LibInt (2-el integral package), F12 methods
   Garnet Chan, S. Sharma, J. Yang, R. Olivares  : DMRG
   Ulf Ekstrom                                   : XCFun DFT Library
   Mihaly Kallay                                 : mrcc  (arbitrary order and MRCC methods)
   Jiri Pittner, Ondrej Demel                    : Mk-CCSD
   Frank Weinhold                                : gennbo (NPA and NBO analysis)
   Christopher J. Cramer and Donald G. Truhlar   : smd solvation model
   Lars Goerigk                                  : TD-DFT with DH, B97 family of functionals
   V. Asgeirsson, H. Jonsson                     : NEB implementation
   FAccTs GmbH                                   : IRC, NEB, NEB-TS, DLPNO-Multilevel, CI-OPT
                                                   MM, QMMM, 2- and 3-layer-ONIOM, Crystal-QMMM,
                                                   LR-CPCM, SF, NACMEs, symmetry and pop. for TD-DFT,
                                                   nearIR, NL-DFT gradient (VV10), updates on ESD,
                                                   ML-optimized integration grids
   S Lehtola, MJT Oliveira, MAL Marques          : LibXC Library
   Liviu Ungur et al                             : ANISO software


 Your calculation uses the libint2 library for the computation of 2-el integrals
 For citations please refer to: http://libint.valeyev.net

 Your ORCA version has been built with support for libXC version: 5.1.0
 For citations please refer to: https://tddft.org/programs/libxc/

 This ORCA versions uses:
   CBLAS   interface :  Fast vector & matrix operations
   LAPACKE interface :  Fast linear algebra routines
   SCALAPACK package :  Parallel linear algebra routines
   Shared memory     :  Shared parallel matrices
   BLAS/LAPACK       :  OpenBLAS 0.3.15  USE64BITINT DYNAMIC_ARCH NO_AFFINITY Haswell SINGLE_THREADED
        Core in use  :  Haswell
   Copyright (c) 2011-2014, The OpenBLAS Project


Your calculation utilizes the atom-pairwise dispersion correction
with the zero-damping scheme (D30)
Cite in your paper:
S.Grimme, J.Antony, S.Ehrlich and H.Krieg, J.Chem.Phys., 132, (2010), 154104 
   

XCFun DFT library Copyright 2009-2010 Ulf Ekstrom and contributors.
See http://admol.org/xcfun for more information.
This is free software; see the source code for copying conditions.
There is ABSOLUTELY NO WARRANTY; not even for MERCHANTABILITY or FITNESS FOR A PARTICULAR PURPOSE.
For details see the documentation.
Scientific users of this library should cite U. Ekstrom, L. Visscher, R. Bast, A. J. Thorvaldsen and K. Ruud;
J.Chem.Theor.Comp. 2010, DOI: 10.1021/ct100117s
XCFun Version 0.99 

================================================================================

----- Orbital basis set information -----
Your calculation utilizes the basis: def2-SVPD
   F. Weigend and R. Ahlrichs, Phys. Chem. Chem. Phys. 7, 3297 (2005).
   D. Rappoport and F. Furche, J. Chem. Phys. 133 134105 (2010).

----- AuxJ basis set information -----
Your calculation utilizes the auxiliary basis: def2/J
   F. Weigend, Phys. Chem. Chem. Phys. 8, 1057 (2006).

================================================================================
                                        WARNINGS
                       Please study these warnings very carefully!
================================================================================


WARNING: Minnesota functionals are quite sensitive to the integration grid.
         see SE Wheeler, KN Houk, JCTC 2010, 6, 395,
             N Mardirossian, M Head-Gordon, JCTC 2016, 12, 4303.
         DEFGRID3 seems to be a minimum grid for reliable results with these functionals!
  ===> : Please increase the integration grid!


INFO   : the flag for use of the SHARK integral package has been found!

================================================================================
                                       INPUT FILE
================================================================================
NAME = SVPD_M062X_C1_wt_dlpno_neg.com
|  1> !M062X D3Zero RIJCOSX def2-SVPD def2/J TightSCF
|  2> *xyz 0 1
|  3> C          3.76678       -2.26611       -6.51175
|  4> C          2.49670       -1.84416       -5.73570
|  5> H          1.62642       -2.21743       -6.30895
|  6> H          2.48182       -2.45607       -4.79341
|  7> F          2.45973       -0.50920       -5.50576
|  8> H          3.82914       -1.70941       -7.42340
|  9> H          3.71764       -3.31144       -6.73483
| 10> H          4.63199       -2.06931       -5.91377
| 11> *
| 12> 
| 13> %MaxCore 64000
| 14> 
| 15> %pal nprocs 4
| 16> end  
| 17> 
| 18> %scf
| 19>   MaxIter 150
| 20> end
| 21> 
| 22> 
| 23>                          ****END OF INPUT****
================================================================================

                       ****************************
                       * Single Point Calculation *
                       ****************************

---------------------------------
CARTESIAN COORDINATES (ANGSTROEM)
---------------------------------
  C      3.766780   -2.266110   -6.511750
  C      2.496700   -1.844160   -5.735700
  H      1.626420   -2.217430   -6.308950
  H      2.481820   -2.456070   -4.793410
  F      2.459730   -0.509200   -5.505760
  H      3.829140   -1.709410   -7.423400
  H      3.717640   -3.311440   -6.734830
  H      4.631990   -2.069310   -5.913770

----------------------------
CARTESIAN COORDINATES (A.U.)
----------------------------
  NO LB      ZA    FRAG     MASS         X           Y           Z
   0 C     6.0000    0    12.011    7.118183   -4.282327  -12.305424
   1 C     6.0000    0    12.011    4.718079   -3.484957  -10.838902
   2 H     1.0000    0     1.008    3.073488   -4.190335  -11.922188
   3 H     1.0000    0     1.008    4.689960   -4.641300   -9.058232
   4 F     9.0000    0    18.998    4.648216   -0.962249  -10.404379
   5 H     1.0000    0     1.008    7.236026   -3.230317  -14.028193
   6 H     1.0000    0     1.008    7.025321   -6.257715  -12.726984
   7 H     1.0000    0     1.008    8.753193   -3.910429  -11.175406

--------------------------------
INTERNAL COORDINATES (ANGSTROEM)
--------------------------------
 C      0   0   0     0.000000000000     0.00000000     0.00000000
 C      1   0   0     1.547061282367     0.00000000     0.00000000
 H      2   1   0     1.106947755678   107.07915659     0.00000000
 H      2   1   3     1.123639491385   106.43993875   110.65211482
 F      2   1   3     1.355122646147   112.09846273   234.91341867
 H      1   2   3     1.070004384150   109.47126303    69.34765002
 H      1   2   3     1.069997306025   109.47131957   309.34790392
 H      1   2   3     1.069999375934   109.47118058   189.34769936

---------------------------
INTERNAL COORDINATES (A.U.)
---------------------------
 C      0   0   0     0.000000000000     0.00000000     0.00000000
 C      1   0   0     2.923522136067     0.00000000     0.00000000
 H      2   1   0     2.091828102790   107.07915659     0.00000000
 H      2   1   3     2.123370911976   106.43993875   110.65211482
 F      2   1   3     2.560810679092   112.09846273   234.91341867
 H      1   2   3     2.022015248138   109.47126303    69.34765002
 H      1   2   3     2.022001872420   109.47131957   309.34790392
 H      1   2   3     2.022005783983   109.47118058   189.34769936

---------------------
BASIS SET INFORMATION
---------------------
There are 3 groups of distinct atoms

 Group   1 Type C   : 8s4p2d contracted to 4s2p2d pattern {5111/31/11}
 Group   2 Type H   : 4s2p contracted to 2s2p pattern {31/11}
 Group   3 Type F   : 8s5p2d contracted to 4s3p2d pattern {5111/311/11}

Atom   0C    basis set group =>   1
Atom   1C    basis set group =>   1
Atom   2H    basis set group =>   2
Atom   3H    basis set group =>   2
Atom   4F    basis set group =>   3
Atom   5H    basis set group =>   2
Atom   6H    basis set group =>   2
Atom   7H    basis set group =>   2
---------------------------------
AUXILIARY/J BASIS SET INFORMATION
---------------------------------
There are 3 groups of distinct atoms

 Group   1 Type C   : 12s5p4d2f1g contracted to 6s4p3d1f1g pattern {711111/2111/211/2/1}
 Group   2 Type H   : 5s2p1d contracted to 3s1p1d pattern {311/2/1}
 Group   3 Type F   : 12s5p4d2f1g contracted to 6s4p3d1f1g pattern {711111/2111/211/2/1}

Atom   0C    basis set group =>   1
Atom   1C    basis set group =>   1
Atom   2H    basis set group =>   2
Atom   3H    basis set group =>   2
Atom   4F    basis set group =>   3
Atom   5H    basis set group =>   2
Atom   6H    basis set group =>   2
Atom   7H    basis set group =>   2


           ************************************************************
           *        Program running with 4 parallel MPI-processes     *
           *              working on a common directory               *
           ************************************************************
------------------------------------------------------------------------------
                           ORCA GTO INTEGRAL CALCULATION
                           -- RI-GTO INTEGRALS CHOSEN --
------------------------------------------------------------------------------
------------------------------------------------------------------------------
                   ___                                                        
                  /   \      - P O W E R E D   B Y -                         
                 /     \                                                     
                 |  |  |   _    _      __       _____    __    __             
                 |  |  |  | |  | |    /  \     |  _  \  |  |  /  |          
                  \  \/   | |  | |   /    \    | | | |  |  | /  /          
                 / \  \   | |__| |  /  /\  \   | |_| |  |  |/  /          
                |  |  |   |  __  | /  /__\  \  |    /   |      \           
                |  |  |   | |  | | |   __   |  |    \   |  |\   \          
                \     /   | |  | | |  |  |  |  | |\  \  |  | \   \       
                 \___/    |_|  |_| |__|  |__|  |_| \__\ |__|  \__/        
                                                                              
                      - O R C A' S   B I G   F R I E N D -                    
                                      &                                       
                       - I N T E G R A L  F E E D E R -                       
                                                                              
 v1 FN, 2020, v2 2021                                                         
------------------------------------------------------------------------------


Reading SHARK input file SVPD_M062X_C1_wt_dlpno_neg.SHARKINP.tmp ... ok
----------------------
SHARK INTEGRAL PACKAGE
----------------------

Number of atoms                             ...      8
Number of basis functions                   ...    103
Number of shells                            ...     45
Maximum angular momentum                    ...      2
Integral batch strategy                     ... SHARK/LIBINT Hybrid
RI-J (if used) integral strategy            ... SPLIT-RIJ (Revised 2003 algorithm where possible)
Printlevel                                  ...      1
Contraction scheme used                     ... SEGMENTED contraction
Coulomb Range Separation                    ... NOT USED
Exchange Range Separation                   ... NOT USED
Finite Nucleus Model                        ... NOT USED
Auxiliary Coulomb fitting basis             ... AVAILABLE
   # of basis functions in Aux-J            ...    202
   # of shells in Aux-J                     ...     70
   Maximum angular momentum in Aux-J        ...      4
Auxiliary J/K fitting basis                 ... NOT available
Auxiliary Correlation fitting basis         ... NOT available
Auxiliary 'external' fitting basis          ... NOT available
Integral threshold                          ...     2.500000e-11
Primitive cut-off                           ...     2.500000e-12
Primitive pair pre-selection threshold      ...     2.500000e-12

Calculating pre-screening integrals         ... done (  0.0 sec) Dimension = 45
Organizing shell pair data                  ... done (  0.0 sec)
Shell pair information
Total number of shell pairs                 ...      1035
Shell pairs after pre-screening             ...      1033
Total number of primitive shell pairs       ...      2755
Primitive shell pairs kept                  ...      2483
          la=0 lb=0:    252 shell pairs
          la=1 lb=0:    373 shell pairs
          la=1 lb=1:    153 shell pairs
          la=2 lb=0:    132 shell pairs
          la=2 lb=1:    102 shell pairs
          la=2 lb=2:     21 shell pairs

Calculating one electron integrals          ... done (  0.0 sec)
Calculating RI/J V-Matrix + Cholesky decomp.... done (  0.0 sec)
Calculating Nuclear repulsion               ... done (  0.0 sec) ENN=     79.252359188221 Eh

SHARK setup successfully completed in   0.2 seconds

Maximum memory used throughout the entire GTOINT-calculation: 8.8 MB


           ************************************************************
           *        Program running with 4 parallel MPI-processes     *
           *              working on a common directory               *
           ************************************************************
-------------------------------------------------------------------------------
                                 ORCA SCF
-------------------------------------------------------------------------------

------------
SCF SETTINGS
------------
Hamiltonian:
 Density Functional     Method          .... DFT(GTOs)
 Exchange Functional    Exchange        .... M062X
 Correlation Functional Correlation     .... M062X
 Gradients option       PostSCFGGA      .... off
 Hybrid DFT is turned on
   Fraction HF Exchange ScalHFX         ....  0.540000
   Scaling of DF-GGA-X  ScalDFX         ....  0.460000
   Scaling of DF-GGA-C  ScalDFC         ....  1.000000
   Scaling of DF-LDA-C  ScalLDAC        ....  1.000000
   Perturbative correction              ....  0.000000
   Density functional embedding theory  .... OFF
 RI-approximation to the Coulomb term is turned on
   Number of AuxJ basis functions       .... 202
   RIJ-COSX (HFX calculated with COS-X)).... on


General Settings:
 Integral files         IntName         .... SVPD_M062X_C1_wt_dlpno_neg
 Hartree-Fock type      HFTyp           .... RHF
 Total Charge           Charge          ....    0
 Multiplicity           Mult            ....    1
 Number of Electrons    NEL             ....   26
 Basis Dimension        Dim             ....  103
 Nuclear Repulsion      ENuc            ....     79.2523591882 Eh

Convergence Acceleration:
 DIIS                   CNVDIIS         .... on
   Start iteration      DIISMaxIt       ....    12
   Startup error        DIISStart       ....  0.200000
   # of expansion vecs  DIISMaxEq       ....     5
   Bias factor          DIISBfac        ....   1.050
   Max. coefficient     DIISMaxC        ....  10.000
 Trust-Rad. Augm. Hess. CNVTRAH         .... auto
   Auto Start mean grad. ratio tolernc. ....  1.125000
   Auto Start start iteration           ....    20
   Auto Start num. interpolation iter.  ....    10
   Max. Number of Micro iterations      ....    16
   Max. Number of Macro iterations      .... Maxiter - #DIIS iter
   Number of Davidson start vectors     ....     2
   Converg. threshold I  (grad. norm)   ....   1.000e-05
   Converg. threshold II (energy diff.) ....   1.000e-08
   Grad. Scal. Fac. for Micro threshold ....   0.100
   Minimum threshold for Micro iter.    ....   0.010
   NR start threshold (gradient norm)   ....   0.001
   Initial trust radius                 ....   0.400
   Minimum AH scaling param. (alpha)    ....   1.000
   Maximum AH scaling param. (alpha)    .... 1000.000
   Orbital update algorithm             .... Taylor
   White noise on init. David. guess    .... on
   Maximum white noise                  ....   0.010
   Quad. conv. algorithm                .... NR
 SOSCF                  CNVSOSCF        .... on
   Start iteration      SOSCFMaxIt      ....   150
   Startup grad/error   SOSCFStart      ....  0.003300
 Level Shifting         CNVShift        .... on
   Level shift para.    LevelShift      ....    0.2500
   Turn off err/grad.   ShiftErr        ....    0.0010
 Zerner damping         CNVZerner       .... off
 Static damping         CNVDamp         .... on
   Fraction old density DampFac         ....    0.7000
   Max. Damping (<1)    DampMax         ....    0.9800
   Min. Damping (>=0)   DampMin         ....    0.0000
   Turn off err/grad.   DampErr         ....    0.1000
 Fernandez-Rico         CNVRico         .... off

SCF Procedure:
 Maximum # iterations   MaxIter         ....   150
 SCF integral mode      SCFMode         .... Direct
   Integral package                     .... SHARK and LIBINT hybrid scheme
 Reset frequency        DirectResetFreq ....    20
 Integral Threshold     Thresh          ....  2.500e-11 Eh
 Primitive CutOff       TCut            ....  2.500e-12 Eh

Convergence Tolerance:
 Convergence Check Mode ConvCheckMode   .... Total+1el-Energy
 Convergence forced     ConvForced      .... 0
 Energy Change          TolE            ....  1.000e-08 Eh
 1-El. energy change                    ....  1.000e-05 Eh
 Orbital Gradient       TolG            ....  1.000e-05
 Orbital Rotation angle TolX            ....  1.000e-05
 DIIS Error             TolErr          ....  5.000e-07


Diagonalization of the overlap matrix:
Smallest eigenvalue                        ... 3.596e-04
Time for diagonalization                   ...    0.004 sec
Threshold for overlap eigenvalues          ... 1.000e-08
Number of eigenvalues below threshold      ... 0
Time for construction of square roots      ...    0.003 sec
Total time needed                          ...    0.007 sec

Time for model grid setup =    0.052 sec

------------------------------
INITIAL GUESS: MODEL POTENTIAL
------------------------------
Loading Hartree-Fock densities                     ... done
Calculating cut-offs                               ... done
Initializing the effective Hamiltonian             ... done
Setting up the integral package (SHARK)            ... done
Starting the Coulomb interaction                   ... done (   0.0 sec)
Reading the grid                                   ... done
Mapping shells                                     ... done
Starting the XC term evaluation                    ... done (   0.0 sec)
  promolecular density results
     # of electrons  =     25.996743419
     EX              =    -21.684063186
     EC              =     -0.848472915
     EX+EC           =    -22.532536101
Transforming the Hamiltonian                       ... done (   0.0 sec)
Diagonalizing the Hamiltonian                      ... done (   0.0 sec)
Back transforming the eigenvectors                 ... done (   0.0 sec)
Now organizing SCF variables                       ... done
                      ------------------
                      INITIAL GUESS DONE (   0.1 sec)
                      ------------------
-------------------
DFT GRID GENERATION
-------------------

General Integration Accuracy     IntAcc      ... 4.388
Radial Grid Type                 RadialGrid  ... OptM3 with GC (2021)
Angular Grid (max. ang.)         AngularGrid ... 4 (Lebedev-302)
Angular grid pruning method      GridPruning ... 4 (adaptive)
Weight generation scheme         WeightScheme... Becke
Basis function cutoff            BFCut       ... 1.0000e-11
Integration weight cutoff        WCut        ... 1.0000e-14
Angular grids for H and He will be reduced by one unit
Partially contracted basis set               ... off
Rotationally invariant grid construction     ... off

Total number of grid points                  ...    35902
Total number of batches                      ...      565
Average number of points per batch           ...       63
Average number of grid points per atom       ...     4488
Time for grid setup =    0.225 sec

--------------------
COSX GRID GENERATION
--------------------

GRIDX 1
-------
General Integration Accuracy     IntAcc      ... 3.816
Radial Grid Type                 RadialGrid  ... OptM3 with GC (2021)
Angular Grid (max. ang.)         AngularGrid ... 1 (Lebedev-50)
Angular grid pruning method      GridPruning ... 4 (adaptive)
Weight generation scheme         WeightScheme... Becke
Basis function cutoff            BFCut       ... 1.0000e-11
Integration weight cutoff        WCut        ... 1.0000e-14
Angular grids for H and He will be reduced by one unit
Partially contracted basis set               ... on
Rotationally invariant grid construction     ... off

Total number of grid points                  ...     4509
Total number of batches                      ...       75
Average number of points per batch           ...       60
Average number of grid points per atom       ...      564
UseSFitting                                  ... on

GRIDX 2
-------
General Integration Accuracy     IntAcc      ... 4.020
Radial Grid Type                 RadialGrid  ... OptM3 with GC (2021)
Angular Grid (max. ang.)         AngularGrid ... 2 (Lebedev-110)
Angular grid pruning method      GridPruning ... 4 (adaptive)
Weight generation scheme         WeightScheme... Becke
Basis function cutoff            BFCut       ... 1.0000e-11
Integration weight cutoff        WCut        ... 1.0000e-14
Angular grids for H and He will be reduced by one unit
Partially contracted basis set               ... on
Rotationally invariant grid construction     ... off

Total number of grid points                  ...    10349
Total number of batches                      ...      166
Average number of points per batch           ...       62
Average number of grid points per atom       ...     1294
UseSFitting                                  ... on

GRIDX 3
-------
General Integration Accuracy     IntAcc      ... 4.338
Radial Grid Type                 RadialGrid  ... OptM3 with GC (2021)
Angular Grid (max. ang.)         AngularGrid ... 3 (Lebedev-194)
Angular grid pruning method      GridPruning ... 4 (adaptive)
Weight generation scheme         WeightScheme... Becke
Basis function cutoff            BFCut       ... 1.0000e-11
Integration weight cutoff        WCut        ... 1.0000e-14
Angular grids for H and He will be reduced by one unit
Partially contracted basis set               ... on
Rotationally invariant grid construction     ... off

Total number of grid points                  ...    23703
Total number of batches                      ...      375
Average number of points per batch           ...       63
Average number of grid points per atom       ...     2963
UseSFitting                                  ... on

Time for X-Grid setup             =    0.183 sec

--------------
SCF ITERATIONS
--------------
ITER       Energy         Delta-E        Max-DP      RMS-DP      [F,P]     Damp
               ***  Starting incremental Fock matrix formation  ***
  0   -178.7757762858   0.000000000000 0.10573171  0.00250782  0.1717159 0.7000
  1   -178.8053624315  -0.029586145730 0.06052621  0.00159701  0.0989545 0.7000
                               ***Turning on DIIS***
  2   -178.8202319078  -0.014869476304 0.09777723  0.00290667  0.0469874 0.0000
  3   -178.8430942844  -0.022862376591 0.05105223  0.00123844  0.0435658 0.0000
  4   -178.8472136035  -0.004119319113 0.00434974  0.00016030  0.0044441 0.0000
                      *** Initiating the SOSCF procedure ***
                           *** Shutting down DIIS ***
                      *** Re-Reading the Fockian *** 
                      *** Removing any level shift *** 
ITER      Energy       Delta-E        Grad      Rot      Max-DP    RMS-DP
  5   -178.84727945  -0.0000658476  0.000341  0.000341  0.000872  0.000049
               *** Restarting incremental Fock matrix formation ***
  6   -178.84728471  -0.0000052637  0.000166  0.000290  0.000928  0.000057
  7   -178.84728500  -0.0000002852  0.000141  0.000073  0.000314  0.000015
  8   -178.84728567  -0.0000006700  0.000016  0.000025  0.000082  0.000005
  9   -178.84728568  -0.0000000097  0.000011  0.000009  0.000036  0.000001
                 **** Energy Check signals convergence ****
              ***Rediagonalizing the Fockian in SOSCF/NRSCF***

               *****************************************************
               *                     SUCCESS                       *
               *           SCF CONVERGED AFTER  10 CYCLES          *
               *****************************************************

Old exchange energy                            =    -11.964085754 Eh
New exchange energy                            =    -11.964123855 Eh
Exchange energy change after final integration =     -0.000038100 Eh
Total energy after final integration           =   -178.847323781 Eh
Final COS-X integration done in                =     0.665 sec

----------------
TOTAL SCF ENERGY
----------------

Total Energy       :         -178.84732378 Eh           -4866.68310 eV

Components:
Nuclear Repulsion  :           79.25235919 Eh            2156.56633 eV
Electronic Energy  :         -258.09968297 Eh           -7023.24943 eV
One Electron Energy:         -401.47133263 Eh          -10924.59036 eV
Two Electron Energy:          143.37164966 Eh            3901.34093 eV
Max COSX asymmetry :            0.00000680 Eh               0.00018 eV

Virial components:
Potential Energy   :         -356.12548215 Eh           -9690.66703 eV
Kinetic Energy     :          177.27815837 Eh            4823.98394 eV
Virial Ratio       :            2.00885143


DFT components:
N(Alpha)           :       13.000032577923 electrons
N(Beta)            :       13.000032577923 electrons
N(Total)           :       26.000065155846 electrons
E(XC)              :      -11.100467823868 Eh       
DFET-embed. en.    :        0.000000000000 Eh       

---------------
SCF CONVERGENCE
---------------

  Last Energy change         ...   -5.9578e-10  Tolerance :   1.0000e-08
  Last MAX-Density change    ...    3.9968e-15  Tolerance :   1.0000e-07
  Last RMS-Density change    ...    5.5312e-17  Tolerance :   5.0000e-09
  Last Orbital Gradient      ...    5.2058e-07  Tolerance :   1.0000e-05
  Last Orbital Rotation      ...    1.1744e-06  Tolerance :   1.0000e-05

             **** THE GBW FILE WAS UPDATED (SVPD_M062X_C1_wt_dlpno_neg.gbw) ****
             **** DENSITY SVPD_M062X_C1_wt_dlpno_neg.scfp WAS UPDATED ****
             **** ENERGY FILE WAS UPDATED (SVPD_M062X_C1_wt_dlpno_neg.en.tmp) ****
             **** THE GBW FILE WAS UPDATED (SVPD_M062X_C1_wt_dlpno_neg.gbw) ****
             **** DENSITY SVPD_M062X_C1_wt_dlpno_neg.scfp WAS UPDATED ****
----------------
ORBITAL ENERGIES
----------------

  NO   OCC          E(Eh)            E(eV) 
   0   2.0000     -25.247661      -687.0238 
   1   2.0000     -10.633297      -289.3467 
   2   2.0000     -10.546564      -286.9866 
   3   2.0000      -1.327726       -36.1293 
   4   2.0000      -0.852364       -23.1940 
   5   2.0000      -0.716968       -19.5097 
   6   2.0000      -0.595977       -16.2174 
   7   2.0000      -0.583982       -15.8910 
   8   2.0000      -0.549369       -14.9491 
   9   2.0000      -0.482094       -13.1185 
  10   2.0000      -0.468129       -12.7385 
  11   2.0000      -0.404483       -11.0065 
  12   2.0000      -0.398699       -10.8492 
  13   0.0000       0.039913         1.0861 
  14   0.0000       0.069673         1.8959 
  15   0.0000       0.100436         2.7330 
  16   0.0000       0.105644         2.8747 
  17   0.0000       0.134634         3.6636 
  18   0.0000       0.143167         3.8958 
  19   0.0000       0.145598         3.9619 
  20   0.0000       0.169531         4.6132 
  21   0.0000       0.171167         4.6577 
  22   0.0000       0.190264         5.1773 
  23   0.0000       0.207904         5.6573 
  24   0.0000       0.217451         5.9171 
  25   0.0000       0.242953         6.6111 
  26   0.0000       0.252128         6.8608 
  27   0.0000       0.294216         8.0060 
  28   0.0000       0.305416         8.3108 
  29   0.0000       0.313446         8.5293 
  30   0.0000       0.324389         8.8271 
  31   0.0000       0.356316         9.6958 
  32   0.0000       0.357083         9.7167 
  33   0.0000       0.366597         9.9756 
  34   0.0000       0.371939        10.1210 
  35   0.0000       0.387526        10.5451 
  36   0.0000       0.399816        10.8795 
  37   0.0000       0.403001        10.9662 
  38   0.0000       0.411153        11.1880 
  39   0.0000       0.424527        11.5520 
  40   0.0000       0.451825        12.2948 
  41   0.0000       0.472807        12.8657 
  42   0.0000       0.484600        13.1866 
  43   0.0000       0.490142        13.3375 
  44   0.0000       0.499317        13.5871 
  45   0.0000       0.507887        13.8203 
  46   0.0000       0.522853        14.2276 
  47   0.0000       0.539942        14.6926 
  48   0.0000       0.564861        15.3707 
  49   0.0000       0.569923        15.5084 
  50   0.0000       0.588918        16.0253 
  51   0.0000       0.750545        20.4234 
  52   0.0000       0.775822        21.1112 
  53   0.0000       0.801170        21.8009 
  54   0.0000       0.833634        22.6843 
  55   0.0000       0.858425        23.3589 
  56   0.0000       0.876193        23.8424 
  57   0.0000       0.912522        24.8310 
  58   0.0000       0.953985        25.9592 
  59   0.0000       0.981306        26.7027 
  60   0.0000       1.007984        27.4286 
  61   0.0000       1.053200        28.6590 
  62   0.0000       1.055169        28.7126 
  63   0.0000       1.060911        28.8688 
  64   0.0000       1.110293        30.2126 
  65   0.0000       1.121510        30.5178 
  66   0.0000       1.231754        33.5177 
  67   0.0000       1.257130        34.2082 
  68   0.0000       1.304785        35.5050 
  69   0.0000       1.576568        42.9006 
  70   0.0000       1.606808        43.7235 
  71   0.0000       1.634390        44.4740 
  72   0.0000       1.668257        45.3956 
  73   0.0000       1.720759        46.8242 
  74   0.0000       1.728927        47.0465 
  75   0.0000       1.858279        50.5663 
  76   0.0000       1.889485        51.4155 
  77   0.0000       1.900170        51.7062 
  78   0.0000       1.934507        52.6406 
  79   0.0000       2.012627        54.7664 
  80   0.0000       2.042399        55.5765 
  81   0.0000       2.053203        55.8705 
  82   0.0000       2.066535        56.2333 
  83   0.0000       2.087639        56.8076 
  84   0.0000       2.155610        58.6571 
  85   0.0000       2.236724        60.8644 
  86   0.0000       2.356115        64.1131 
  87   0.0000       2.421070        65.8807 
  88   0.0000       2.445199        66.5373 
  89   0.0000       2.496853        67.9428 
  90   0.0000       2.518995        68.5453 
  91   0.0000       2.661667        72.4276 
  92   0.0000       2.669088        72.6296 
  93   0.0000       2.820470        76.7489 
  94   0.0000       2.993389        81.4543 
  95   0.0000       3.011751        81.9539 
  96   0.0000       3.118824        84.8675 
  97   0.0000       3.149644        85.7062 
  98   0.0000       3.480767        94.7165 
  99   0.0000       3.482177        94.7549 
 100   0.0000       3.576942        97.3335 
 101   0.0000       3.593746        97.7908 
 102   0.0000       3.988917       108.5440 

                    ********************************
                    * MULLIKEN POPULATION ANALYSIS *
                    ********************************

-----------------------
MULLIKEN ATOMIC CHARGES
-----------------------
   0 C :    0.236000
   1 C :    0.366201
   2 H :   -0.045753
   3 H :   -0.005752
   4 F :   -0.465976
   5 H :   -0.040898
   6 H :   -0.013382
   7 H :   -0.030439
Sum of atomic charges:   -0.0000000

--------------------------------
MULLIKEN REDUCED ORBITAL CHARGES
--------------------------------
  0 C s       :     2.667907  s :     2.667907
      pz      :     0.971627  p :     2.950288
      px      :     1.017030
      py      :     0.961631
      dz2     :     0.051576  d :     0.145805
      dxz     :     0.026833
      dyz     :     0.003537
      dx2y2   :     0.043145
      dxy     :     0.020713
  1 C s       :     2.805635  s :     2.805635
      pz      :     0.976106  p :     2.548434
      px      :     1.001064
      py      :     0.571264
      dz2     :     0.050772  d :     0.279730
      dxz     :     0.045563
      dyz     :     0.051593
      dx2y2   :     0.075779
      dxy     :     0.056025
  2 H s       :     1.019247  s :     1.019247
      pz      :     0.005544  p :     0.026506
      px      :     0.024759
      py      :    -0.003797
  3 H s       :     0.981579  s :     0.981579
      pz      :     0.040307  p :     0.024173
      px      :    -0.022365
      py      :     0.006232
  4 F s       :     3.991351  s :     3.991351
      pz      :     1.957620  p :     5.435300
      px      :     1.973759
      py      :     1.503922
      dz2     :     0.001379  d :     0.039324
      dxz     :     0.002179
      dyz     :     0.015212
      dx2y2   :     0.009487
      dxy     :     0.011067
  5 H s       :     0.992770  s :     0.992770
      pz      :     0.033506  p :     0.048129
      px      :    -0.003308
      py      :     0.017931
  6 H s       :     0.983483  s :     0.983483
      pz      :    -0.016922  p :     0.029899
      px      :    -0.006928
      py      :     0.053749
  7 H s       :     0.985059  s :     0.985059
      pz      :     0.021697  p :     0.045380
      px      :     0.033737
      py      :    -0.010054


                     *******************************
                     * LOEWDIN POPULATION ANALYSIS *
                     *******************************

----------------------
LOEWDIN ATOMIC CHARGES
----------------------
   0 C :    0.136534
   1 C :    0.070324
   2 H :    0.027983
   3 H :    0.037888
   4 F :   -0.227277
   5 H :   -0.015013
   6 H :   -0.014691
   7 H :   -0.015748

-------------------------------
LOEWDIN REDUCED ORBITAL CHARGES
-------------------------------
  0 C s       :     2.711671  s :     2.711671
      pz      :     0.936523  p :     2.787072
      px      :     0.916215
      py      :     0.934334
      dz2     :     0.079440  d :     0.364723
      dxz     :     0.097971
      dyz     :     0.044828
      dx2y2   :     0.108980
      dxy     :     0.033504
  1 C s       :     2.681860  s :     2.681860
      pz      :     0.912884  p :     2.513499
      px      :     0.915258
      py      :     0.685357
      dz2     :     0.103418  d :     0.734318
      dxz     :     0.105155
      dyz     :     0.174485
      dx2y2   :     0.191986
      dxy     :     0.159274
  2 H s       :     0.742918  s :     0.742918
      pz      :     0.085764  p :     0.229099
      px      :     0.098531
      py      :     0.044804
  3 H s       :     0.739430  s :     0.739430
      pz      :     0.107519  p :     0.222683
      px      :     0.060608
      py      :     0.054556
  4 F s       :     3.657773  s :     3.657773
      pz      :     1.877676  p :     5.337012
      px      :     1.883603
      py      :     1.575733
      dz2     :     0.019634  d :     0.232492
      dxz     :     0.006585
      dyz     :     0.077645
      dx2y2   :     0.054738
      dxy     :     0.073890
  5 H s       :     0.743215  s :     0.743215
      pz      :     0.113127  p :     0.271798
      px      :     0.066913
      py      :     0.091759
  6 H s       :     0.742615  s :     0.742615
      pz      :     0.074166  p :     0.272076
      px      :     0.067665
      py      :     0.130245
  7 H s       :     0.744039  s :     0.744039
      pz      :     0.091801  p :     0.271709
      px      :     0.103684
      py      :     0.076224


                      *****************************
                      * MAYER POPULATION ANALYSIS *
                      *****************************

  NA   - Mulliken gross atomic population
  ZA   - Total nuclear charge
  QA   - Mulliken gross atomic charge
  VA   - Mayer's total valence
  BVA  - Mayer's bonded valence
  FA   - Mayer's free valence

  ATOM       NA         ZA         QA         VA         BVA        FA
  0 C      5.7640     6.0000     0.2360     4.2403     4.2403    -0.0000
  1 C      5.6338     6.0000     0.3662     4.3142     4.3142    -0.0000
  2 H      1.0458     1.0000    -0.0458     1.0568     1.0568    -0.0000
  3 H      1.0058     1.0000    -0.0058     1.0494     1.0494    -0.0000
  4 F      9.4660     9.0000    -0.4660     0.7563     0.7563    -0.0000
  5 H      1.0409     1.0000    -0.0409     1.0861     1.0861    -0.0000
  6 H      1.0134     1.0000    -0.0134     1.0499     1.0499    -0.0000
  7 H      1.0304     1.0000    -0.0304     1.0693     1.0693    -0.0000

  Mayer bond orders larger than 0.100000
B(  0-C ,  1-C ) :   1.3346 B(  0-C ,  5-H ) :   0.9101 B(  0-C ,  6-H ) :   0.8784 
B(  0-C ,  7-H ) :   0.9050 B(  1-C ,  2-H ) :   0.9618 B(  1-C ,  3-H ) :   0.9590 
B(  1-C ,  4-F ) :   0.6911 B(  1-C ,  5-H ) :   0.1336 B(  1-C ,  6-H ) :   0.1066 
B(  1-C ,  7-H ) :   0.1275 

-------
TIMINGS
-------

Total SCF time: 0 days 0 hours 0 min 5 sec 

Total time                  ....       5.606 sec
Sum of individual times     ....       5.480 sec  ( 97.8%)

Fock matrix formation       ....       4.905 sec  ( 87.5%)
  Split-RI-J                ....       0.352 sec  (  7.2% of F)
  Chain of spheres X        ....       2.661 sec  ( 54.3% of F)
  XC integration            ....       1.874 sec  ( 38.2% of F)
    Basis function eval.    ....       0.345 sec  ( 18.4% of XC)
    Density eval.           ....       0.531 sec  ( 28.3% of XC)
    XC-Functional eval.     ....       0.223 sec  ( 11.9% of XC)
    XC-Potential eval.      ....       0.717 sec  ( 38.3% of XC)
Diagonalization             ....       0.019 sec  (  0.3%)
Density matrix formation    ....       0.002 sec  (  0.0%)
Population analysis         ....       0.004 sec  (  0.1%)
Initial guess               ....       0.065 sec  (  1.2%)
Orbital Transformation      ....       0.000 sec  (  0.0%)
Orbital Orthonormalization  ....       0.000 sec  (  0.0%)
DIIS solution               ....       0.014 sec  (  0.3%)
SOSCF solution              ....       0.012 sec  (  0.2%)
Grid generation             ....       0.459 sec  (  8.2%)

Maximum memory used throughout the entire SCF-calculation: 46.5 MB


-------------------------------------------------------------------------------
                          DFT DISPERSION CORRECTION                            
                                                                               
                              DFTD3 V3.1  Rev 1                                
                              USING zero damping                               
-------------------------------------------------------------------------------
The M062X functional is recognized
Active option DFTDOPT                   ...         3   

molecular C6(AA) [au] = 394.331146 


            DFT-D V3
 parameters
 s6 scaling factor         :     1.0000 
 rs6 scaling factor        :     1.6190 
 s8 scaling factor         :     0.0000 
 rs8 scaling factor        :     1.0000 
 Damping factor alpha6     :    14.0000 
 Damping factor alpha8     :    16.0000 
 ad hoc parameters k1-k3   :    16.0000     1.3333    -4.0000 

 Edisp/kcal,au: -0.011698706506  -0.000018643074 
 E6   /kcal   :  -0.011698707 
 E8   /kcal   :  -0.000000000 
 % E8         :   0.000000000 

-------------------------   ----------------
Dispersion correction           -0.000018643
-------------------------   ----------------


-------------------------   --------------------
FINAL SINGLE POINT ENERGY      -178.847342423899
-------------------------   --------------------


                            ***************************************
                            *     ORCA property calculations      *
                            ***************************************

                                    ---------------------
                                    Active property flags
                                    ---------------------
   (+) Dipole Moment


------------------------------------------------------------------------------
                       ORCA ELECTRIC PROPERTIES CALCULATION
------------------------------------------------------------------------------

Dipole Moment Calculation                       ... on
Quadrupole Moment Calculation                   ... off
Polarizability Calculation                      ... off
GBWName                                         ... SVPD_M062X_C1_wt_dlpno_neg.gbw
Electron density file                           ... SVPD_M062X_C1_wt_dlpno_neg.scfp
The origin for moment calculation is the CENTER OF MASS  = ( 5.441040, -2.787798 -11.132567)

-------------
DIPOLE MOMENT
-------------
                                X             Y             Z
Electronic contribution:     -2.07738       4.30755       1.80694
Nuclear contribution   :      2.16248      -5.01128      -1.96962
                        -----------------------------------------
Total Dipole Moment    :      0.08510      -0.70373      -0.16268
                        -----------------------------------------
Magnitude (a.u.)       :      0.72729
Magnitude (Debye)      :      1.84862



--------------------
Rotational spectrum 
--------------------
 
Rotational constants in cm-1:     1.244010     0.306580     0.270375 
Rotational constants in MHz : 37294.476802  9191.037795  8105.639967 

 Dipole components along the rotational axes: 
x,y,z [a.u.] :     0.625857    -0.370430    -0.005556 
x,y,z [Debye]:     1.590801    -0.941559    -0.014123 

 

Timings for individual modules:

Sum of individual times         ...       10.261 sec (=   0.171 min)
GTO integral calculation        ...        2.604 sec (=   0.043 min)  25.4 %
SCF iterations                  ...        7.657 sec (=   0.128 min)  74.6 %
                             ****ORCA TERMINATED NORMALLY****
TOTAL RUN TIME: 0 days 0 hours 0 minutes 10 seconds 765 msec
