
                                        *****************
                                        * O   R   C   A *
                                        *****************

                                            #,                                       
                                            ###                                      
                                            ####                                     
                                            #####                                    
                                            ######                                   
                                           ########,                                 
                                     ,,################,,,,,                         
                               ,,#################################,,                 
                          ,,##########################################,,             
                       ,#########################################, ''#####,          
                    ,#############################################,,   '####,        
                  ,##################################################,,,,####,       
                ,###########''''           ''''###############################       
              ,#####''   ,,,,##########,,,,          '''####'''          '####       
            ,##' ,,,,###########################,,,                        '##       
           ' ,,###''''                  '''############,,,                           
         ,,##''                                '''############,,,,        ,,,,,,###''
      ,#''                                            '''#######################'''  
     '                                                          ''''####''''         
             ,#######,   #######,   ,#######,      ##                                
            ,#'     '#,  ##    ##  ,#'     '#,    #''#        ######   ,####,        
            ##       ##  ##   ,#'  ##            #'  '#       #        #'  '#        
            ##       ##  #######   ##           ,######,      #####,   #    #        
            '#,     ,#'  ##    ##  '#,     ,#' ,#      #,         ##   #,  ,#        
             '#######'   ##     ##  '#######'  #'      '#     #####' # '####'        



                  #######################################################
                  #                        -***-                        #
                  #          Department of theory and spectroscopy      #
                  #    Directorship and core code : Frank Neese         #
                  #        Max Planck Institute fuer Kohlenforschung    #
                  #                Kaiser Wilhelm Platz 1               #
                  #                 D-45470 Muelheim/Ruhr               #
                  #                      Germany                        #
                  #                                                     #
                  #                  All rights reserved                #
                  #                        -***-                        #
                  #######################################################


                         Program Version 5.0.0 -  RELEASE  -
                                (SVN: $Rev: 19529$)
                ($Date: 2021-06-28 11:36:33 +0200 (Mo, 28 Jun 2021) $)


 With contributions from (in alphabetic order):
   Daniel Aravena         : Magnetic Suceptibility
   Michael Atanasov       : Ab Initio Ligand Field Theory (pilot matlab implementation)
   Alexander A. Auer      : GIAO ZORA, VPT2 properties, NMR spectrum
   Ute Becker             : Parallelization
   Giovanni Bistoni       : ED, misc. LED, open-shell LED, HFLD
   Martin Brehm           : Molecular dynamics
   Dmytro Bykov           : SCF Hessian
   Vijay G. Chilkuri      : MRCI spin determinant printing, contributions to CSF-ICE
   Dipayan Datta          : RHF DLPNO-CCSD density
   Achintya Kumar Dutta   : EOM-CC, STEOM-CC
   Dmitry Ganyushin       : Spin-Orbit,Spin-Spin,Magnetic field MRCI
   Miquel Garcia          : C-PCM Hessian, Gaussian charge scheme
   Yang Guo               : DLPNO-NEVPT2, F12-NEVPT2, CIM, IAO-localization
   Andreas Hansen         : Spin unrestricted coupled pair/coupled cluster methods
   Benjamin Helmich-Paris : MC-RPA, TRAH-SCF, COSX integrals
   Lee Huntington         : MR-EOM, pCC
   Robert Izsak           : Overlap fitted RIJCOSX, COSX-SCS-MP3, EOM
   Marcus Kettner         : VPT2
   Christian Kollmar      : KDIIS, OOCD, Brueckner-CCSD(T), CCSD density, CASPT2, CASPT2-K
   Simone Kossmann        : Meta GGA functionals, TD-DFT gradient, OOMP2, MP2 Hessian
   Martin Krupicka        : Initial AUTO-CI
   Lucas Lang             : DCDCAS
   Marvin Lechner         : AUTO-CI (C++ implementation), FIC-MRCC
   Dagmar Lenk            : GEPOL surface, SMD
   Dimitrios Liakos       : Extrapolation schemes; Compound Job, initial MDCI parallelization
   Dimitrios Manganas     : Further ROCIS development; embedding schemes
   Dimitrios Pantazis     : SARC Basis sets
   Anastasios Papadopoulos: AUTO-CI, single reference methods and gradients
   Taras Petrenko         : DFT Hessian,TD-DFT gradient, ASA, ECA, R-Raman, ABS, FL, XAS/XES, NRVS
   Peter Pinski           : DLPNO-MP2, DLPNO-MP2 Gradient
   Christoph Reimann      : Effective Core Potentials
   Marius Retegan         : Local ZFS, SOC
   Christoph Riplinger    : Optimizer, TS searches, QM/MM, DLPNO-CCSD(T), (RO)-DLPNO pert. Triples
   Tobias Risthaus        : Range-separated hybrids, TD-DFT gradient, RPA, STAB
   Michael Roemelt        : Original ROCIS implementation
   Masaaki Saitow         : Open-shell DLPNO-CCSD energy and density
   Barbara Sandhoefer     : DKH picture change effects
   Avijit Sen             : IP-ROCIS
   Kantharuban Sivalingam : CASSCF convergence, NEVPT2, FIC-MRCI
   Bernardo de Souza      : ESD, SOC TD-DFT
   Georgi Stoychev        : AutoAux, RI-MP2 NMR
   Willem Van den Heuvel  : Paramagnetic NMR
   Boris Wezisla          : Elementary symmetry handling
   Frank Wennmohs         : Technical directorship


 We gratefully acknowledge several colleagues who have allowed us to
 interface, adapt or use parts of their codes:
   Stefan Grimme, W. Hujo, H. Kruse, P. Pracht,  : VdW corrections, initial TS optimization,
                  C. Bannwarth, S. Ehlert          DFT functionals, gCP, sTDA/sTD-DF
   Ed Valeev, F. Pavosevic, A. Kumar             : LibInt (2-el integral package), F12 methods
   Garnet Chan, S. Sharma, J. Yang, R. Olivares  : DMRG
   Ulf Ekstrom                                   : XCFun DFT Library
   Mihaly Kallay                                 : mrcc  (arbitrary order and MRCC methods)
   Jiri Pittner, Ondrej Demel                    : Mk-CCSD
   Frank Weinhold                                : gennbo (NPA and NBO analysis)
   Christopher J. Cramer and Donald G. Truhlar   : smd solvation model
   Lars Goerigk                                  : TD-DFT with DH, B97 family of functionals
   V. Asgeirsson, H. Jonsson                     : NEB implementation
   FAccTs GmbH                                   : IRC, NEB, NEB-TS, DLPNO-Multilevel, CI-OPT
                                                   MM, QMMM, 2- and 3-layer-ONIOM, Crystal-QMMM,
                                                   LR-CPCM, SF, NACMEs, symmetry and pop. for TD-DFT,
                                                   nearIR, NL-DFT gradient (VV10), updates on ESD,
                                                   ML-optimized integration grids
   S Lehtola, MJT Oliveira, MAL Marques          : LibXC Library
   Liviu Ungur et al                             : ANISO software


 Your calculation uses the libint2 library for the computation of 2-el integrals
 For citations please refer to: http://libint.valeyev.net

 Your ORCA version has been built with support for libXC version: 5.1.0
 For citations please refer to: https://tddft.org/programs/libxc/

 This ORCA versions uses:
   CBLAS   interface :  Fast vector & matrix operations
   LAPACKE interface :  Fast linear algebra routines
   SCALAPACK package :  Parallel linear algebra routines
   Shared memory     :  Shared parallel matrices
   BLAS/LAPACK       :  OpenBLAS 0.3.15  USE64BITINT DYNAMIC_ARCH NO_AFFINITY Haswell SINGLE_THREADED
        Core in use  :  Haswell
   Copyright (c) 2011-2014, The OpenBLAS Project


Your calculation utilizes the atom-pairwise dispersion correction
with the Becke-Johnson damping scheme (D3BJ)
Cite in your paper:
S.Grimme, S.Ehrlich, L.Goerigk, J Comput Chem, (2011), 32, 1456–1465 
S.Grimme, J.Antony, S.Ehrlich and H.Krieg, J.Chem.Phys., 132, (2010), 154104 
   

================================================================================

----- Orbital basis set information -----
Your calculation utilizes the basis: def2-TZVP
   F. Weigend and R. Ahlrichs, Phys. Chem. Chem. Phys. 7, 3297 (2005).

----- AuxJ basis set information -----
Your calculation utilizes the auxiliary basis: def2/J
   F. Weigend, Phys. Chem. Chem. Phys. 8, 1057 (2006).

================================================================================
                                        WARNINGS
                       Please study these warnings very carefully!
================================================================================



WARNING: Found flag for RIJCOSX approximation but no HF exchange needed!
  ===> : RIJCOSX  will be disabled and Split-RI-J is turned on

INFO   : the flag for use of the SHARK integral package has been found!

================================================================================
                                       INPUT FILE
================================================================================
NAME = TZVP_BLYP_C1_wt_dlpno_neg.com
|  1> !BLYP D3BJ RIJCOSX def2-TZVP def2/J TightSCF
|  2> *xyz 0 1
|  3> C         -7.33044       -2.67899       -3.20681
|  4> S         -6.01966       -2.92697       -4.41913
|  5> F         -5.64583       -1.58838       -4.91931
|  6> O         -4.88196       -3.50370       -3.66724
|  7> O         -6.54927       -3.80515       -5.42507
|  8> C         -7.46900       -1.24615       -2.71383
|  9> H         -7.11825       -3.37982       -2.39805
| 10> H         -8.24184       -3.00474       -3.70651
| 11> H         -7.67580       -0.60214       -3.54292
| 12> H         -6.55749       -0.94096       -2.24382
| 13> H         -8.27114       -1.18777       -2.00810
| 14> *
| 15> %MaxCore 64000
| 16> 
| 17> %pal nprocs 4
| 18> end  
| 19> 
| 20> %scf
| 21>   MaxIter 150
| 22> end
| 23> 
| 24> 
| 25>                          ****END OF INPUT****
================================================================================

                       ****************************
                       * Single Point Calculation *
                       ****************************

---------------------------------
CARTESIAN COORDINATES (ANGSTROEM)
---------------------------------
  C     -7.330440   -2.678990   -3.206810
  S     -6.019660   -2.926970   -4.419130
  F     -5.645830   -1.588380   -4.919310
  O     -4.881960   -3.503700   -3.667240
  O     -6.549270   -3.805150   -5.425070
  C     -7.469000   -1.246150   -2.713830
  H     -7.118250   -3.379820   -2.398050
  H     -8.241840   -3.004740   -3.706510
  H     -7.675800   -0.602140   -3.542920
  H     -6.557490   -0.940960   -2.243820
  H     -8.271140   -1.187770   -2.008100

----------------------------
CARTESIAN COORDINATES (A.U.)
----------------------------
  NO LB      ZA    FRAG     MASS         X           Y           Z
   0 C     6.0000    0    12.011  -13.852524   -5.062557   -6.059993
   1 S    16.0000    0    32.060  -11.375509   -5.531172   -8.350945
   2 F     9.0000    0    18.998  -10.669072   -3.001603   -9.296149
   3 O     8.0000    0    15.999   -9.225567   -6.621033   -6.930079
   4 O     8.0000    0    15.999  -12.376327   -7.190691  -10.251897
   5 C     6.0000    0    12.011  -14.114364   -2.354882   -5.128395
   6 H     1.0000    0     1.008  -13.451543   -6.386934   -4.531658
   7 H     1.0000    0     1.008  -15.574820   -5.678136   -7.004289
   8 H     1.0000    0     1.008  -14.505160   -1.137880   -6.695149
   9 H     1.0000    0     1.008  -12.391860   -1.778157   -4.240205
  10 H     1.0000    0     1.008  -15.630189   -2.244560   -3.794759

--------------------------------
INTERNAL COORDINATES (ANGSTROEM)
--------------------------------
 C      0   0   0     0.000000000000     0.00000000     0.00000000
 S      1   0   0     1.802597589924     0.00000000     0.00000000
 F      2   1   0     1.477075519193   106.68484156     0.00000000
 O      2   1   3     1.480647613377   105.71170368   116.27732212
 O      2   1   3     1.436524329101   106.67637160   237.53370600
 C      1   2   3     1.521597390771   114.43469957   344.25628115
 H      1   2   3     1.090999552062   105.59041318   220.00070323
 H      1   2   3     1.089248875372   104.99648834   105.87797466
 H      6   1   2     1.070002499156   109.47078658    59.49944213
 H      6   1   2     1.070000381449   109.47091758   299.49982289
 H      6   1   2     1.069996092002   109.47134776   179.49931912

---------------------------
INTERNAL COORDINATES (A.U.)
---------------------------
 C      0   0   0     0.000000000000     0.00000000     0.00000000
 S      1   0   0     3.406415774623     0.00000000     0.00000000
 F      2   1   0     2.791268210395   106.68484156     0.00000000
 O      2   1   3     2.798018490127   105.71170368   116.27732212
 O      2   1   3     2.714637566716   106.67637160   237.53370600
 C      1   2   3     2.875402354646   114.43469957   344.25628115
 H      1   2   3     2.061690365628   105.59041318   220.00070323
 H      1   2   3     2.058382066136   104.99648834   105.87797466
 H      6   1   2     2.022011686016   109.47078658    59.49944213
 H      6   1   2     2.022007684129   109.47091758   299.49982289
 H      6   1   2     2.021999578250   109.47134776   179.49931912

---------------------
BASIS SET INFORMATION
---------------------
There are 5 groups of distinct atoms

 Group   1 Type C   : 11s6p2d1f contracted to 5s3p2d1f pattern {62111/411/11/1}
 Group   2 Type S   : 14s9p3d1f contracted to 5s5p2d1f pattern {73211/51111/21/1}
 Group   3 Type F   : 11s6p2d1f contracted to 5s3p2d1f pattern {62111/411/11/1}
 Group   4 Type O   : 11s6p2d1f contracted to 5s3p2d1f pattern {62111/411/11/1}
 Group   5 Type H   : 5s1p contracted to 3s1p pattern {311/1}

Atom   0C    basis set group =>   1
Atom   1S    basis set group =>   2
Atom   2F    basis set group =>   3
Atom   3O    basis set group =>   4
Atom   4O    basis set group =>   4
Atom   5C    basis set group =>   1
Atom   6H    basis set group =>   5
Atom   7H    basis set group =>   5
Atom   8H    basis set group =>   5
Atom   9H    basis set group =>   5
Atom  10H    basis set group =>   5
---------------------------------
AUXILIARY/J BASIS SET INFORMATION
---------------------------------
There are 5 groups of distinct atoms

 Group   1 Type C   : 12s5p4d2f1g contracted to 6s4p3d1f1g pattern {711111/2111/211/2/1}
 Group   2 Type S   : 14s5p5d2f1g contracted to 8s4p3d1f1g pattern {71111111/2111/311/2/1}
 Group   3 Type F   : 12s5p4d2f1g contracted to 6s4p3d1f1g pattern {711111/2111/211/2/1}
 Group   4 Type O   : 12s5p4d2f1g contracted to 6s4p3d1f1g pattern {711111/2111/211/2/1}
 Group   5 Type H   : 5s2p1d contracted to 3s1p1d pattern {311/2/1}

Atom   0C    basis set group =>   1
Atom   1S    basis set group =>   2
Atom   2F    basis set group =>   3
Atom   3O    basis set group =>   4
Atom   4O    basis set group =>   4
Atom   5C    basis set group =>   1
Atom   6H    basis set group =>   5
Atom   7H    basis set group =>   5
Atom   8H    basis set group =>   5
Atom   9H    basis set group =>   5
Atom  10H    basis set group =>   5


           ************************************************************
           *        Program running with 4 parallel MPI-processes     *
           *              working on a common directory               *
           ************************************************************
------------------------------------------------------------------------------
                           ORCA GTO INTEGRAL CALCULATION
                           -- RI-GTO INTEGRALS CHOSEN --
------------------------------------------------------------------------------
------------------------------------------------------------------------------
                   ___                                                        
                  /   \      - P O W E R E D   B Y -                         
                 /     \                                                     
                 |  |  |   _    _      __       _____    __    __             
                 |  |  |  | |  | |    /  \     |  _  \  |  |  /  |          
                  \  \/   | |  | |   /    \    | | | |  |  | /  /          
                 / \  \   | |__| |  /  /\  \   | |_| |  |  |/  /          
                |  |  |   |  __  | /  /__\  \  |    /   |      \           
                |  |  |   | |  | | |   __   |  |    \   |  |\   \          
                \     /   | |  | | |  |  |  |  | |\  \  |  | \   \       
                 \___/    |_|  |_| |__|  |__|  |_| \__\ |__|  \__/        
                                                                              
                      - O R C A' S   B I G   F R I E N D -                    
                                      &                                       
                       - I N T E G R A L  F E E D E R -                       
                                                                              
 v1 FN, 2020, v2 2021                                                         
------------------------------------------------------------------------------


Reading SHARK input file TZVP_BLYP_C1_wt_dlpno_neg.SHARKINP.tmp ... ok
----------------------
SHARK INTEGRAL PACKAGE
----------------------

Number of atoms                             ...     11
Number of basis functions                   ...    222
Number of shells                            ...     88
Maximum angular momentum                    ...      3
Integral batch strategy                     ... SHARK/LIBINT Hybrid
RI-J (if used) integral strategy            ... SPLIT-RIJ (Revised 2003 algorithm where possible)
Printlevel                                  ...      1
Contraction scheme used                     ... SEGMENTED contraction
Coulomb Range Separation                    ... NOT USED
Exchange Range Separation                   ... NOT USED
Finite Nucleus Model                        ... NOT USED
Auxiliary Coulomb fitting basis             ... AVAILABLE
   # of basis functions in Aux-J            ...    351
   # of shells in Aux-J                     ...    117
   Maximum angular momentum in Aux-J        ...      4
Auxiliary J/K fitting basis                 ... NOT available
Auxiliary Correlation fitting basis         ... NOT available
Auxiliary 'external' fitting basis          ... NOT available
Integral threshold                          ...     2.500000e-11
Primitive cut-off                           ...     2.500000e-12
Primitive pair pre-selection threshold      ...     2.500000e-12

Calculating pre-screening integrals         ... done (  0.1 sec) Dimension = 88
Organizing shell pair data                  ... done (  0.0 sec)
Shell pair information
Total number of shell pairs                 ...      3916
Shell pairs after pre-screening             ...      3658
Total number of primitive shell pairs       ...     12564
Primitive shell pairs kept                  ...      8866
          la=0 lb=0:    925 shell pairs
          la=1 lb=0:   1059 shell pairs
          la=1 lb=1:    318 shell pairs
          la=2 lb=0:    498 shell pairs
          la=2 lb=1:    292 shell pairs
          la=2 lb=2:     76 shell pairs
          la=3 lb=0:    250 shell pairs
          la=3 lb=1:    147 shell pairs
          la=3 lb=2:     72 shell pairs
          la=3 lb=3:     21 shell pairs

Calculating one electron integrals          ... done (  0.0 sec)
Calculating RI/J V-Matrix + Cholesky decomp.... done (  0.0 sec)
Calculating Nuclear repulsion               ... done (  0.0 sec) ENN=    361.884692468490 Eh

SHARK setup successfully completed in   0.2 seconds

Maximum memory used throughout the entire GTOINT-calculation: 15.3 MB


           ************************************************************
           *        Program running with 4 parallel MPI-processes     *
           *              working on a common directory               *
           ************************************************************
-------------------------------------------------------------------------------
                                 ORCA SCF
-------------------------------------------------------------------------------

------------
SCF SETTINGS
------------
Hamiltonian:
 Density Functional     Method          .... DFT(GTOs)
 Exchange Functional    Exchange        .... B88
   X-Alpha parameter    XAlpha          ....  0.666667
   Becke's b parameter  XBeta           ....  0.004200
 Correlation Functional Correlation     .... LYP
 Gradients option       PostSCFGGA      .... off
   Density functional embedding theory  .... OFF
   NL short-range parameter             ....  4.000000
 RI-approximation to the Coulomb term is turned on
   Number of AuxJ basis functions       .... 351


General Settings:
 Integral files         IntName         .... TZVP_BLYP_C1_wt_dlpno_neg
 Hartree-Fock type      HFTyp           .... RHF
 Total Charge           Charge          ....    0
 Multiplicity           Mult            ....    1
 Number of Electrons    NEL             ....   58
 Basis Dimension        Dim             ....  222
 Nuclear Repulsion      ENuc            ....    361.8846924685 Eh

Convergence Acceleration:
 DIIS                   CNVDIIS         .... on
   Start iteration      DIISMaxIt       ....    12
   Startup error        DIISStart       ....  0.200000
   # of expansion vecs  DIISMaxEq       ....     5
   Bias factor          DIISBfac        ....   1.050
   Max. coefficient     DIISMaxC        ....  10.000
 Trust-Rad. Augm. Hess. CNVTRAH         .... auto
   Auto Start mean grad. ratio tolernc. ....  1.125000
   Auto Start start iteration           ....    20
   Auto Start num. interpolation iter.  ....    10
   Max. Number of Micro iterations      ....    16
   Max. Number of Macro iterations      .... Maxiter - #DIIS iter
   Number of Davidson start vectors     ....     2
   Converg. threshold I  (grad. norm)   ....   1.000e-05
   Converg. threshold II (energy diff.) ....   1.000e-08
   Grad. Scal. Fac. for Micro threshold ....   0.100
   Minimum threshold for Micro iter.    ....   0.010
   NR start threshold (gradient norm)   ....   0.001
   Initial trust radius                 ....   0.400
   Minimum AH scaling param. (alpha)    ....   1.000
   Maximum AH scaling param. (alpha)    .... 1000.000
   Orbital update algorithm             .... Taylor
   White noise on init. David. guess    .... on
   Maximum white noise                  ....   0.010
   Quad. conv. algorithm                .... NR
 SOSCF                  CNVSOSCF        .... on
   Start iteration      SOSCFMaxIt      ....   150
   Startup grad/error   SOSCFStart      ....  0.003300
 Level Shifting         CNVShift        .... on
   Level shift para.    LevelShift      ....    0.2500
   Turn off err/grad.   ShiftErr        ....    0.0010
 Zerner damping         CNVZerner       .... off
 Static damping         CNVDamp         .... on
   Fraction old density DampFac         ....    0.7000
   Max. Damping (<1)    DampMax         ....    0.9800
   Min. Damping (>=0)   DampMin         ....    0.0000
   Turn off err/grad.   DampErr         ....    0.1000
 Fernandez-Rico         CNVRico         .... off

SCF Procedure:
 Maximum # iterations   MaxIter         ....   150
 SCF integral mode      SCFMode         .... Direct
   Integral package                     .... SHARK and LIBINT hybrid scheme
 Reset frequency        DirectResetFreq ....    20
 Integral Threshold     Thresh          ....  2.500e-11 Eh
 Primitive CutOff       TCut            ....  2.500e-12 Eh

Convergence Tolerance:
 Convergence Check Mode ConvCheckMode   .... Total+1el-Energy
 Convergence forced     ConvForced      .... 0
 Energy Change          TolE            ....  1.000e-08 Eh
 1-El. energy change                    ....  1.000e-05 Eh
 Orbital Gradient       TolG            ....  1.000e-05
 Orbital Rotation angle TolX            ....  1.000e-05
 DIIS Error             TolErr          ....  5.000e-07


Diagonalization of the overlap matrix:
Smallest eigenvalue                        ... 4.515e-04
Time for diagonalization                   ...    0.018 sec
Threshold for overlap eigenvalues          ... 1.000e-08
Number of eigenvalues below threshold      ... 0
Time for construction of square roots      ...    0.011 sec
Total time needed                          ...    0.030 sec

Time for model grid setup =    0.091 sec

------------------------------
INITIAL GUESS: MODEL POTENTIAL
------------------------------
Loading Hartree-Fock densities                     ... done
Calculating cut-offs                               ... done
Initializing the effective Hamiltonian             ... done
Setting up the integral package (SHARK)            ... done
Starting the Coulomb interaction                   ... done (   0.1 sec)
Reading the grid                                   ... done
Mapping shells                                     ... done
Starting the XC term evaluation                    ... done (   0.1 sec)
  promolecular density results
     # of electrons  =     57.997221078
     EX              =    -63.381686537
     EC              =     -2.151910760
     EX+EC           =    -65.533597297
Transforming the Hamiltonian                       ... done (   0.0 sec)
Diagonalizing the Hamiltonian                      ... done (   0.0 sec)
Back transforming the eigenvectors                 ... done (   0.0 sec)
Now organizing SCF variables                       ... done
                      ------------------
                      INITIAL GUESS DONE (   0.2 sec)
                      ------------------
-------------------
DFT GRID GENERATION
-------------------

General Integration Accuracy     IntAcc      ... 4.388
Radial Grid Type                 RadialGrid  ... OptM3 with GC (2021)
Angular Grid (max. ang.)         AngularGrid ... 4 (Lebedev-302)
Angular grid pruning method      GridPruning ... 4 (adaptive)
Weight generation scheme         WeightScheme... Becke
Basis function cutoff            BFCut       ... 1.0000e-11
Integration weight cutoff        WCut        ... 1.0000e-14
Angular grids for H and He will be reduced by one unit
Partially contracted basis set               ... off
Rotationally invariant grid construction     ... off

Total number of grid points                  ...    53897
Total number of batches                      ...      848
Average number of points per batch           ...       63
Average number of grid points per atom       ...     4900
Time for grid setup =    0.352 sec

--------------
SCF ITERATIONS
--------------
ITER       Energy         Delta-E        Max-DP      RMS-DP      [F,P]     Damp
               ***  Starting incremental Fock matrix formation  ***
  0   -727.3765661304   0.000000000000 0.20068400  0.00216049  0.3305438 0.7000
  1   -727.5777559851  -0.201189854651 0.05861565  0.00112348  0.0913846 0.7000
                               ***Turning on DIIS***
  2   -727.6223058896  -0.044549904500 0.05311010  0.00139943  0.0293614 0.0000
  3   -727.7480690825  -0.125763192948 0.03479448  0.00076864  0.0605003 0.0000
  4   -727.7553607714  -0.007291688843 0.02714061  0.00030544  0.0383135 0.0000
  5   -727.7599345815  -0.004573810077 0.00861853  0.00011512  0.0078984 0.0000
  6   -727.7603181015  -0.000383520005 0.00139190  0.00004005  0.0034419 0.0000
                      *** Initiating the SOSCF procedure ***
                           *** Shutting down DIIS ***
                      *** Re-Reading the Fockian *** 
                      *** Removing any level shift *** 
ITER      Energy       Delta-E        Grad      Rot      Max-DP    RMS-DP
  7   -727.76035568  -0.0000375749  0.000241  0.000241  0.000713  0.000015
               *** Restarting incremental Fock matrix formation ***
  8   -727.76036120  -0.0000055269  0.000109  0.000271  0.000517  0.000014
  9   -727.76035873   0.0000024737  0.000256  0.000228  0.000406  0.000010
 10   -727.76036176  -0.0000030337  0.000038  0.000089  0.000447  0.000005
 11   -727.76036154   0.0000002249  0.000092  0.000059  0.000252  0.000003
 12   -727.76036184  -0.0000003001  0.000013  0.000038  0.000145  0.000002
 13   -727.76036180   0.0000000340  0.000031  0.000029  0.000112  0.000001
 14   -727.76036185  -0.0000000431  0.000004  0.000010  0.000021  0.000001
 15   -727.76036184   0.0000000044  0.000008  0.000007  0.000013  0.000000
                  ***Gradient check signals convergence***
              ***Rediagonalizing the Fockian in SOSCF/NRSCF***

               *****************************************************
               *                     SUCCESS                       *
               *           SCF CONVERGED AFTER  16 CYCLES          *
               *****************************************************


----------------
TOTAL SCF ENERGY
----------------

Total Energy       :         -727.76036185 Eh          -19803.36623 eV

Components:
Nuclear Repulsion  :          361.88469247 Eh            9847.38311 eV
Electronic Energy  :        -1089.64505432 Eh          -29650.74934 eV
One Electron Energy:        -1720.19812977 Eh          -46808.97083 eV
Two Electron Energy:          630.55307545 Eh           17158.22149 eV

Virial components:
Potential Energy   :        -1454.06394124 Eh          -39567.09139 eV
Kinetic Energy     :          726.30357939 Eh           19763.72516 eV
Virial Ratio       :            2.00200575


DFT components:
N(Alpha)           :       28.999989762129 electrons
N(Beta)            :       28.999989762129 electrons
N(Total)           :       57.999979524258 electrons
E(X)               :      -64.044642789617 Eh       
E(C)               :       -2.160175751642 Eh       
E(XC)              :      -66.204818541259 Eh       
DFET-embed. en.    :        0.000000000000 Eh       

---------------
SCF CONVERGENCE
---------------

  Last Energy change         ...   -4.3788e-09  Tolerance :   1.0000e-08
  Last MAX-Density change    ...    3.8353e-06  Tolerance :   1.0000e-07
  Last RMS-Density change    ...    8.9479e-08  Tolerance :   5.0000e-09
  Last Orbital Gradient      ...    9.6221e-07  Tolerance :   1.0000e-05
  Last Orbital Rotation      ...    1.7753e-06  Tolerance :   1.0000e-05

             **** THE GBW FILE WAS UPDATED (TZVP_BLYP_C1_wt_dlpno_neg.gbw) ****
             **** DENSITY TZVP_BLYP_C1_wt_dlpno_neg.scfp WAS UPDATED ****
             **** ENERGY FILE WAS UPDATED (TZVP_BLYP_C1_wt_dlpno_neg.en.tmp) ****
             **** THE GBW FILE WAS UPDATED (TZVP_BLYP_C1_wt_dlpno_neg.gbw) ****
             **** DENSITY TZVP_BLYP_C1_wt_dlpno_neg.scfp WAS UPDATED ****
----------------
ORBITAL ENERGIES
----------------

  NO   OCC          E(Eh)            E(eV) 
   0   2.0000     -88.331759     -2403.6294 
   1   2.0000     -24.381788      -663.4622 
   2   2.0000     -18.782449      -511.0964 
   3   2.0000     -18.768323      -510.7120 
   4   2.0000      -9.963490      -271.1204 
   5   2.0000      -9.929108      -270.1848 
   6   2.0000      -7.863155      -213.9673 
   7   2.0000      -5.895497      -160.4246 
   8   2.0000      -5.888595      -160.2368 
   9   2.0000      -5.888518      -160.2347 
  10   2.0000      -1.241235       -33.7757 
  11   2.0000      -1.007444       -27.4139 
  12   2.0000      -0.912787       -24.8382 
  13   2.0000      -0.747327       -20.3358 
  14   2.0000      -0.649563       -17.6755 
  15   2.0000      -0.605676       -16.4813 
  16   2.0000      -0.517991       -14.0952 
  17   2.0000      -0.495555       -13.4847 
  18   2.0000      -0.477584       -12.9957 
  19   2.0000      -0.444085       -12.0842 
  20   2.0000      -0.415548       -11.3076 
  21   2.0000      -0.395632       -10.7657 
  22   2.0000      -0.386729       -10.5234 
  23   2.0000      -0.366524        -9.9736 
  24   2.0000      -0.351151        -9.5553 
  25   2.0000      -0.331249        -9.0138 
  26   2.0000      -0.286317        -7.7911 
  27   2.0000      -0.271257        -7.3813 
  28   2.0000      -0.257612        -7.0100 
  29   0.0000      -0.023600        -0.6422 
  30   0.0000       0.018453         0.5021 
  31   0.0000       0.031302         0.8518 
  32   0.0000       0.036555         0.9947 
  33   0.0000       0.049364         1.3433 
  34   0.0000       0.059231         1.6117 
  35   0.0000       0.062097         1.6897 
  36   0.0000       0.077740         2.1154 
  37   0.0000       0.108396         2.9496 
  38   0.0000       0.128046         3.4843 
  39   0.0000       0.157706         4.2914 
  40   0.0000       0.178060         4.8453 
  41   0.0000       0.181469         4.9380 
  42   0.0000       0.216721         5.8973 
  43   0.0000       0.238119         6.4795 
  44   0.0000       0.243726         6.6321 
  45   0.0000       0.270398         7.3579 
  46   0.0000       0.280686         7.6379 
  47   0.0000       0.330074         8.9818 
  48   0.0000       0.337717         9.1897 
  49   0.0000       0.346688         9.4339 
  50   0.0000       0.361347         9.8327 
  51   0.0000       0.380765        10.3611 
  52   0.0000       0.384481        10.4622 
  53   0.0000       0.402644        10.9565 
  54   0.0000       0.408027        11.1030 
  55   0.0000       0.413836        11.2611 
  56   0.0000       0.426953        11.6180 
  57   0.0000       0.443056        12.0562 
  58   0.0000       0.447251        12.1703 
  59   0.0000       0.473014        12.8714 
  60   0.0000       0.504845        13.7375 
  61   0.0000       0.523177        14.2364 
  62   0.0000       0.535125        14.5615 
  63   0.0000       0.550927        14.9915 
  64   0.0000       0.587656        15.9909 
  65   0.0000       0.612690        16.6721 
  66   0.0000       0.650118        17.6906 
  67   0.0000       0.671663        18.2769 
  68   0.0000       0.684423        18.6241 
  69   0.0000       0.727967        19.8090 
  70   0.0000       0.777491        21.1566 
  71   0.0000       0.792157        21.5557 
  72   0.0000       0.806914        21.9572 
  73   0.0000       0.851261        23.1640 
  74   0.0000       0.853909        23.2360 
  75   0.0000       0.878597        23.9078 
  76   0.0000       0.892524        24.2868 
  77   0.0000       0.952868        25.9289 
  78   0.0000       0.990919        26.9643 
  79   0.0000       1.008819        27.4514 
  80   0.0000       1.020216        27.7615 
  81   0.0000       1.065945        29.0058 
  82   0.0000       1.095460        29.8090 
  83   0.0000       1.217818        33.1385 
  84   0.0000       1.251853        34.0646 
  85   0.0000       1.263671        34.3862 
  86   0.0000       1.340860        36.4867 
  87   0.0000       1.367675        37.2163 
  88   0.0000       1.380246        37.5584 
  89   0.0000       1.406533        38.2737 
  90   0.0000       1.420899        38.6646 
  91   0.0000       1.443171        39.2707 
  92   0.0000       1.453514        39.5521 
  93   0.0000       1.458020        39.6747 
  94   0.0000       1.475932        40.1622 
  95   0.0000       1.479386        40.2561 
  96   0.0000       1.495333        40.6901 
  97   0.0000       1.531326        41.6695 
  98   0.0000       1.538415        41.8624 
  99   0.0000       1.574716        42.8502 
 100   0.0000       1.618341        44.0373 
 101   0.0000       1.631545        44.3966 
 102   0.0000       1.644655        44.7533 
 103   0.0000       1.696052        46.1519 
 104   0.0000       1.732344        47.1395 
 105   0.0000       1.744558        47.4718 
 106   0.0000       1.764587        48.0169 
 107   0.0000       1.813893        49.3585 
 108   0.0000       1.843158        50.1549 
 109   0.0000       1.911783        52.0223 
 110   0.0000       1.923287        52.3353 
 111   0.0000       1.945551        52.9411 
 112   0.0000       1.967479        53.5378 
 113   0.0000       2.054404        55.9032 
 114   0.0000       2.071443        56.3668 
 115   0.0000       2.099628        57.1338 
 116   0.0000       2.146693        58.4145 
 117   0.0000       2.169433        59.0333 
 118   0.0000       2.210656        60.1550 
 119   0.0000       2.226750        60.5929 
 120   0.0000       2.236907        60.8693 
 121   0.0000       2.254952        61.3604 
 122   0.0000       2.261078        61.5270 
 123   0.0000       2.273315        61.8600 
 124   0.0000       2.312320        62.9214 
 125   0.0000       2.330709        63.4218 
 126   0.0000       2.349445        63.9317 
 127   0.0000       2.364561        64.3430 
 128   0.0000       2.389751        65.0284 
 129   0.0000       2.483166        67.5704 
 130   0.0000       2.494661        67.8832 
 131   0.0000       2.507520        68.2331 
 132   0.0000       2.520994        68.5997 
 133   0.0000       2.550535        69.4036 
 134   0.0000       2.570293        69.9412 
 135   0.0000       2.589036        70.4512 
 136   0.0000       2.598164        70.6996 
 137   0.0000       2.651880        72.1613 
 138   0.0000       2.670836        72.6772 
 139   0.0000       2.758427        75.0606 
 140   0.0000       2.791166        75.9515 
 141   0.0000       2.802395        76.2571 
 142   0.0000       2.842662        77.3528 
 143   0.0000       2.874441        78.2175 
 144   0.0000       2.902509        78.9813 
 145   0.0000       2.927810        79.6698 
 146   0.0000       2.948892        80.2434 
 147   0.0000       2.982759        81.1650 
 148   0.0000       2.997247        81.5592 
 149   0.0000       3.050084        82.9970 
 150   0.0000       3.095846        84.2422 
 151   0.0000       3.117747        84.8382 
 152   0.0000       3.177129        86.4541 
 153   0.0000       3.219181        87.5984 
 154   0.0000       3.249966        88.4361 
 155   0.0000       3.279930        89.2514 
 156   0.0000       3.300461        89.8101 
 157   0.0000       3.323747        90.4438 
 158   0.0000       3.368115        91.6511 
 159   0.0000       3.412348        92.8547 
 160   0.0000       3.423360        93.1544 
 161   0.0000       3.499976        95.2392 
 162   0.0000       3.648349        99.2766 
 163   0.0000       3.653471        99.4160 
 164   0.0000       3.710078       100.9564 
 165   0.0000       3.734400       101.6182 
 166   0.0000       3.787892       103.0738 
 167   0.0000       3.850713       104.7832 
 168   0.0000       3.889685       105.8437 
 169   0.0000       4.010431       109.1294 
 170   0.0000       4.144613       112.7806 
 171   0.0000       4.206429       114.4628 
 172   0.0000       4.305457       117.1574 
 173   0.0000       4.333392       117.9176 
 174   0.0000       4.361710       118.6882 
 175   0.0000       4.457290       121.2890 
 176   0.0000       4.638560       126.2216 
 177   0.0000       5.020614       136.6178 
 178   0.0000       5.030983       136.9000 
 179   0.0000       5.037908       137.0884 
 180   0.0000       5.041986       137.1994 
 181   0.0000       5.060842       137.7125 
 182   0.0000       5.081487       138.2743 
 183   0.0000       5.103825       138.8821 
 184   0.0000       5.203467       141.5935 
 185   0.0000       5.245417       142.7351 
 186   0.0000       5.342280       145.3708 
 187   0.0000       5.380776       146.4184 
 188   0.0000       5.424131       147.5981 
 189   0.0000       5.487769       149.3298 
 190   0.0000       5.557490       151.2270 
 191   0.0000       6.135457       166.9543 
 192   0.0000       6.179835       168.1619 
 193   0.0000       6.211413       169.0211 
 194   0.0000       6.250730       170.0910 
 195   0.0000       6.468885       176.0273 
 196   0.0000       6.518015       177.3642 
 197   0.0000       6.565189       178.6479 
 198   0.0000       6.642866       180.7616 
 199   0.0000       6.656453       181.1313 
 200   0.0000       6.663698       181.3284 
 201   0.0000       6.701458       182.3559 
 202   0.0000       6.722610       182.9315 
 203   0.0000       6.725821       183.0189 
 204   0.0000       6.770143       184.2249 
 205   0.0000       6.782935       184.5730 
 206   0.0000       6.827195       185.7774 
 207   0.0000       6.910636       188.0480 
 208   0.0000       8.103195       220.4991 
 209   0.0000       8.110856       220.7076 
 210   0.0000       8.457666       230.1448 
 211   0.0000       8.472981       230.5615 
 212   0.0000       8.523338       231.9318 
 213   0.0000       9.155436       249.1321 
 214   0.0000       9.355268       254.5698 
 215   0.0000       9.473724       257.7931 
 216   0.0000      21.838325       594.2510 
 217   0.0000      22.060409       600.2942 
 218   0.0000      22.136687       602.3699 
 219   0.0000      42.989596      1169.8064 
 220   0.0000      43.187287      1175.1858 
 221   0.0000      56.461874      1536.4057 

                    ********************************
                    * MULLIKEN POPULATION ANALYSIS *
                    ********************************

-----------------------
MULLIKEN ATOMIC CHARGES
-----------------------
   0 C :   -0.208604
   1 S :    0.795373
   2 F :   -0.110209
   3 O :   -0.421463
   4 O :   -0.373168
   5 C :   -0.308273
   6 H :    0.142502
   7 H :    0.132714
   8 H :    0.112914
   9 H :    0.122025
  10 H :    0.116189
Sum of atomic charges:    0.0000000

--------------------------------
MULLIKEN REDUCED ORBITAL CHARGES
--------------------------------
  0 C s       :     3.241137  s :     3.241137
      pz      :     0.964191  p :     2.886982
      px      :     0.946703
      py      :     0.976089
      dz2     :     0.007839  d :     0.075559
      dxz     :     0.016977
      dyz     :     0.019662
      dx2y2   :     0.011801
      dxy     :     0.019280
      f0      :     0.000187  f :     0.004926
      f+1     :     0.000509
      f-1     :     0.000845
      f+2     :     0.001538
      f-2     :     0.000525
      f+3     :     0.000876
      f-3     :     0.000445
  1 S s       :     5.403643  s :     5.403643
      pz      :     2.899902  p :     8.607684
      px      :     2.921579
      py      :     2.786204
      dz2     :     0.205717  d :     1.078483
      dxz     :     0.249520
      dyz     :     0.205097
      dx2y2   :     0.221609
      dxy     :     0.196541
      f0      :     0.012931  f :     0.114816
      f+1     :     0.013830
      f-1     :     0.018618
      f+2     :     0.018717
      f-2     :     0.014570
      f+3     :     0.019478
      f-3     :     0.016670
  2 F s       :     3.899883  s :     3.899883
      pz      :     1.810798  p :     5.189819
      px      :     1.825168
      py      :     1.553853
      dz2     :     0.002626  d :     0.019689
      dxz     :     0.001358
      dyz     :     0.005387
      dx2y2   :     0.005420
      dxy     :     0.004898
      f0      :     0.000078  f :     0.000818
      f+1     :     0.000018
      f-1     :     0.000142
      f+2     :     0.000145
      f-2     :     0.000097
      f+3     :     0.000170
      f-3     :     0.000168
  3 O s       :     3.844850  s :     3.844850
      pz      :     1.537407  p :     4.543062
      px      :     1.445755
      py      :     1.559900
      dz2     :     0.005506  d :     0.031740
      dxz     :     0.007930
      dyz     :     0.003974
      dx2y2   :     0.007046
      dxy     :     0.007284
      f0      :     0.000159  f :     0.001811
      f+1     :     0.000356
      f-1     :     0.000114
      f+2     :     0.000296
      f-2     :     0.000353
      f+3     :     0.000280
      f-3     :     0.000253
  4 O s       :     3.826110  s :     3.826110
      pz      :     1.485892  p :     4.510966
      px      :     1.588640
      py      :     1.436434
      dz2     :     0.008774  d :     0.034088
      dxz     :     0.006091
      dyz     :     0.008275
      dx2y2   :     0.005520
      dxy     :     0.005429
      f0      :     0.000285  f :     0.002003
      f+1     :     0.000209
      f-1     :     0.000401
      f+2     :     0.000389
      f-2     :     0.000386
      f+3     :     0.000156
      f-3     :     0.000178
  5 C s       :     3.284450  s :     3.284450
      pz      :     1.026197  p :     2.979693
      px      :     1.050834
      py      :     0.902662
      dz2     :     0.002602  d :     0.040650
      dxz     :     0.005127
      dyz     :     0.014164
      dx2y2   :     0.006149
      dxy     :     0.012608
      f0      :     0.000021  f :     0.003480
      f+1     :     0.000120
      f-1     :     0.000714
      f+2     :     0.001406
      f-2     :     0.000302
      f+3     :     0.000596
      f-3     :     0.000321
  6 H s       :     0.835069  s :     0.835069
      pz      :     0.009313  p :     0.022429
      px      :     0.004512
      py      :     0.008604
  7 H s       :     0.845025  s :     0.845025
      pz      :     0.005970  p :     0.022261
      px      :     0.010591
      py      :     0.005701
  8 H s       :     0.865147  s :     0.865147
      pz      :     0.008857  p :     0.021939
      px      :     0.005062
      py      :     0.008020
  9 H s       :     0.856009  s :     0.856009
      pz      :     0.006338  p :     0.021966
      px      :     0.010040
      py      :     0.005588
 10 H s       :     0.861706  s :     0.861706
      pz      :     0.008274  p :     0.022105
      px      :     0.008966
      py      :     0.004865


                     *******************************
                     * LOEWDIN POPULATION ANALYSIS *
                     *******************************

----------------------
LOEWDIN ATOMIC CHARGES
----------------------
   0 C :   -0.384054
   1 S :    0.520319
   2 F :    0.069124
   3 O :   -0.295603
   4 O :   -0.241527
   5 C :   -0.312204
   6 H :    0.144309
   7 H :    0.137527
   8 H :    0.117465
   9 H :    0.121159
  10 H :    0.123486

-------------------------------
LOEWDIN REDUCED ORBITAL CHARGES
-------------------------------
  0 C s       :     2.854971  s :     2.854971
      pz      :     1.037457  p :     3.138395
      px      :     1.024613
      py      :     1.076325
      dz2     :     0.038651  d :     0.357226
      dxz     :     0.087721
      dyz     :     0.088392
      dx2y2   :     0.076591
      dxy     :     0.065871
      f0      :     0.003414  f :     0.033463
      f+1     :     0.003566
      f-1     :     0.006430
      f+2     :     0.005823
      f-2     :     0.003342
      f+3     :     0.006482
      f-3     :     0.004406
  1 S s       :     4.781975  s :     4.781975
      pz      :     2.889755  p :     8.598778
      px      :     2.902989
      py      :     2.806034
      dz2     :     0.297300  d :     1.740301
      dxz     :     0.410072
      dyz     :     0.351684
      dx2y2   :     0.363819
      dxy     :     0.317425
      f0      :     0.041902  f :     0.358626
      f+1     :     0.040802
      f-1     :     0.053949
      f+2     :     0.059489
      f-2     :     0.051569
      f+3     :     0.059259
      f-3     :     0.051656
  2 F s       :     3.676953  s :     3.676953
      pz      :     1.779553  p :     5.214413
      px      :     1.785512
      py      :     1.649348
      dz2     :     0.004686  d :     0.037872
      dxz     :     0.002081
      dyz     :     0.010663
      dx2y2   :     0.011715
      dxy     :     0.008727
      f0      :     0.000184  f :     0.001639
      f+1     :     0.000031
      f-1     :     0.000248
      f+2     :     0.000308
      f-2     :     0.000203
      f+3     :     0.000345
      f-3     :     0.000320
  3 O s       :     3.592369  s :     3.592369
      pz      :     1.556603  p :     4.635437
      px      :     1.525327
      py      :     1.553507
      dz2     :     0.007565  d :     0.063549
      dxz     :     0.020613
      dyz     :     0.007713
      dx2y2   :     0.011954
      dxy     :     0.015704
      f0      :     0.000493  f :     0.004249
      f+1     :     0.000613
      f-1     :     0.000176
      f+2     :     0.000696
      f-2     :     0.001033
      f+3     :     0.000440
      f-3     :     0.000798
  4 O s       :     3.563626  s :     3.563626
      pz      :     1.543500  p :     4.603783
      px      :     1.570805
      py      :     1.489478
      dz2     :     0.012300  d :     0.069319
      dxz     :     0.013284
      dyz     :     0.024816
      dx2y2   :     0.008262
      dxy     :     0.010658
      f0      :     0.000535  f :     0.004799
      f+1     :     0.000499
      f-1     :     0.001107
      f+2     :     0.000840
      f-2     :     0.001166
      f+3     :     0.000378
      f-3     :     0.000274
  5 C s       :     2.827253  s :     2.827253
      pz      :     1.075145  p :     3.199154
      px      :     1.081241
      py      :     1.042768
      dz2     :     0.020616  d :     0.258701
      dxz     :     0.051160
      dyz     :     0.076949
      dx2y2   :     0.059193
      dxy     :     0.050784
      f0      :     0.002883  f :     0.027096
      f+1     :     0.001423
      f-1     :     0.006343
      f+2     :     0.004685
      f-2     :     0.002002
      f+3     :     0.005780
      f-3     :     0.003980
  6 H s       :     0.793051  s :     0.793051
      pz      :     0.027070  p :     0.062640
      px      :     0.012933
      py      :     0.022636
  7 H s       :     0.799651  s :     0.799651
      pz      :     0.017093  p :     0.062822
      px      :     0.030332
      py      :     0.015397
  8 H s       :     0.818351  s :     0.818351
      pz      :     0.027383  p :     0.064185
      px      :     0.015419
      py      :     0.021383
  9 H s       :     0.814457  s :     0.814457
      pz      :     0.018589  p :     0.064384
      px      :     0.030412
      py      :     0.015383
 10 H s       :     0.812409  s :     0.812409
      pz      :     0.023723  p :     0.064105
      px      :     0.026504
      py      :     0.013877


                      *****************************
                      * MAYER POPULATION ANALYSIS *
                      *****************************

  NA   - Mulliken gross atomic population
  ZA   - Total nuclear charge
  QA   - Mulliken gross atomic charge
  VA   - Mayer's total valence
  BVA  - Mayer's bonded valence
  FA   - Mayer's free valence

  ATOM       NA         ZA         QA         VA         BVA        FA
  0 C      6.2086     6.0000    -0.2086     3.8302     3.8302    -0.0000
  1 S     15.2046    16.0000     0.7954     5.9108     5.9108     0.0000
  2 F      9.1102     9.0000    -0.1102     1.2122     1.2122    -0.0000
  3 O      8.4215     8.0000    -0.4215     2.0414     2.0414    -0.0000
  4 O      8.3732     8.0000    -0.3732     2.0990     2.0990     0.0000
  5 C      6.3083     6.0000    -0.3083     3.8493     3.8493     0.0000
  6 H      0.8575     1.0000     0.1425     0.9695     0.9695    -0.0000
  7 H      0.8673     1.0000     0.1327     0.9661     0.9661    -0.0000
  8 H      0.8871     1.0000     0.1129     0.9723     0.9723     0.0000
  9 H      0.8780     1.0000     0.1220     0.9761     0.9761     0.0000
 10 H      0.8838     1.0000     0.1162     0.9669     0.9669     0.0000

  Mayer bond orders larger than 0.100000
B(  0-C ,  1-S ) :   0.8952 B(  0-C ,  5-C ) :   0.9515 B(  0-C ,  6-H ) :   0.9396 
B(  0-C ,  7-H ) :   0.9382 B(  1-S ,  2-F ) :   1.1074 B(  1-S ,  3-O ) :   1.9067 
B(  1-S ,  4-O ) :   1.9586 B(  5-C ,  8-H ) :   0.9676 B(  5-C ,  9-H ) :   0.9687 
B(  5-C , 10-H ) :   0.9576 

-------
TIMINGS
-------

Total SCF time: 0 days 0 hours 0 min 6 sec 

Total time                  ....       6.915 sec
Sum of individual times     ....       6.674 sec  ( 96.5%)

Fock matrix formation       ....       5.814 sec  ( 84.1%)
  Split-RI-J                ....       1.884 sec  ( 32.4% of F)
  XC integration            ....       3.882 sec  ( 66.8% of F)
    Basis function eval.    ....       1.298 sec  ( 33.4% of XC)
    Density eval.           ....       0.922 sec  ( 23.8% of XC)
    XC-Functional eval.     ....       0.166 sec  (  4.3% of XC)
    XC-Potential eval.      ....       1.122 sec  ( 28.9% of XC)
Diagonalization             ....       0.096 sec  (  1.4%)
Density matrix formation    ....       0.008 sec  (  0.1%)
Population analysis         ....       0.015 sec  (  0.2%)
Initial guess               ....       0.158 sec  (  2.3%)
Orbital Transformation      ....       0.000 sec  (  0.0%)
Orbital Orthonormalization  ....       0.000 sec  (  0.0%)
DIIS solution               ....       0.060 sec  (  0.9%)
SOSCF solution              ....       0.080 sec  (  1.2%)
Grid generation             ....       0.443 sec  (  6.4%)

Maximum memory used throughout the entire SCF-calculation: 21.8 MB


-------------------------------------------------------------------------------
                          DFT DISPERSION CORRECTION                            
                                                                               
                              DFTD3 V3.1  Rev 1                                
                          USING Becke-Johnson damping                          
-------------------------------------------------------------------------------
The BLYP functional is recognized
Active option DFTDOPT                   ...         4   

molecular C6(AA) [au] = 1445.610809 


            DFT-D V3
 parameters
 s6 scaling factor         :     1.0000 
 a1 scaling factor         :     0.4298 
 s8 scaling factor         :     2.6996 
 a2 scaling factor         :     4.2359 
 ad hoc parameters k1-k3   :    16.0000     1.3333    -4.0000 

 Edisp/kcal,au: -12.184085733428  -0.019416574470 
 E6   /kcal   :  -4.688937932 
 E8   /kcal   :  -7.495147801 
 % E8         :  61.515881991 

-------------------------   ----------------
Dispersion correction           -0.019416574
-------------------------   ----------------


-------------------------   --------------------
FINAL SINGLE POINT ENERGY      -727.779778421849
-------------------------   --------------------


                            ***************************************
                            *     ORCA property calculations      *
                            ***************************************

                                    ---------------------
                                    Active property flags
                                    ---------------------
   (+) Dipole Moment


------------------------------------------------------------------------------
                       ORCA ELECTRIC PROPERTIES CALCULATION
------------------------------------------------------------------------------

Dipole Moment Calculation                       ... on
Quadrupole Moment Calculation                   ... off
Polarizability Calculation                      ... off
GBWName                                         ... TZVP_BLYP_C1_wt_dlpno_neg.gbw
Electron density file                           ... TZVP_BLYP_C1_wt_dlpno_neg.scfp
The origin for moment calculation is the CENTER OF MASS  = (-11.782540, -5.010631 -7.849711)

-------------
DIPOLE MOMENT
-------------
                                X             Y             Z
Electronic contribution:      5.71106      -1.76879      -6.42736
Nuclear contribution   :     -6.81251       2.87933       7.15058
                        -----------------------------------------
Total Dipole Moment    :     -1.10145       1.11054       0.72322
                        -----------------------------------------
Magnitude (a.u.)       :      1.72324
Magnitude (Debye)      :      4.38012



--------------------
Rotational spectrum 
--------------------
 
Rotational constants in cm-1:     0.152543     0.082494     0.078987 
Rotational constants in MHz :  4573.135887  2473.116216  2367.980829 

 Dipole components along the rotational axes: 
x,y,z [a.u.] :     1.677280    -0.124873    -0.375077 
x,y,z [Debye]:     4.263308    -0.317403    -0.953370 

 

Timings for individual modules:

Sum of individual times         ...       11.448 sec (=   0.191 min)
GTO integral calculation        ...        2.515 sec (=   0.042 min)  22.0 %
SCF iterations                  ...        8.933 sec (=   0.149 min)  78.0 %
                             ****ORCA TERMINATED NORMALLY****
TOTAL RUN TIME: 0 days 0 hours 0 minutes 12 seconds 96 msec
