
                                        *****************
                                        * O   R   C   A *
                                        *****************

                                            #,                                       
                                            ###                                      
                                            ####                                     
                                            #####                                    
                                            ######                                   
                                           ########,                                 
                                     ,,################,,,,,                         
                               ,,#################################,,                 
                          ,,##########################################,,             
                       ,#########################################, ''#####,          
                    ,#############################################,,   '####,        
                  ,##################################################,,,,####,       
                ,###########''''           ''''###############################       
              ,#####''   ,,,,##########,,,,          '''####'''          '####       
            ,##' ,,,,###########################,,,                        '##       
           ' ,,###''''                  '''############,,,                           
         ,,##''                                '''############,,,,        ,,,,,,###''
      ,#''                                            '''#######################'''  
     '                                                          ''''####''''         
             ,#######,   #######,   ,#######,      ##                                
            ,#'     '#,  ##    ##  ,#'     '#,    #''#        ######   ,####,        
            ##       ##  ##   ,#'  ##            #'  '#       #        #'  '#        
            ##       ##  #######   ##           ,######,      #####,   #    #        
            '#,     ,#'  ##    ##  '#,     ,#' ,#      #,         ##   #,  ,#        
             '#######'   ##     ##  '#######'  #'      '#     #####' # '####'        



                  #######################################################
                  #                        -***-                        #
                  #          Department of theory and spectroscopy      #
                  #    Directorship and core code : Frank Neese         #
                  #        Max Planck Institute fuer Kohlenforschung    #
                  #                Kaiser Wilhelm Platz 1               #
                  #                 D-45470 Muelheim/Ruhr               #
                  #                      Germany                        #
                  #                                                     #
                  #                  All rights reserved                #
                  #                        -***-                        #
                  #######################################################


                         Program Version 5.0.0 -  RELEASE  -
                                (SVN: $Rev: 19529$)
                ($Date: 2021-06-28 11:36:33 +0200 (Mo, 28 Jun 2021) $)


 With contributions from (in alphabetic order):
   Daniel Aravena         : Magnetic Suceptibility
   Michael Atanasov       : Ab Initio Ligand Field Theory (pilot matlab implementation)
   Alexander A. Auer      : GIAO ZORA, VPT2 properties, NMR spectrum
   Ute Becker             : Parallelization
   Giovanni Bistoni       : ED, misc. LED, open-shell LED, HFLD
   Martin Brehm           : Molecular dynamics
   Dmytro Bykov           : SCF Hessian
   Vijay G. Chilkuri      : MRCI spin determinant printing, contributions to CSF-ICE
   Dipayan Datta          : RHF DLPNO-CCSD density
   Achintya Kumar Dutta   : EOM-CC, STEOM-CC
   Dmitry Ganyushin       : Spin-Orbit,Spin-Spin,Magnetic field MRCI
   Miquel Garcia          : C-PCM Hessian, Gaussian charge scheme
   Yang Guo               : DLPNO-NEVPT2, F12-NEVPT2, CIM, IAO-localization
   Andreas Hansen         : Spin unrestricted coupled pair/coupled cluster methods
   Benjamin Helmich-Paris : MC-RPA, TRAH-SCF, COSX integrals
   Lee Huntington         : MR-EOM, pCC
   Robert Izsak           : Overlap fitted RIJCOSX, COSX-SCS-MP3, EOM
   Marcus Kettner         : VPT2
   Christian Kollmar      : KDIIS, OOCD, Brueckner-CCSD(T), CCSD density, CASPT2, CASPT2-K
   Simone Kossmann        : Meta GGA functionals, TD-DFT gradient, OOMP2, MP2 Hessian
   Martin Krupicka        : Initial AUTO-CI
   Lucas Lang             : DCDCAS
   Marvin Lechner         : AUTO-CI (C++ implementation), FIC-MRCC
   Dagmar Lenk            : GEPOL surface, SMD
   Dimitrios Liakos       : Extrapolation schemes; Compound Job, initial MDCI parallelization
   Dimitrios Manganas     : Further ROCIS development; embedding schemes
   Dimitrios Pantazis     : SARC Basis sets
   Anastasios Papadopoulos: AUTO-CI, single reference methods and gradients
   Taras Petrenko         : DFT Hessian,TD-DFT gradient, ASA, ECA, R-Raman, ABS, FL, XAS/XES, NRVS
   Peter Pinski           : DLPNO-MP2, DLPNO-MP2 Gradient
   Christoph Reimann      : Effective Core Potentials
   Marius Retegan         : Local ZFS, SOC
   Christoph Riplinger    : Optimizer, TS searches, QM/MM, DLPNO-CCSD(T), (RO)-DLPNO pert. Triples
   Tobias Risthaus        : Range-separated hybrids, TD-DFT gradient, RPA, STAB
   Michael Roemelt        : Original ROCIS implementation
   Masaaki Saitow         : Open-shell DLPNO-CCSD energy and density
   Barbara Sandhoefer     : DKH picture change effects
   Avijit Sen             : IP-ROCIS
   Kantharuban Sivalingam : CASSCF convergence, NEVPT2, FIC-MRCI
   Bernardo de Souza      : ESD, SOC TD-DFT
   Georgi Stoychev        : AutoAux, RI-MP2 NMR
   Willem Van den Heuvel  : Paramagnetic NMR
   Boris Wezisla          : Elementary symmetry handling
   Frank Wennmohs         : Technical directorship


 We gratefully acknowledge several colleagues who have allowed us to
 interface, adapt or use parts of their codes:
   Stefan Grimme, W. Hujo, H. Kruse, P. Pracht,  : VdW corrections, initial TS optimization,
                  C. Bannwarth, S. Ehlert          DFT functionals, gCP, sTDA/sTD-DF
   Ed Valeev, F. Pavosevic, A. Kumar             : LibInt (2-el integral package), F12 methods
   Garnet Chan, S. Sharma, J. Yang, R. Olivares  : DMRG
   Ulf Ekstrom                                   : XCFun DFT Library
   Mihaly Kallay                                 : mrcc  (arbitrary order and MRCC methods)
   Jiri Pittner, Ondrej Demel                    : Mk-CCSD
   Frank Weinhold                                : gennbo (NPA and NBO analysis)
   Christopher J. Cramer and Donald G. Truhlar   : smd solvation model
   Lars Goerigk                                  : TD-DFT with DH, B97 family of functionals
   V. Asgeirsson, H. Jonsson                     : NEB implementation
   FAccTs GmbH                                   : IRC, NEB, NEB-TS, DLPNO-Multilevel, CI-OPT
                                                   MM, QMMM, 2- and 3-layer-ONIOM, Crystal-QMMM,
                                                   LR-CPCM, SF, NACMEs, symmetry and pop. for TD-DFT,
                                                   nearIR, NL-DFT gradient (VV10), updates on ESD,
                                                   ML-optimized integration grids
   S Lehtola, MJT Oliveira, MAL Marques          : LibXC Library
   Liviu Ungur et al                             : ANISO software


 Your calculation uses the libint2 library for the computation of 2-el integrals
 For citations please refer to: http://libint.valeyev.net

 Your ORCA version has been built with support for libXC version: 5.1.0
 For citations please refer to: https://tddft.org/programs/libxc/

 This ORCA versions uses:
   CBLAS   interface :  Fast vector & matrix operations
   LAPACKE interface :  Fast linear algebra routines
   SCALAPACK package :  Parallel linear algebra routines
   Shared memory     :  Shared parallel matrices
   BLAS/LAPACK       :  OpenBLAS 0.3.15  USE64BITINT DYNAMIC_ARCH NO_AFFINITY Haswell SINGLE_THREADED
        Core in use  :  Haswell
   Copyright (c) 2011-2014, The OpenBLAS Project


Your calculation utilizes the atom-pairwise dispersion correction
with the Becke-Johnson damping scheme (D3BJ)
Cite in your paper:
S.Grimme, S.Ehrlich, L.Goerigk, J Comput Chem, (2011), 32, 1456–1465 
S.Grimme, J.Antony, S.Ehrlich and H.Krieg, J.Chem.Phys., 132, (2010), 154104 
   

================================================================================

----- Orbital basis set information -----
Your calculation utilizes the basis: def2-SVPD
   F. Weigend and R. Ahlrichs, Phys. Chem. Chem. Phys. 7, 3297 (2005).
   D. Rappoport and F. Furche, J. Chem. Phys. 133 134105 (2010).

----- AuxJ basis set information -----
Your calculation utilizes the auxiliary basis: def2/J
   F. Weigend, Phys. Chem. Chem. Phys. 8, 1057 (2006).

================================================================================
                                        WARNINGS
                       Please study these warnings very carefully!
================================================================================



WARNING: Found flag for RIJCOSX approximation but no HF exchange needed!
  ===> : RIJCOSX  will be disabled and Split-RI-J is turned on

INFO   : the flag for use of the SHARK integral package has been found!

================================================================================
                                       INPUT FILE
================================================================================
NAME = 14Feb_SVPD_BLYP_A_wt_wb97_typ1_pos.com
|  1> !BLYP D3BJ RIJCOSX def2-SVPD def2/J TightSCF 
|  2> *xyz 1 1 
|  3> C          3.90595        2.81985       -3.75292
|  4> N          5.29562        3.13151       -4.10533
|  5> C          3.80351        1.37472       -3.26081
|  6> C          3.93993        0.32036       -4.36773
|  7> C          5.70862        3.46889       -5.32419
|  8> N          6.90470        3.03895       -5.71708
|  9> N          4.98188        4.29357       -6.09746
| 10> H          5.00055        4.10131       -7.08776
| 11> H          4.08469        4.59690       -5.73965
| 12> H          5.96336        2.52611       -3.64239
| 13> H          7.04716        2.06686       -5.47360
| 14> H          7.19815        3.30799       -6.64523
| 15> H          3.28202        2.94919       -4.64026
| 16> H          3.56525        3.51457       -2.98252
| 17> H          4.57483        1.21516       -2.50044
| 18> H          2.84351        1.26085       -2.75146
| 19> H          3.18417        0.48061       -5.10803
| 20> H          3.82485       -0.65632       -3.94614
| 21> H          4.90589        0.40174       -4.82073
| 22> *
| 23> 
| 24> %MaxCore 64000
| 25> 
| 26> %pal nprocs 4
| 27> end  
| 28> 
| 29> %scf
| 30>   MaxIter 150
| 31> end
| 32> 
| 33> 
| 34>                          ****END OF INPUT****
================================================================================

                       ****************************
                       * Single Point Calculation *
                       ****************************

---------------------------------
CARTESIAN COORDINATES (ANGSTROEM)
---------------------------------
  C      3.905950    2.819850   -3.752920
  N      5.295620    3.131510   -4.105330
  C      3.803510    1.374720   -3.260810
  C      3.939930    0.320360   -4.367730
  C      5.708620    3.468890   -5.324190
  N      6.904700    3.038950   -5.717080
  N      4.981880    4.293570   -6.097460
  H      5.000550    4.101310   -7.087760
  H      4.084690    4.596900   -5.739650
  H      5.963360    2.526110   -3.642390
  H      7.047160    2.066860   -5.473600
  H      7.198150    3.307990   -6.645230
  H      3.282020    2.949190   -4.640260
  H      3.565250    3.514570   -2.982520
  H      4.574830    1.215160   -2.500440
  H      2.843510    1.260850   -2.751460
  H      3.184170    0.480610   -5.108030
  H      3.824850   -0.656320   -3.946140
  H      4.905890    0.401740   -4.820730

----------------------------
CARTESIAN COORDINATES (A.U.)
----------------------------
  NO LB      ZA    FRAG     MASS         X           Y           Z
   0 C     6.0000    0    12.011    7.381176    5.328744   -7.091991
   1 N     7.0000    0    14.007   10.007272    5.917696   -7.757949
   2 C     6.0000    0    12.011    7.187592    2.597844   -6.162038
   3 C     6.0000    0    12.011    7.445389    0.605393   -8.253814
   4 C     6.0000    0    12.011   10.787728    6.555252  -10.061261
   5 N     7.0000    0    14.007   13.047992    5.742783  -10.803715
   6 N     7.0000    0    14.007    9.414389    8.113671  -11.522530
   7 H     1.0000    0     1.008    9.449670    7.750353  -13.393925
   8 H     1.0000    0     1.008    7.718945    8.686882  -10.846367
   9 H     1.0000    0     1.008   11.269117    4.773656   -6.883120
  10 H     1.0000    0     1.008   13.317202    3.905799  -10.343605
  11 H     1.0000    0     1.008   13.602532    6.251195  -12.557665
  12 H     1.0000    0     1.008    6.202119    5.573161   -8.768821
  13 H     1.0000    0     1.008    6.737346    6.641575   -5.636146
  14 H     1.0000    0     1.008    8.645176    2.296320   -4.725147
  15 H     1.0000    0     1.008    5.373455    2.382661   -5.199506
  16 H     1.0000    0     1.008    6.017209    0.908221   -9.652778
  17 H     1.0000    0     1.008    7.227919   -1.240265   -7.457124
  18 H     1.0000    0     1.008    9.270789    0.759179   -9.109859

--------------------------------
INTERNAL COORDINATES (ANGSTROEM)
--------------------------------
 C      0   0   0     0.000000000000     0.00000000     0.00000000
 N      1   0   0     1.467142621765     0.00000000     0.00000000
 C      1   2   0     1.530054548897   109.95659769     0.00000000
 C      3   1   2     1.534782496773   114.26323443   287.08478012
 C      2   1   3     1.330418717547   124.60848250   117.82477566
 N      5   2   1     1.330345189077   117.88568818   216.04039772
 N      5   2   1     1.343947403324   120.98879030    40.55692244
 H      7   5   2     1.008963114539   115.96332282   215.01866637
 H      7   5   2     1.012416406969   117.36806711   356.14703280
 H      2   1   3     1.013261719005   112.80142721   337.30547611
 H      6   5   2     1.012193820422   111.46134138    44.03787504
 H      6   5   2     1.009929624578   116.52326395   180.07681422
 H      1   2   3     1.092423798761   108.70677307   240.06289078
 H      1   2   3     1.091892178010   109.26095115   121.65707238
 H      3   1   2     1.094786039781   108.29255625    49.74677375
 H      3   1   2     1.092704808903   107.88871666   164.36858960
 H      4   3   1     1.069998752382   109.47069471   301.85712975
 H      4   3   1     1.069993157408   109.47138538   181.85652280
 H      4   3   1     1.070004871952   109.47118203    61.85693087

---------------------------
INTERNAL COORDINATES (A.U.)
---------------------------
 C      0   0   0     0.000000000000     0.00000000     0.00000000
 N      1   0   0     2.772497754539     0.00000000     0.00000000
 C      1   2   0     2.891384067376   109.95659769     0.00000000
 C      3   1   2     2.900318594036   114.26323443   287.08478012
 C      2   1   3     2.514127019607   124.60848250   117.82477566
 N      5   2   1     2.513988070935   117.88568818   216.04039772
 N      5   2   1     2.539692530676   120.98879030    40.55692244
 H      7   5   2     1.906663965707   115.96332282   215.01866637
 H      7   5   2     1.913189742660   117.36806711   356.14703280
 H      2   1   3     1.914787150905   112.80142721   337.30547611
 H      6   5   2     1.912769115045   111.46134138    44.03787504
 H      6   5   2     1.908490404986   116.52326395   180.07681422
 H      1   2   3     2.064381801837   108.70677307   240.06289078
 H      1   2   3     2.063377184210   109.26095115   121.65707238
 H      3   1   2     2.068845790427   108.29255625    49.74677375
 H      3   1   2     2.064912834046   107.88871666   164.36858960
 H      4   3   1     2.022004605640   109.47069471   301.85712975
 H      4   3   1     2.021994032671   109.47138538   181.85652280
 H      4   3   1     2.022016169950   109.47118203    61.85693087

---------------------
BASIS SET INFORMATION
---------------------
There are 3 groups of distinct atoms

 Group   1 Type C   : 8s4p2d contracted to 4s2p2d pattern {5111/31/11}
 Group   2 Type N   : 8s4p2d contracted to 4s2p2d pattern {5111/31/11}
 Group   3 Type H   : 4s2p contracted to 2s2p pattern {31/11}

Atom   0C    basis set group =>   1
Atom   1N    basis set group =>   2
Atom   2C    basis set group =>   1
Atom   3C    basis set group =>   1
Atom   4C    basis set group =>   1
Atom   5N    basis set group =>   2
Atom   6N    basis set group =>   2
Atom   7H    basis set group =>   3
Atom   8H    basis set group =>   3
Atom   9H    basis set group =>   3
Atom  10H    basis set group =>   3
Atom  11H    basis set group =>   3
Atom  12H    basis set group =>   3
Atom  13H    basis set group =>   3
Atom  14H    basis set group =>   3
Atom  15H    basis set group =>   3
Atom  16H    basis set group =>   3
Atom  17H    basis set group =>   3
Atom  18H    basis set group =>   3
---------------------------------
AUXILIARY/J BASIS SET INFORMATION
---------------------------------
There are 3 groups of distinct atoms

 Group   1 Type C   : 12s5p4d2f1g contracted to 6s4p3d1f1g pattern {711111/2111/211/2/1}
 Group   2 Type N   : 12s5p4d2f1g contracted to 6s4p3d1f1g pattern {711111/2111/211/2/1}
 Group   3 Type H   : 5s2p1d contracted to 3s1p1d pattern {311/2/1}

Atom   0C    basis set group =>   1
Atom   1N    basis set group =>   2
Atom   2C    basis set group =>   1
Atom   3C    basis set group =>   1
Atom   4C    basis set group =>   1
Atom   5N    basis set group =>   2
Atom   6N    basis set group =>   2
Atom   7H    basis set group =>   3
Atom   8H    basis set group =>   3
Atom   9H    basis set group =>   3
Atom  10H    basis set group =>   3
Atom  11H    basis set group =>   3
Atom  12H    basis set group =>   3
Atom  13H    basis set group =>   3
Atom  14H    basis set group =>   3
Atom  15H    basis set group =>   3
Atom  16H    basis set group =>   3
Atom  17H    basis set group =>   3
Atom  18H    basis set group =>   3


           ************************************************************
           *        Program running with 4 parallel MPI-processes     *
           *              working on a common directory               *
           ************************************************************
------------------------------------------------------------------------------
                           ORCA GTO INTEGRAL CALCULATION
                           -- RI-GTO INTEGRALS CHOSEN --
------------------------------------------------------------------------------
------------------------------------------------------------------------------
                   ___                                                        
                  /   \      - P O W E R E D   B Y -                         
                 /     \                                                     
                 |  |  |   _    _      __       _____    __    __             
                 |  |  |  | |  | |    /  \     |  _  \  |  |  /  |          
                  \  \/   | |  | |   /    \    | | | |  |  | /  /          
                 / \  \   | |__| |  /  /\  \   | |_| |  |  |/  /          
                |  |  |   |  __  | /  /__\  \  |    /   |      \           
                |  |  |   | |  | | |   __   |  |    \   |  |\   \          
                \     /   | |  | | |  |  |  |  | |\  \  |  | \   \       
                 \___/    |_|  |_| |__|  |__|  |_| \__\ |__|  \__/        
                                                                              
                      - O R C A' S   B I G   F R I E N D -                    
                                      &                                       
                       - I N T E G R A L  F E E D E R -                       
                                                                              
 v1 FN, 2020, v2 2021                                                         
------------------------------------------------------------------------------


Reading SHARK input file 14Feb_SVPD_BLYP_A_wt_wb97_typ1_pos.SHARKINP.tmp ... ok
----------------------
SHARK INTEGRAL PACKAGE
----------------------

Number of atoms                             ...     19
Number of basis functions                   ...    236
Number of shells                            ...    104
Maximum angular momentum                    ...      2
Integral batch strategy                     ... SHARK/LIBINT Hybrid
RI-J (if used) integral strategy            ... SPLIT-RIJ (Revised 2003 algorithm where possible)
Printlevel                                  ...      1
Contraction scheme used                     ... SEGMENTED contraction
Coulomb Range Separation                    ... NOT USED
Exchange Range Separation                   ... NOT USED
Finite Nucleus Model                        ... NOT USED
Auxiliary Coulomb fitting basis             ... AVAILABLE
   # of basis functions in Aux-J            ...    475
   # of shells in Aux-J                     ...    165
   Maximum angular momentum in Aux-J        ...      4
Auxiliary J/K fitting basis                 ... NOT available
Auxiliary Correlation fitting basis         ... NOT available
Auxiliary 'external' fitting basis          ... NOT available
Integral threshold                          ...     2.500000e-11
Primitive cut-off                           ...     2.500000e-12
Primitive pair pre-selection threshold      ...     2.500000e-12

Calculating pre-screening integrals         ... done (  0.0 sec) Dimension = 104
Organizing shell pair data                  ... done (  0.0 sec)
Shell pair information
Total number of shell pairs                 ...      5460
Shell pairs after pre-screening             ...      5314
Total number of primitive shell pairs       ...     14662
Primitive shell pairs kept                  ...     11651
          la=0 lb=0:   1337 shell pairs
          la=1 lb=0:   1914 shell pairs
          la=1 lb=1:    723 shell pairs
          la=2 lb=0:    714 shell pairs
          la=2 lb=1:    521 shell pairs
          la=2 lb=2:    105 shell pairs

Calculating one electron integrals          ... done (  0.0 sec)
Calculating RI/J V-Matrix + Cholesky decomp.... done (  0.0 sec)
Calculating Nuclear repulsion               ... done (  0.0 sec) ENN=    330.713292267648 Eh

SHARK setup successfully completed in   0.2 seconds

Maximum memory used throughout the entire GTOINT-calculation: 10.5 MB


           ************************************************************
           *        Program running with 4 parallel MPI-processes     *
           *              working on a common directory               *
           ************************************************************
-------------------------------------------------------------------------------
                                 ORCA SCF
-------------------------------------------------------------------------------

------------
SCF SETTINGS
------------
Hamiltonian:
 Density Functional     Method          .... DFT(GTOs)
 Exchange Functional    Exchange        .... B88
   X-Alpha parameter    XAlpha          ....  0.666667
   Becke's b parameter  XBeta           ....  0.004200
 Correlation Functional Correlation     .... LYP
 Gradients option       PostSCFGGA      .... off
   Density functional embedding theory  .... OFF
   NL short-range parameter             ....  4.000000
 RI-approximation to the Coulomb term is turned on
   Number of AuxJ basis functions       .... 475


General Settings:
 Integral files         IntName         .... 14Feb_SVPD_BLYP_A_wt_wb97_typ1_pos
 Hartree-Fock type      HFTyp           .... RHF
 Total Charge           Charge          ....    1
 Multiplicity           Mult            ....    1
 Number of Electrons    NEL             ....   56
 Basis Dimension        Dim             ....  236
 Nuclear Repulsion      ENuc            ....    330.7132922676 Eh

Convergence Acceleration:
 DIIS                   CNVDIIS         .... on
   Start iteration      DIISMaxIt       ....    12
   Startup error        DIISStart       ....  0.200000
   # of expansion vecs  DIISMaxEq       ....     5
   Bias factor          DIISBfac        ....   1.050
   Max. coefficient     DIISMaxC        ....  10.000
 Trust-Rad. Augm. Hess. CNVTRAH         .... auto
   Auto Start mean grad. ratio tolernc. ....  1.125000
   Auto Start start iteration           ....    20
   Auto Start num. interpolation iter.  ....    10
   Max. Number of Micro iterations      ....    16
   Max. Number of Macro iterations      .... Maxiter - #DIIS iter
   Number of Davidson start vectors     ....     2
   Converg. threshold I  (grad. norm)   ....   1.000e-05
   Converg. threshold II (energy diff.) ....   1.000e-08
   Grad. Scal. Fac. for Micro threshold ....   0.100
   Minimum threshold for Micro iter.    ....   0.010
   NR start threshold (gradient norm)   ....   0.001
   Initial trust radius                 ....   0.400
   Minimum AH scaling param. (alpha)    ....   1.000
   Maximum AH scaling param. (alpha)    .... 1000.000
   Orbital update algorithm             .... Taylor
   White noise on init. David. guess    .... on
   Maximum white noise                  ....   0.010
   Quad. conv. algorithm                .... NR
 SOSCF                  CNVSOSCF        .... on
   Start iteration      SOSCFMaxIt      ....   150
   Startup grad/error   SOSCFStart      ....  0.003300
 Level Shifting         CNVShift        .... on
   Level shift para.    LevelShift      ....    0.2500
   Turn off err/grad.   ShiftErr        ....    0.0010
 Zerner damping         CNVZerner       .... off
 Static damping         CNVDamp         .... on
   Fraction old density DampFac         ....    0.7000
   Max. Damping (<1)    DampMax         ....    0.9800
   Min. Damping (>=0)   DampMin         ....    0.0000
   Turn off err/grad.   DampErr         ....    0.1000
 Fernandez-Rico         CNVRico         .... off

SCF Procedure:
 Maximum # iterations   MaxIter         ....   150
 SCF integral mode      SCFMode         .... Direct
   Integral package                     .... SHARK and LIBINT hybrid scheme
 Reset frequency        DirectResetFreq ....    20
 Integral Threshold     Thresh          ....  2.500e-11 Eh
 Primitive CutOff       TCut            ....  2.500e-12 Eh

Convergence Tolerance:
 Convergence Check Mode ConvCheckMode   .... Total+1el-Energy
 Convergence forced     ConvForced      .... 0
 Energy Change          TolE            ....  1.000e-08 Eh
 1-El. energy change                    ....  1.000e-05 Eh
 Orbital Gradient       TolG            ....  1.000e-05
 Orbital Rotation angle TolX            ....  1.000e-05
 DIIS Error             TolErr          ....  5.000e-07


Diagonalization of the overlap matrix:
Smallest eigenvalue                        ... 6.994e-05
Time for diagonalization                   ...    0.016 sec
Threshold for overlap eigenvalues          ... 1.000e-08
Number of eigenvalues below threshold      ... 0
Time for construction of square roots      ...    0.009 sec
Total time needed                          ...    0.026 sec

Time for model grid setup =    0.124 sec

------------------------------
INITIAL GUESS: MODEL POTENTIAL
------------------------------
Loading Hartree-Fock densities                     ... done
Calculating cut-offs                               ... done
Initializing the effective Hamiltonian             ... done
Setting up the integral package (SHARK)            ... done
Starting the Coulomb interaction                   ... done (   0.1 sec)
Reading the grid                                   ... done
Mapping shells                                     ... done
Starting the XC term evaluation                    ... done (   0.1 sec)
  promolecular density results
     # of electrons  =     56.997787817
     EX              =    -43.959248043
     EC              =     -1.883138488
     EX+EC           =    -45.842386531
Transforming the Hamiltonian                       ... done (   0.0 sec)
Diagonalizing the Hamiltonian                      ... done (   0.0 sec)
Back transforming the eigenvectors                 ... done (   0.0 sec)
Now organizing SCF variables                       ... done
                      ------------------
                      INITIAL GUESS DONE (   0.4 sec)
                      ------------------
-------------------
DFT GRID GENERATION
-------------------

General Integration Accuracy     IntAcc      ... 4.388
Radial Grid Type                 RadialGrid  ... OptM3 with GC (2021)
Angular Grid (max. ang.)         AngularGrid ... 4 (Lebedev-302)
Angular grid pruning method      GridPruning ... 4 (adaptive)
Weight generation scheme         WeightScheme... Becke
Basis function cutoff            BFCut       ... 1.0000e-11
Integration weight cutoff        WCut        ... 1.0000e-14
Angular grids for H and He will be reduced by one unit
Partially contracted basis set               ... off
Rotationally invariant grid construction     ... off

Total number of grid points                  ...    82815
Total number of batches                      ...     1303
Average number of points per batch           ...       63
Average number of grid points per atom       ...     4359
Time for grid setup =    0.511 sec

--------------
SCF ITERATIONS
--------------
ITER       Energy         Delta-E        Max-DP      RMS-DP      [F,P]     Damp
               ***  Starting incremental Fock matrix formation  ***
  0   -323.0897833258   0.000000000000 0.22290104  0.00325588  0.1956513 0.7000
  1   -323.2119867759  -0.122203450120 0.13989143  0.00194265  0.0861476 0.7000
                               ***Turning on DIIS***
  2   -323.2514723026  -0.039485526652 0.11368125  0.00241576  0.0236812 0.0000
  3   -323.3131713856  -0.061699082978 0.12141617  0.00141304  0.0549076 0.0000
  4   -323.3310174432  -0.017846057572 0.02173007  0.00039783  0.0119173 0.0000
  5   -323.3319320358  -0.000914592629 0.01449551  0.00018853  0.0034593 0.0000
                      *** Initiating the SOSCF procedure ***
                           *** Shutting down DIIS ***
                      *** Re-Reading the Fockian *** 
                      *** Removing any level shift *** 
ITER      Energy       Delta-E        Grad      Rot      Max-DP    RMS-DP
  6   -323.33202913  -0.0000970929  0.000304  0.000304  0.003640  0.000064
               *** Restarting incremental Fock matrix formation ***
  7   -323.33203938  -0.0000102481  0.000157  0.000812  0.003496  0.000048
  8   -323.33203991  -0.0000005320  0.000151  0.000283  0.000842  0.000015
  9   -323.33204038  -0.0000004678  0.000071  0.000144  0.001026  0.000014
 10   -323.33204047  -0.0000000892  0.000041  0.000078  0.000401  0.000006
 11   -323.33204059  -0.0000001272  0.000020  0.000092  0.000107  0.000004
 12   -323.33204059  -0.0000000007  0.000022  0.000044  0.000149  0.000002
 13   -323.33204061  -0.0000000158  0.000009  0.000021  0.000116  0.000002
 14   -323.33204061  -0.0000000031  0.000008  0.000012  0.000041  0.000001
 15   -323.33204061  -0.0000000006  0.000003  0.000008  0.000037  0.000001
 16   -323.33204061   0.0000000005  0.000003  0.000005  0.000019  0.000000
                  ***Gradient check signals convergence***
              ***Rediagonalizing the Fockian in SOSCF/NRSCF***

               *****************************************************
               *                     SUCCESS                       *
               *           SCF CONVERGED AFTER  17 CYCLES          *
               *****************************************************


----------------
TOTAL SCF ENERGY
----------------

Total Energy       :         -323.33204062 Eh           -8798.31212 eV

Components:
Nuclear Repulsion  :          330.71329227 Eh            8999.16619 eV
Electronic Energy  :         -654.04533289 Eh          -17797.47831 eV
One Electron Energy:        -1080.33404813 Eh          -29397.38398 eV
Two Electron Energy:          426.28871524 Eh           11599.90567 eV

Virial components:
Potential Energy   :         -643.49004003 Eh          -17510.25419 eV
Kinetic Energy     :          320.15799941 Eh            8711.94207 eV
Virial Ratio       :            2.00991398


DFT components:
N(Alpha)           :       27.999982978400 electrons
N(Beta)            :       27.999982978400 electrons
N(Total)           :       55.999965956800 electrons
E(X)               :      -44.696173094190 Eh       
E(C)               :       -1.866140379127 Eh       
E(XC)              :      -46.562313473317 Eh       
DFET-embed. en.    :        0.000000000000 Eh       

---------------
SCF CONVERGENCE
---------------

  Last Energy change         ...   -6.0230e-09  Tolerance :   1.0000e-08
  Last MAX-Density change    ...    2.1387e-05  Tolerance :   1.0000e-07
  Last RMS-Density change    ...    4.7632e-07  Tolerance :   5.0000e-09
  Last Orbital Gradient      ...    2.5187e-07  Tolerance :   1.0000e-05
  Last Orbital Rotation      ...    7.9504e-07  Tolerance :   1.0000e-05

             **** THE GBW FILE WAS UPDATED (14Feb_SVPD_BLYP_A_wt_wb97_typ1_pos.gbw) ****
             **** DENSITY 14Feb_SVPD_BLYP_A_wt_wb97_typ1_pos.scfp WAS UPDATED ****
             **** ENERGY FILE WAS UPDATED (14Feb_SVPD_BLYP_A_wt_wb97_typ1_pos.en.tmp) ****
             **** THE GBW FILE WAS UPDATED (14Feb_SVPD_BLYP_A_wt_wb97_typ1_pos.gbw) ****
             **** DENSITY 14Feb_SVPD_BLYP_A_wt_wb97_typ1_pos.scfp WAS UPDATED ****
----------------
ORBITAL ENERGIES
----------------

  NO   OCC          E(Eh)            E(eV) 
   0   2.0000     -14.248876      -387.7316 
   1   2.0000     -14.247442      -387.6926 
   2   2.0000     -14.246151      -387.6575 
   3   2.0000     -10.246448      -278.8200 
   4   2.0000     -10.126979      -275.5691 
   5   2.0000     -10.074026      -274.1282 
   6   2.0000     -10.050459      -273.4869 
   7   2.0000      -1.118848       -30.4454 
   8   2.0000      -1.014172       -27.5970 
   9   2.0000      -1.006995       -27.4017 
  10   2.0000      -0.861888       -23.4532 
  11   2.0000      -0.789629       -21.4869 
  12   2.0000      -0.754203       -20.5229 
  13   2.0000      -0.720317       -19.6008 
  14   2.0000      -0.701842       -19.0981 
  15   2.0000      -0.674632       -18.3577 
  16   2.0000      -0.644855       -17.5474 
  17   2.0000      -0.634325       -17.2609 
  18   2.0000      -0.592811       -16.1312 
  19   2.0000      -0.580438       -15.7945 
  20   2.0000      -0.538839       -14.6626 
  21   2.0000      -0.533911       -14.5284 
  22   2.0000      -0.510809       -13.8998 
  23   2.0000      -0.468388       -12.7455 
  24   2.0000      -0.451674       -12.2907 
  25   2.0000      -0.450991       -12.2721 
  26   2.0000      -0.441772       -12.0212 
  27   2.0000      -0.414607       -11.2820 
  28   0.0000      -0.221129        -6.0172 
  29   0.0000      -0.176928        -4.8145 
  30   0.0000      -0.147635        -4.0174 
  31   0.0000      -0.131147        -3.5687 
  32   0.0000      -0.116881        -3.1805 
  33   0.0000      -0.110287        -3.0011 
  34   0.0000      -0.097219        -2.6455 
  35   0.0000      -0.084000        -2.2858 
  36   0.0000      -0.070713        -1.9242 
  37   0.0000      -0.067638        -1.8405 
  38   0.0000      -0.059127        -1.6089 
  39   0.0000      -0.044569        -1.2128 
  40   0.0000      -0.040325        -1.0973 
  41   0.0000      -0.036212        -0.9854 
  42   0.0000      -0.025970        -0.7067 
  43   0.0000      -0.017738        -0.4827 
  44   0.0000      -0.003551        -0.0966 
  45   0.0000      -0.000465        -0.0126 
  46   0.0000       0.003407         0.0927 
  47   0.0000       0.013989         0.3807 
  48   0.0000       0.022397         0.6095 
  49   0.0000       0.033853         0.9212 
  50   0.0000       0.037192         1.0120 
  51   0.0000       0.040637         1.1058 
  52   0.0000       0.051068         1.3896 
  53   0.0000       0.058131         1.5818 
  54   0.0000       0.066492         1.8093 
  55   0.0000       0.069052         1.8790 
  56   0.0000       0.074831         2.0363 
  57   0.0000       0.090816         2.4712 
  58   0.0000       0.097273         2.6469 
  59   0.0000       0.111339         3.0297 
  60   0.0000       0.117492         3.1971 
  61   0.0000       0.129633         3.5275 
  62   0.0000       0.134596         3.6625 
  63   0.0000       0.144513         3.9324 
  64   0.0000       0.153749         4.1837 
  65   0.0000       0.160068         4.3557 
  66   0.0000       0.166570         4.5326 
  67   0.0000       0.171576         4.6688 
  68   0.0000       0.173340         4.7168 
  69   0.0000       0.191064         5.1991 
  70   0.0000       0.194340         5.2883 
  71   0.0000       0.199376         5.4253 
  72   0.0000       0.208770         5.6809 
  73   0.0000       0.212058         5.7704 
  74   0.0000       0.214119         5.8265 
  75   0.0000       0.217700         5.9239 
  76   0.0000       0.220927         6.0117 
  77   0.0000       0.227522         6.1912 
  78   0.0000       0.234465         6.3801 
  79   0.0000       0.243355         6.6220 
  80   0.0000       0.252675         6.8756 
  81   0.0000       0.258701         7.0396 
  82   0.0000       0.267373         7.2756 
  83   0.0000       0.271463         7.3869 
  84   0.0000       0.279351         7.6015 
  85   0.0000       0.282846         7.6966 
  86   0.0000       0.292906         7.9704 
  87   0.0000       0.307299         8.3620 
  88   0.0000       0.308570         8.3966 
  89   0.0000       0.313216         8.5231 
  90   0.0000       0.316027         8.5995 
  91   0.0000       0.325465         8.8564 
  92   0.0000       0.331139         9.0108 
  93   0.0000       0.341454         9.2914 
  94   0.0000       0.349944         9.5225 
  95   0.0000       0.357077         9.7166 
  96   0.0000       0.362476         9.8635 
  97   0.0000       0.371517        10.1095 
  98   0.0000       0.375036        10.2053 
  99   0.0000       0.389549        10.6002 
 100   0.0000       0.391540        10.6544 
 101   0.0000       0.396665        10.7938 
 102   0.0000       0.402207        10.9446 
 103   0.0000       0.407926        11.1002 
 104   0.0000       0.413487        11.2515 
 105   0.0000       0.425972        11.5913 
 106   0.0000       0.438203        11.9241 
 107   0.0000       0.445216        12.1150 
 108   0.0000       0.453614        12.3435 
 109   0.0000       0.464528        12.6405 
 110   0.0000       0.467083        12.7100 
 111   0.0000       0.483526        13.1574 
 112   0.0000       0.498574        13.5669 
 113   0.0000       0.504606        13.7310 
 114   0.0000       0.516447        14.0532 
 115   0.0000       0.524706        14.2780 
 116   0.0000       0.532763        14.4972 
 117   0.0000       0.542367        14.7586 
 118   0.0000       0.560029        15.2392 
 119   0.0000       0.567777        15.4500 
 120   0.0000       0.588260        16.0074 
 121   0.0000       0.594744        16.1838 
 122   0.0000       0.607168        16.5219 
 123   0.0000       0.618498        16.8302 
 124   0.0000       0.647184        17.6108 
 125   0.0000       0.664724        18.0881 
 126   0.0000       0.699981        19.0474 
 127   0.0000       0.720279        19.5998 
 128   0.0000       0.741857        20.1870 
 129   0.0000       0.753752        20.5106 
 130   0.0000       0.790199        21.5024 
 131   0.0000       0.803975        21.8773 
 132   0.0000       0.818874        22.2827 
 133   0.0000       0.823858        22.4183 
 134   0.0000       0.832820        22.6622 
 135   0.0000       0.849577        23.1182 
 136   0.0000       0.857932        23.3455 
 137   0.0000       0.865537        23.5525 
 138   0.0000       0.872390        23.7390 
 139   0.0000       0.888653        24.1815 
 140   0.0000       0.889685        24.2095 
 141   0.0000       0.910995        24.7894 
 142   0.0000       0.921392        25.0724 
 143   0.0000       0.931798        25.3555 
 144   0.0000       0.969754        26.3884 
 145   0.0000       0.977461        26.5981 
 146   0.0000       1.006098        27.3773 
 147   0.0000       1.018143        27.7051 
 148   0.0000       1.048762        28.5383 
 149   0.0000       1.056224        28.7413 
 150   0.0000       1.094871        29.7929 
 151   0.0000       1.125388        30.6234 
 152   0.0000       1.136596        30.9283 
 153   0.0000       1.199761        32.6472 
 154   0.0000       1.206452        32.8292 
 155   0.0000       1.237135        33.6642 
 156   0.0000       1.245154        33.8824 
 157   0.0000       1.268129        34.5076 
 158   0.0000       1.316456        35.8226 
 159   0.0000       1.371247        37.3135 
 160   0.0000       1.384155        37.6648 
 161   0.0000       1.395470        37.9727 
 162   0.0000       1.406571        38.2748 
 163   0.0000       1.434978        39.0477 
 164   0.0000       1.455352        39.6021 
 165   0.0000       1.475379        40.1471 
 166   0.0000       1.485406        40.4200 
 167   0.0000       1.498959        40.7887 
 168   0.0000       1.514851        41.2212 
 169   0.0000       1.547148        42.1000 
 170   0.0000       1.561667        42.4951 
 171   0.0000       1.591081        43.2955 
 172   0.0000       1.599057        43.5126 
 173   0.0000       1.626135        44.2494 
 174   0.0000       1.631136        44.3855 
 175   0.0000       1.658581        45.1323 
 176   0.0000       1.679362        45.6978 
 177   0.0000       1.700565        46.2747 
 178   0.0000       1.737569        47.2816 
 179   0.0000       1.745864        47.5074 
 180   0.0000       1.749927        47.6179 
 181   0.0000       1.778727        48.4016 
 182   0.0000       1.789596        48.6974 
 183   0.0000       1.810375        49.2628 
 184   0.0000       1.820257        49.5317 
 185   0.0000       1.826320        49.6967 
 186   0.0000       1.832494        49.8647 
 187   0.0000       1.857674        50.5499 
 188   0.0000       1.869690        50.8769 
 189   0.0000       1.884488        51.2795 
 190   0.0000       1.899259        51.6815 
 191   0.0000       1.918717        52.2109 
 192   0.0000       1.926883        52.4332 
 193   0.0000       1.940658        52.8080 
 194   0.0000       1.966213        53.5034 
 195   0.0000       1.978005        53.8243 
 196   0.0000       1.999159        54.3999 
 197   0.0000       2.042390        55.5763 
 198   0.0000       2.048689        55.7477 
 199   0.0000       2.060262        56.0626 
 200   0.0000       2.086619        56.7798 
 201   0.0000       2.097786        57.0836 
 202   0.0000       2.123885        57.7939 
 203   0.0000       2.166997        58.9670 
 204   0.0000       2.196161        59.7606 
 205   0.0000       2.230362        60.6912 
 206   0.0000       2.240923        60.9786 
 207   0.0000       2.271601        61.8134 
 208   0.0000       2.284156        62.1550 
 209   0.0000       2.332853        63.4801 
 210   0.0000       2.377383        64.6919 
 211   0.0000       2.417122        65.7732 
 212   0.0000       2.454196        66.7821 
 213   0.0000       2.471662        67.2573 
 214   0.0000       2.483675        67.5842 
 215   0.0000       2.510194        68.3058 
 216   0.0000       2.551378        69.4265 
 217   0.0000       2.611761        71.0696 
 218   0.0000       2.638757        71.8042 
 219   0.0000       2.653540        72.2065 
 220   0.0000       2.673245        72.7427 
 221   0.0000       2.784034        75.7574 
 222   0.0000       2.802411        76.2575 
 223   0.0000       2.858516        77.7842 
 224   0.0000       2.882162        78.4276 
 225   0.0000       2.912185        79.2446 
 226   0.0000       2.925969        79.6197 
 227   0.0000       2.929743        79.7224 
 228   0.0000       2.964954        80.6805 
 229   0.0000       2.987251        81.2872 
 230   0.0000       3.041069        82.7517 
 231   0.0000       3.067860        83.4807 
 232   0.0000       3.168106        86.2086 
 233   0.0000       3.230225        87.8989 
 234   0.0000       3.349905        91.1556 
 235   0.0000       3.371996        91.7567 

                    ********************************
                    * MULLIKEN POPULATION ANALYSIS *
                    ********************************

-----------------------
MULLIKEN ATOMIC CHARGES
-----------------------
   0 C :    0.992663
   1 N :   -0.159513
   2 C :   -0.004077
   3 C :    1.278484
   4 C :    0.497246
   5 N :    0.321212
   6 N :    0.281267
   7 H :   -0.096995
   8 H :   -0.052350
   9 H :   -0.143711
  10 H :   -0.094448
  11 H :   -0.065127
  12 H :   -0.145810
  13 H :   -0.485170
  14 H :   -0.178239
  15 H :   -0.264908
  16 H :   -0.070741
  17 H :   -0.173577
  18 H :   -0.436206
Sum of atomic charges:    1.0000000

--------------------------------
MULLIKEN REDUCED ORBITAL CHARGES
--------------------------------
  0 C s       :     2.583225  s :     2.583225
      pz      :     0.739681  p :     2.306091
      px      :     0.776935
      py      :     0.789474
      dz2     :    -0.009148  d :     0.118021
      dxz     :    -0.020851
      dyz     :     0.036911
      dx2y2   :     0.004406
      dxy     :     0.106703
  1 N s       :     3.359575  s :     3.359575
      pz      :     1.071600  p :     3.578556
      px      :     1.113649
      py      :     1.393307
      dz2     :     0.010309  d :     0.221382
      dxz     :     0.055614
      dyz     :     0.045360
      dx2y2   :     0.069169
      dxy     :     0.040930
  2 C s       :     2.745078  s :     2.745078
      pz      :     0.972084  p :     2.666182
      px      :     0.765696
      py      :     0.928402
      dz2     :     0.149892  d :     0.592817
      dxz     :     0.128655
      dyz     :     0.079852
      dx2y2   :     0.124142
      dxy     :     0.110277
  3 C s       :     2.122808  s :     2.122808
      pz      :     0.867656  p :     2.513736
      px      :     0.803884
      py      :     0.842196
      dz2     :     0.067430  d :     0.084972
      dxz     :     0.034920
      dyz     :     0.010999
      dx2y2   :    -0.016081
      dxy     :    -0.012296
  4 C s       :     3.269556  s :     3.269556
      pz      :     0.875331  p :     2.444579
      px      :     0.811099
      py      :     0.758149
      dz2     :    -0.062097  d :    -0.211381
      dxz     :    -0.010026
      dyz     :    -0.062763
      dx2y2   :     0.003792
      dxy     :    -0.080288
  5 N s       :     3.172093  s :     3.172093
      pz      :     1.179412  p :     3.506124
      px      :     1.165039
      py      :     1.161672
      dz2     :    -0.019346  d :     0.000571
      dxz     :     0.009436
      dyz     :     0.002047
      dx2y2   :    -0.004548
      dxy     :     0.012982
  6 N s       :     3.193363  s :     3.193363
      pz      :     1.037647  p :     3.537262
      px      :     1.145085
      py      :     1.354530
      dz2     :    -0.025608  d :    -0.011892
      dxz     :     0.001314
      dyz     :     0.001281
      dx2y2   :     0.005505
      dxy     :     0.005616
  7 H s       :     1.050912  s :     1.050912
      pz      :     0.014800  p :     0.046083
      px      :     0.011209
      py      :     0.020075
  8 H s       :     1.053239  s :     1.053239
      pz      :    -0.042347  p :    -0.000889
      px      :     0.003281
      py      :     0.038176
  9 H s       :     1.127501  s :     1.127501
      pz      :     0.013402  p :     0.016210
      px      :    -0.009058
      py      :     0.011866
 10 H s       :     1.064008  s :     1.064008
      pz      :     0.017708  p :     0.030440
      px      :     0.002943
      py      :     0.009789
 11 H s       :     1.042838  s :     1.042838
      pz      :    -0.004578  p :     0.022289
      px      :     0.023097
      py      :     0.003770
 12 H s       :     1.157290  s :     1.157290
      pz      :     0.004937  p :    -0.011480
      px      :     0.027950
      py      :    -0.044367
 13 H s       :     1.501372  s :     1.501372
      pz      :    -0.026169  p :    -0.016202
      px      :     0.006988
      py      :     0.002978
 14 H s       :     1.195376  s :     1.195376
      pz      :     0.022984  p :    -0.017137
      px      :    -0.019142
      py      :    -0.020979
 15 H s       :     1.267084  s :     1.267084
      pz      :     0.003354  p :    -0.002176
      px      :     0.025100
      py      :    -0.030630
 16 H s       :     1.063004  s :     1.063004
      pz      :    -0.005181  p :     0.007737
      px      :     0.027642
      py      :    -0.014724
 17 H s       :     1.180729  s :     1.180729
      pz      :     0.014489  p :    -0.007152
      px      :    -0.046573
      py      :     0.024931
 18 H s       :     1.304180  s :     1.304180
      pz      :    -0.020139  p :     0.132027
      px      :     0.130515
      py      :     0.021651


                     *******************************
                     * LOEWDIN POPULATION ANALYSIS *
                     *******************************

----------------------
LOEWDIN ATOMIC CHARGES
----------------------
   0 C :    0.076979
   1 N :    0.080219
   2 C :   -0.034717
   3 C :    0.160565
   4 C :   -0.081738
   5 N :    0.293711
   6 N :    0.303767
   7 H :    0.031707
   8 H :    0.018969
   9 H :    0.038793
  10 H :    0.025117
  11 H :    0.031490
  12 H :    0.019894
  13 H :    0.033084
  14 H :    0.024505
  15 H :    0.034490
  16 H :   -0.012843
  17 H :   -0.004622
  18 H :   -0.039370

-------------------------------
LOEWDIN REDUCED ORBITAL CHARGES
-------------------------------
  0 C s       :     2.678777  s :     2.678777
      pz      :     0.905734  p :     2.581967
      px      :     0.764509
      py      :     0.911724
      dz2     :     0.075639  d :     0.662276
      dxz     :     0.134134
      dyz     :     0.141173
      dx2y2   :     0.149229
      dxy     :     0.162102
  1 N s       :     2.935720  s :     2.935720
      pz      :     1.106879  p :     3.406273
      px      :     1.077466
      py      :     1.221928
      dz2     :     0.115253  d :     0.577789
      dxz     :     0.174339
      dyz     :     0.079739
      dx2y2   :     0.092547
      dxy     :     0.115912
  2 C s       :     2.697981  s :     2.697981
      pz      :     0.906637  p :     2.684698
      px      :     0.919502
      py      :     0.858559
      dz2     :     0.112191  d :     0.652039
      dxz     :     0.136614
      dyz     :     0.154509
      dx2y2   :     0.158624
      dxy     :     0.090101
  3 C s       :     2.703626  s :     2.703626
      pz      :     0.910323  p :     2.746496
      px      :     0.924557
      py      :     0.911615
      dz2     :     0.072083  d :     0.389314
      dxz     :     0.112525
      dyz     :     0.079112
      dx2y2   :     0.089957
      dxy     :     0.035638
  4 C s       :     2.616901  s :     2.616901
      pz      :     0.846878  p :     2.431644
      px      :     0.837228
      py      :     0.747538
      dz2     :     0.237347  d :     1.033193
      dxz     :     0.229814
      dyz     :     0.186931
      dx2y2   :     0.215724
      dxy     :     0.163377
  5 N s       :     2.953499  s :     2.953499
      pz      :     1.155417  p :     3.453547
      px      :     1.167248
      py      :     1.130882
      dz2     :     0.059476  d :     0.299244
      dxz     :     0.068952
      dyz     :     0.024603
      dx2y2   :     0.079091
      dxy     :     0.067122
  6 N s       :     2.951522  s :     2.951522
      pz      :     1.067742  p :     3.456431
      px      :     1.134570
      py      :     1.254120
      dz2     :     0.085845  d :     0.288280
      dxz     :     0.048378
      dyz     :     0.049818
      dx2y2   :     0.049243
      dxy     :     0.054996
  7 H s       :     0.647555  s :     0.647555
      pz      :     0.144977  p :     0.320737
      px      :     0.080783
      py      :     0.094977
  8 H s       :     0.640027  s :     0.640027
      pz      :     0.086647  p :     0.341004
      px      :     0.145532
      py      :     0.108825
  9 H s       :     0.630147  s :     0.630147
      pz      :     0.099786  p :     0.331060
      px      :     0.109419
      py      :     0.121855
 10 H s       :     0.642414  s :     0.642414
      pz      :     0.092332  p :     0.332469
      px      :     0.086175
      py      :     0.153962
 11 H s       :     0.646142  s :     0.646142
      pz      :     0.151180  p :     0.322368
      px      :     0.089341
      py      :     0.081848
 12 H s       :     0.719737  s :     0.719737
      pz      :     0.116782  p :     0.260369
      px      :     0.069112
      py      :     0.074475
 13 H s       :     0.735206  s :     0.735206
      pz      :     0.092989  p :     0.231711
      px      :     0.055952
      py      :     0.082769
 14 H s       :     0.725067  s :     0.725067
      pz      :     0.088611  p :     0.250428
      px      :     0.102749
      py      :     0.059068
 15 H s       :     0.721962  s :     0.721962
      pz      :     0.072387  p :     0.243548
      px      :     0.112825
      py      :     0.058336
 16 H s       :     0.738419  s :     0.738419
      pz      :     0.095465  p :     0.274424
      px      :     0.103551
      py      :     0.075408
 17 H s       :     0.734691  s :     0.734691
      pz      :     0.079318  p :     0.269932
      px      :     0.073803
      py      :     0.116811
 18 H s       :     0.748722  s :     0.748722
      pz      :     0.081785  p :     0.290648
      px      :     0.128879
      py      :     0.079984


                      *****************************
                      * MAYER POPULATION ANALYSIS *
                      *****************************

  NA   - Mulliken gross atomic population
  ZA   - Total nuclear charge
  QA   - Mulliken gross atomic charge
  VA   - Mayer's total valence
  BVA  - Mayer's bonded valence
  FA   - Mayer's free valence

  ATOM       NA         ZA         QA         VA         BVA        FA
  0 C      5.0073     6.0000     0.9927     3.8936     3.8936    -0.0000
  1 N      7.1595     7.0000    -0.1595     4.1138     4.1138     0.0000
  2 C      6.0041     6.0000    -0.0041     5.1377     5.1377     0.0000
  3 C      4.7215     6.0000     1.2785     3.3370     3.3370    -0.0000
  4 C      5.5028     6.0000     0.4972     3.2776     3.2776     0.0000
  5 N      6.6788     7.0000     0.3212     3.5251     3.5251     0.0000
  6 N      6.7187     7.0000     0.2813     3.4810     3.4810     0.0000
  7 H      1.0970     1.0000    -0.0970     0.9780     0.9780     0.0000
  8 H      1.0523     1.0000    -0.0523     0.8597     0.8597     0.0000
  9 H      1.1437     1.0000    -0.1437     0.8472     0.8472     0.0000
 10 H      1.0944     1.0000    -0.0944     0.9425     0.9425     0.0000
 11 H      1.0651     1.0000    -0.0651     0.9099     0.9099     0.0000
 12 H      1.1458     1.0000    -0.1458     0.8562     0.8562    -0.0000
 13 H      1.4852     1.0000    -0.4852     0.6909     0.6909     0.0000
 14 H      1.1782     1.0000    -0.1782     0.9159     0.9159     0.0000
 15 H      1.2649     1.0000    -0.2649     0.9749     0.9749    -0.0000
 16 H      1.0707     1.0000    -0.0707     0.9562     0.9562    -0.0000
 17 H      1.1736     1.0000    -0.1736     0.9145     0.9145    -0.0000
 18 H      1.4362     1.0000    -0.4362     1.1611     1.1611    -0.0000

  Mayer bond orders larger than 0.100000
B(  0-C ,  1-N ) :   0.9687 B(  0-C ,  2-C ) :   1.1508 B(  0-C , 12-H ) :   0.6655 
B(  0-C , 13-H ) :   0.7718 B(  0-C , 15-H ) :   0.1998 B(  1-N ,  2-C ) :   0.1319 
B(  1-N ,  4-C ) :   1.2406 B(  1-N ,  5-N ) :   0.2063 B(  1-N ,  6-N ) :   0.1023 
B(  1-N ,  9-H ) :   1.0808 B(  1-N , 12-H ) :   0.1387 B(  1-N , 13-H ) :   0.1367 
B(  2-C ,  3-C ) :   1.2219 B(  2-C , 14-H ) :   0.8383 B(  2-C , 15-H ) :   0.8578 
B(  2-C , 16-H ) :   0.2650 B(  2-C , 17-H ) :   0.2729 B(  2-C , 18-H ) :   0.2913 
B(  3-C , 16-H ) :   0.6410 B(  3-C , 17-H ) :   0.6364 B(  3-C , 18-H ) :   0.6384 
B(  4-C ,  5-N ) :   1.0680 B(  4-C ,  6-N ) :   1.0704 B(  4-C ,  9-H ) :  -0.1951 
B(  5-N ,  6-N ) :   0.1391 B(  5-N , 10-H ) :   1.0230 B(  5-N , 11-H ) :   0.9921 
B(  6-N ,  7-H ) :   1.1349 B(  6-N ,  8-H ) :   0.9588 B(  7-H ,  8-H ) :  -0.1306 
B( 10-H , 11-H ) :  -0.1029 B( 12-H , 13-H ) :  -0.1648 B( 16-H , 18-H ) :   0.1341 


-------
TIMINGS
-------

Total SCF time: 0 days 0 hours 0 min 10 sec 

Total time                  ....      10.317 sec
Sum of individual times     ....      10.095 sec  ( 97.8%)

Fock matrix formation       ....       8.978 sec  ( 87.0%)
  Split-RI-J                ....       2.231 sec  ( 24.9% of F)
  XC integration            ....       6.677 sec  ( 74.4% of F)
    Basis function eval.    ....       2.309 sec  ( 34.6% of XC)
    Density eval.           ....       1.839 sec  ( 27.5% of XC)
    XC-Functional eval.     ....       0.234 sec  (  3.5% of XC)
    XC-Potential eval.      ....       2.037 sec  ( 30.5% of XC)
Diagonalization             ....       0.082 sec  (  0.8%)
Density matrix formation    ....       0.007 sec  (  0.1%)
Population analysis         ....       0.010 sec  (  0.1%)
Initial guess               ....       0.230 sec  (  2.2%)
Orbital Transformation      ....       0.000 sec  (  0.0%)
Orbital Orthonormalization  ....       0.000 sec  (  0.0%)
DIIS solution               ....       0.054 sec  (  0.5%)
SOSCF solution              ....       0.098 sec  (  0.9%)
Grid generation             ....       0.634 sec  (  6.1%)

Maximum memory used throughout the entire SCF-calculation: 29.6 MB


-------------------------------------------------------------------------------
                          DFT DISPERSION CORRECTION                            
                                                                               
                              DFTD3 V3.1  Rev 1                                
                          USING Becke-Johnson damping                          
-------------------------------------------------------------------------------
The BLYP functional is recognized
Active option DFTDOPT                   ...         4   

molecular C6(AA) [au] = 2568.622042 


            DFT-D V3
 parameters
 s6 scaling factor         :     1.0000 
 a1 scaling factor         :     0.4298 
 s8 scaling factor         :     2.6996 
 a2 scaling factor         :     4.2359 
 ad hoc parameters k1-k3   :    16.0000     1.3333    -4.0000 

 Edisp/kcal,au: -20.005473280642  -0.031880747580 
 E6   /kcal   :  -8.472059960 
 E8   /kcal   : -11.533413321 
 % E8         :  57.651289520 

-------------------------   ----------------
Dispersion correction           -0.031880748
-------------------------   ----------------


-------------------------   --------------------
FINAL SINGLE POINT ENERGY      -323.363921366473
-------------------------   --------------------


                            ***************************************
                            *     ORCA property calculations      *
                            ***************************************

                                    ---------------------
                                    Active property flags
                                    ---------------------
   (+) Dipole Moment


------------------------------------------------------------------------------
                       ORCA ELECTRIC PROPERTIES CALCULATION
------------------------------------------------------------------------------

Dipole Moment Calculation                       ... on
Quadrupole Moment Calculation                   ... off
Polarizability Calculation                      ... off
GBWName                                         ... 14Feb_SVPD_BLYP_A_wt_wb97_typ1_pos.gbw
Electron density file                           ... 14Feb_SVPD_BLYP_A_wt_wb97_typ1_pos.scfp
The origin for moment calculation is the CENTER OF MASS  = ( 9.342665,  4.965374 -8.868124)

-------------
DIPOLE MOMENT
-------------
                                X             Y             Z
Electronic contribution:      4.01599       5.70414      -2.01968
Nuclear contribution   :     -3.60155      -5.39511       0.90505
                        -----------------------------------------
Total Dipole Moment    :      0.41445       0.30903      -1.11462
                        -----------------------------------------
Magnitude (a.u.)       :      1.22868
Magnitude (Debye)      :      3.12306



--------------------
Rotational spectrum 
--------------------
 
Rotational constants in cm-1:     0.145371     0.050507     0.045444 
Rotational constants in MHz :  4358.114605  1514.164418  1362.368391 

 Dipole components along the rotational axes: 
x,y,z [a.u.] :    -1.015711     0.324632    -0.610410 
x,y,z [Debye]:    -2.581731     0.825150    -1.551540 

 

Timings for individual modules:

Sum of individual times         ...       10.914 sec (=   0.182 min)
GTO integral calculation        ...        0.394 sec (=   0.007 min)   3.6 %
SCF iterations                  ...       10.520 sec (=   0.175 min)  96.4 %
                             ****ORCA TERMINATED NORMALLY****
TOTAL RUN TIME: 0 days 0 hours 0 minutes 11 seconds 301 msec
