
                                        *****************
                                        * O   R   C   A *
                                        *****************

                                            #,                                       
                                            ###                                      
                                            ####                                     
                                            #####                                    
                                            ######                                   
                                           ########,                                 
                                     ,,################,,,,,                         
                               ,,#################################,,                 
                          ,,##########################################,,             
                       ,#########################################, ''#####,          
                    ,#############################################,,   '####,        
                  ,##################################################,,,,####,       
                ,###########''''           ''''###############################       
              ,#####''   ,,,,##########,,,,          '''####'''          '####       
            ,##' ,,,,###########################,,,                        '##       
           ' ,,###''''                  '''############,,,                           
         ,,##''                                '''############,,,,        ,,,,,,###''
      ,#''                                            '''#######################'''  
     '                                                          ''''####''''         
             ,#######,   #######,   ,#######,      ##                                
            ,#'     '#,  ##    ##  ,#'     '#,    #''#        ######   ,####,        
            ##       ##  ##   ,#'  ##            #'  '#       #        #'  '#        
            ##       ##  #######   ##           ,######,      #####,   #    #        
            '#,     ,#'  ##    ##  '#,     ,#' ,#      #,         ##   #,  ,#        
             '#######'   ##     ##  '#######'  #'      '#     #####' # '####'        



                  #######################################################
                  #                        -***-                        #
                  #          Department of theory and spectroscopy      #
                  #    Directorship and core code : Frank Neese         #
                  #        Max Planck Institute fuer Kohlenforschung    #
                  #                Kaiser Wilhelm Platz 1               #
                  #                 D-45470 Muelheim/Ruhr               #
                  #                      Germany                        #
                  #                                                     #
                  #                  All rights reserved                #
                  #                        -***-                        #
                  #######################################################


                         Program Version 5.0.0 -  RELEASE  -
                                (SVN: $Rev: 19529$)
                ($Date: 2021-06-28 11:36:33 +0200 (Mo, 28 Jun 2021) $)


 With contributions from (in alphabetic order):
   Daniel Aravena         : Magnetic Suceptibility
   Michael Atanasov       : Ab Initio Ligand Field Theory (pilot matlab implementation)
   Alexander A. Auer      : GIAO ZORA, VPT2 properties, NMR spectrum
   Ute Becker             : Parallelization
   Giovanni Bistoni       : ED, misc. LED, open-shell LED, HFLD
   Martin Brehm           : Molecular dynamics
   Dmytro Bykov           : SCF Hessian
   Vijay G. Chilkuri      : MRCI spin determinant printing, contributions to CSF-ICE
   Dipayan Datta          : RHF DLPNO-CCSD density
   Achintya Kumar Dutta   : EOM-CC, STEOM-CC
   Dmitry Ganyushin       : Spin-Orbit,Spin-Spin,Magnetic field MRCI
   Miquel Garcia          : C-PCM Hessian, Gaussian charge scheme
   Yang Guo               : DLPNO-NEVPT2, F12-NEVPT2, CIM, IAO-localization
   Andreas Hansen         : Spin unrestricted coupled pair/coupled cluster methods
   Benjamin Helmich-Paris : MC-RPA, TRAH-SCF, COSX integrals
   Lee Huntington         : MR-EOM, pCC
   Robert Izsak           : Overlap fitted RIJCOSX, COSX-SCS-MP3, EOM
   Marcus Kettner         : VPT2
   Christian Kollmar      : KDIIS, OOCD, Brueckner-CCSD(T), CCSD density, CASPT2, CASPT2-K
   Simone Kossmann        : Meta GGA functionals, TD-DFT gradient, OOMP2, MP2 Hessian
   Martin Krupicka        : Initial AUTO-CI
   Lucas Lang             : DCDCAS
   Marvin Lechner         : AUTO-CI (C++ implementation), FIC-MRCC
   Dagmar Lenk            : GEPOL surface, SMD
   Dimitrios Liakos       : Extrapolation schemes; Compound Job, initial MDCI parallelization
   Dimitrios Manganas     : Further ROCIS development; embedding schemes
   Dimitrios Pantazis     : SARC Basis sets
   Anastasios Papadopoulos: AUTO-CI, single reference methods and gradients
   Taras Petrenko         : DFT Hessian,TD-DFT gradient, ASA, ECA, R-Raman, ABS, FL, XAS/XES, NRVS
   Peter Pinski           : DLPNO-MP2, DLPNO-MP2 Gradient
   Christoph Reimann      : Effective Core Potentials
   Marius Retegan         : Local ZFS, SOC
   Christoph Riplinger    : Optimizer, TS searches, QM/MM, DLPNO-CCSD(T), (RO)-DLPNO pert. Triples
   Tobias Risthaus        : Range-separated hybrids, TD-DFT gradient, RPA, STAB
   Michael Roemelt        : Original ROCIS implementation
   Masaaki Saitow         : Open-shell DLPNO-CCSD energy and density
   Barbara Sandhoefer     : DKH picture change effects
   Avijit Sen             : IP-ROCIS
   Kantharuban Sivalingam : CASSCF convergence, NEVPT2, FIC-MRCI
   Bernardo de Souza      : ESD, SOC TD-DFT
   Georgi Stoychev        : AutoAux, RI-MP2 NMR
   Willem Van den Heuvel  : Paramagnetic NMR
   Boris Wezisla          : Elementary symmetry handling
   Frank Wennmohs         : Technical directorship


 We gratefully acknowledge several colleagues who have allowed us to
 interface, adapt or use parts of their codes:
   Stefan Grimme, W. Hujo, H. Kruse, P. Pracht,  : VdW corrections, initial TS optimization,
                  C. Bannwarth, S. Ehlert          DFT functionals, gCP, sTDA/sTD-DF
   Ed Valeev, F. Pavosevic, A. Kumar             : LibInt (2-el integral package), F12 methods
   Garnet Chan, S. Sharma, J. Yang, R. Olivares  : DMRG
   Ulf Ekstrom                                   : XCFun DFT Library
   Mihaly Kallay                                 : mrcc  (arbitrary order and MRCC methods)
   Jiri Pittner, Ondrej Demel                    : Mk-CCSD
   Frank Weinhold                                : gennbo (NPA and NBO analysis)
   Christopher J. Cramer and Donald G. Truhlar   : smd solvation model
   Lars Goerigk                                  : TD-DFT with DH, B97 family of functionals
   V. Asgeirsson, H. Jonsson                     : NEB implementation
   FAccTs GmbH                                   : IRC, NEB, NEB-TS, DLPNO-Multilevel, CI-OPT
                                                   MM, QMMM, 2- and 3-layer-ONIOM, Crystal-QMMM,
                                                   LR-CPCM, SF, NACMEs, symmetry and pop. for TD-DFT,
                                                   nearIR, NL-DFT gradient (VV10), updates on ESD,
                                                   ML-optimized integration grids
   S Lehtola, MJT Oliveira, MAL Marques          : LibXC Library
   Liviu Ungur et al                             : ANISO software


 Your calculation uses the libint2 library for the computation of 2-el integrals
 For citations please refer to: http://libint.valeyev.net

 Your ORCA version has been built with support for libXC version: 5.1.0
 For citations please refer to: https://tddft.org/programs/libxc/

 This ORCA versions uses:
   CBLAS   interface :  Fast vector & matrix operations
   LAPACKE interface :  Fast linear algebra routines
   SCALAPACK package :  Parallel linear algebra routines
   Shared memory     :  Shared parallel matrices
   BLAS/LAPACK       :  OpenBLAS 0.3.15  USE64BITINT DYNAMIC_ARCH NO_AFFINITY Haswell SINGLE_THREADED
        Core in use  :  Haswell
   Copyright (c) 2011-2014, The OpenBLAS Project




***************************************
The coordinates will be read from file: D2.xyz
***************************************


Your calculation utilizes the atom-pairwise dispersion correction
with the zero-damping scheme (D30)
Cite in your paper:
S.Grimme, J.Antony, S.Ehrlich and H.Krieg, J.Chem.Phys., 132, (2010), 154104 
   

XCFun DFT library Copyright 2009-2010 Ulf Ekstrom and contributors.
See http://admol.org/xcfun for more information.
This is free software; see the source code for copying conditions.
There is ABSOLUTELY NO WARRANTY; not even for MERCHANTABILITY or FITNESS FOR A PARTICULAR PURPOSE.
For details see the documentation.
Scientific users of this library should cite U. Ekstrom, L. Visscher, R. Bast, A. J. Thorvaldsen and K. Ruud;
J.Chem.Theor.Comp. 2010, DOI: 10.1021/ct100117s
XCFun Version 0.99 

================================================================================

----- Orbital basis set information -----
Your calculation utilizes the basis: def2-TZVP
   F. Weigend and R. Ahlrichs, Phys. Chem. Chem. Phys. 7, 3297 (2005).

----- AuxJ basis set information -----
Your calculation utilizes the auxiliary basis: def2/J
   F. Weigend, Phys. Chem. Chem. Phys. 8, 1057 (2006).

================================================================================
                                        WARNINGS
                       Please study these warnings very carefully!
================================================================================


INFO   : the flag for use of the SHARK integral package has been found!

================================================================================
                                       INPUT FILE
================================================================================
NAME = D2.com
|  1> !wB97X-D3 RIJCOSX def2-TZVP def2/J TightSCF xyzfile                                                                                         
|  2> 
|  3> *xyzfile 0 1 D2.xyz
|  4> 
|  5> %MaxCore 64000
|  6> 
|  7> %pal nprocs 18                                                                                                                                                  
|  8> end  
|  9> 
| 10> %scf
| 11>   MaxIter 150
| 12> end
| 13> 
| 14> 
| 15>                          ****END OF INPUT****
================================================================================

                       ****************************
                       * Single Point Calculation *
                       ****************************

---------------------------------
CARTESIAN COORDINATES (ANGSTROEM)
---------------------------------
  C     -4.382623   -1.670889    1.216201
  C     -5.763539   -1.915170    0.705012
  C     -3.281728   -2.191272    0.294361
  C     -5.572364   -5.807798   -0.816445
  S     -6.903179   -4.619033   -0.528458
  H     -5.840812   -2.115205   -0.300646
  H     -6.408823   -1.148656    0.936124
  H     -6.174781   -2.790606    1.051433
  O     -8.114853   -5.250932   -0.957007
  F     -6.532715   -3.426838   -1.314848
  H     -4.328618   -2.139223    2.198103
  H     -4.261583   -0.597399    1.357248
  O     -6.865632   -4.294957    0.914118
  C     -3.474641   -3.605898   -0.259608
  H     -2.354548   -2.127602    0.871433
  H     -3.166611   -1.499693   -0.545037
  C     -3.827078   -4.661097    0.786174
  H     -2.560559   -3.889391   -0.788050
  H     -4.255932   -3.570040   -1.019300
  C     -4.457800   -5.941875    0.229195
  H     -5.177347   -5.542575   -1.797714
  H     -6.074202   -6.768894   -0.921272
  H     -4.530506   -4.253640    1.511979
  H     -2.933400   -4.932302    1.356825
  H     -3.681064   -6.562236   -0.229885
  H     -4.843942   -6.512728    1.075805

----------------------------
CARTESIAN COORDINATES (A.U.)
----------------------------
  NO LB      ZA    FRAG     MASS         X           Y           Z
   0 C     6.0000    0    12.011   -8.281957   -3.157523    2.298287
   1 C     6.0000    0    12.011  -10.891510   -3.619147    1.332280
   2 C     6.0000    0    12.011   -6.201567   -4.140905    0.556262
   3 C     6.0000    0    12.011  -10.530242  -10.975147   -1.542857
   4 S    16.0000    0    32.060  -13.045117   -8.728707   -0.998641
   5 H     1.0000    0     1.008  -11.037536   -3.997158   -0.568139
   6 H     1.0000    0     1.008  -12.110920   -2.170644    1.769018
   7 H     1.0000    0     1.008  -11.668644   -5.273482    1.986920
   8 O     8.0000    0    15.999  -15.334849   -9.922823   -1.808482
   9 F     9.0000    0    18.998  -12.345041   -6.475785   -2.484703
  10 H     1.0000    0     1.008   -8.179903   -4.042546    4.153812
  11 H     1.0000    0     1.008   -8.053225   -1.128920    2.564827
  12 O     8.0000    0    15.999  -12.974164   -8.116293    1.727433
  13 C     6.0000    0    12.011   -6.566120   -6.814159   -0.490588
  14 H     1.0000    0     1.008   -4.449451   -4.020585    1.646770
  15 H     1.0000    0     1.008   -5.984027   -2.834008   -1.029971
  16 C     6.0000    0    12.011   -7.232129   -8.808197    1.485654
  17 H     1.0000    0     1.008   -4.838755   -7.349884   -1.489199
  18 H     1.0000    0     1.008   -8.042547   -6.746398   -1.926198
  19 C     6.0000    0    12.011   -8.424022  -11.228516    0.433116
  20 H     1.0000    0     1.008   -9.783769  -10.473949   -3.397187
  21 H     1.0000    0     1.008  -11.478579  -12.791355   -1.740953
  22 H     1.0000    0     1.008   -8.561415   -8.038215    2.857225
  23 H     1.0000    0     1.008   -5.543323   -9.320699    2.564028
  24 H     1.0000    0     1.008   -6.956203  -12.400830   -0.434419
  25 H     1.0000    0     1.008   -9.153725  -12.307272    2.032977

--------------------------------
INTERNAL COORDINATES (ANGSTROEM)
--------------------------------
 C      0   0   0     0.000000000000     0.00000000     0.00000000
 C      1   0   0     1.492620404576     0.00000000     0.00000000
 C      1   2   0     1.527271165696   113.85364860     0.00000000
 C      2   1   3     4.183769830082   103.56450803    41.65278983
 S      4   2   1     1.807530340894    45.29229929   171.88188071
 H      2   1   3     1.028267675998   115.86869106   341.16570027
 H      2   1   3     1.028274655845   112.43314417   215.56454340
 H      2   1   3     1.027382923456   113.22232162    92.88232079
 O      5   4   2     1.432167869849   106.56210639   179.65209807
 F      5   4   2     1.475459680108   105.16679956    58.10432916
 H      1   2   3     1.089212531080   106.51329602   237.05832219
 H      1   2   3     1.089461707082   107.96192227   121.80372268
 O      5   4   2     1.479006672739   106.30903041   301.84106447
 C      3   1   2     1.531424886912   116.24922617   314.06375280
 H      3   1   2     1.093951362295   105.82537570   190.90535411
 H      3   1   2     1.093674824362   108.88497077    77.12130327
 C     14   3   1     1.526865075683   114.81550265   310.61575984
 H     14   3   1     1.093236557125   108.00289044   187.26461446
 H     14   3   1     1.090336855166   108.17526248    73.28183800
 C     17  14   3     1.532458496274   115.06540973   161.03160049
 H      4   2   1     1.090536698315    96.74735693   275.60637407
 H      4   2   1     1.089282104870   146.60189605   139.64586714
 H     17  14   3     1.089781485131   110.28956843    40.17259369
 H     17  14   3     1.094465523081   109.87001624   283.91065690
 H     20  17  14     1.094952852592   109.50797599    76.39555392
 H     20  17  14     1.091662821498   107.50289791   191.41833857

---------------------------
INTERNAL COORDINATES (A.U.)
---------------------------
 C      0   0   0     0.000000000000     0.00000000     0.00000000
 C      1   0   0     2.820643786551     0.00000000     0.00000000
 C      1   2   0     2.886124235400   113.85364860     0.00000000
 C      2   1   3     7.906179186217   103.56450803    41.65278983
 S      4   2   1     3.415737323043    45.29229929   171.88188071
 H      2   1   3     1.943144300000   115.86869106   341.16570027
 H      2   1   3     1.943157490000   112.43314417   215.56454340
 H      2   1   3     1.941472360000   113.22232162    92.88232079
 O      5   4   2     2.706405051817   106.56210639   179.65209807
 F      5   4   2     2.788214717047   105.16679956    58.10432916
 H      1   2   3     2.058313385376   106.51329602   237.05832219
 H      1   2   3     2.058784259779   107.96192227   121.80372268
 O      5   4   2     2.794917561719   106.30903041   301.84106447
 C      3   1   2     2.893973630936   116.24922617   314.06375280
 H      3   1   2     2.067268478568   105.82537570   190.90535411
 H      3   1   2     2.066745897609   108.88497077    77.12130327
 C     14   3   1     2.885356836490   114.81550265   310.61575984
 H     14   3   1     2.065917692557   108.00289044   187.26461446
 H     14   3   1     2.060438049985   108.17526248    73.28183800
 C     17  14   3     2.895926869558   115.06540973   161.03160049
 H      4   2   1     2.060815698807    96.74735693   275.60637407
 H      4   2   1     2.058444860785   146.60189605   139.64586714
 H     17  14   3     2.059388552715   110.28956843    40.17259369
 H     17  14   3     2.068240101641   109.87001624   283.91065690
 H     20  17  14     2.069161020955   109.50797599    76.39555392
 H     20  17  14     2.062943763215   107.50289791   191.41833857

---------------------
BASIS SET INFORMATION
---------------------
There are 5 groups of distinct atoms

 Group   1 Type C   : 11s6p2d1f contracted to 5s3p2d1f pattern {62111/411/11/1}
 Group   2 Type S   : 14s9p3d1f contracted to 5s5p2d1f pattern {73211/51111/21/1}
 Group   3 Type H   : 5s1p contracted to 3s1p pattern {311/1}
 Group   4 Type O   : 11s6p2d1f contracted to 5s3p2d1f pattern {62111/411/11/1}
 Group   5 Type F   : 11s6p2d1f contracted to 5s3p2d1f pattern {62111/411/11/1}

Atom   0C    basis set group =>   1
Atom   1C    basis set group =>   1
Atom   2C    basis set group =>   1
Atom   3C    basis set group =>   1
Atom   4S    basis set group =>   2
Atom   5H    basis set group =>   3
Atom   6H    basis set group =>   3
Atom   7H    basis set group =>   3
Atom   8O    basis set group =>   4
Atom   9F    basis set group =>   5
Atom  10H    basis set group =>   3
Atom  11H    basis set group =>   3
Atom  12O    basis set group =>   4
Atom  13C    basis set group =>   1
Atom  14H    basis set group =>   3
Atom  15H    basis set group =>   3
Atom  16C    basis set group =>   1
Atom  17H    basis set group =>   3
Atom  18H    basis set group =>   3
Atom  19C    basis set group =>   1
Atom  20H    basis set group =>   3
Atom  21H    basis set group =>   3
Atom  22H    basis set group =>   3
Atom  23H    basis set group =>   3
Atom  24H    basis set group =>   3
Atom  25H    basis set group =>   3
---------------------------------
AUXILIARY/J BASIS SET INFORMATION
---------------------------------
There are 5 groups of distinct atoms

 Group   1 Type C   : 12s5p4d2f1g contracted to 6s4p3d1f1g pattern {711111/2111/211/2/1}
 Group   2 Type S   : 14s5p5d2f1g contracted to 8s4p3d1f1g pattern {71111111/2111/311/2/1}
 Group   3 Type H   : 5s2p1d contracted to 3s1p1d pattern {311/2/1}
 Group   4 Type O   : 12s5p4d2f1g contracted to 6s4p3d1f1g pattern {711111/2111/211/2/1}
 Group   5 Type F   : 12s5p4d2f1g contracted to 6s4p3d1f1g pattern {711111/2111/211/2/1}

Atom   0C    basis set group =>   1
Atom   1C    basis set group =>   1
Atom   2C    basis set group =>   1
Atom   3C    basis set group =>   1
Atom   4S    basis set group =>   2
Atom   5H    basis set group =>   3
Atom   6H    basis set group =>   3
Atom   7H    basis set group =>   3
Atom   8O    basis set group =>   4
Atom   9F    basis set group =>   5
Atom  10H    basis set group =>   3
Atom  11H    basis set group =>   3
Atom  12O    basis set group =>   4
Atom  13C    basis set group =>   1
Atom  14H    basis set group =>   3
Atom  15H    basis set group =>   3
Atom  16C    basis set group =>   1
Atom  17H    basis set group =>   3
Atom  18H    basis set group =>   3
Atom  19C    basis set group =>   1
Atom  20H    basis set group =>   3
Atom  21H    basis set group =>   3
Atom  22H    basis set group =>   3
Atom  23H    basis set group =>   3
Atom  24H    basis set group =>   3
Atom  25H    basis set group =>   3


           ************************************************************
           *        Program running with 18 parallel MPI-processes    *
           *              working on a common directory               *
           ************************************************************
------------------------------------------------------------------------------
                           ORCA GTO INTEGRAL CALCULATION
                           -- RI-GTO INTEGRALS CHOSEN --
------------------------------------------------------------------------------
------------------------------------------------------------------------------
                   ___                                                        
                  /   \      - P O W E R E D   B Y -                         
                 /     \                                                     
                 |  |  |   _    _      __       _____    __    __             
                 |  |  |  | |  | |    /  \     |  _  \  |  |  /  |          
                  \  \/   | |  | |   /    \    | | | |  |  | /  /          
                 / \  \   | |__| |  /  /\  \   | |_| |  |  |/  /          
                |  |  |   |  __  | /  /__\  \  |    /   |      \           
                |  |  |   | |  | | |   __   |  |    \   |  |\   \          
                \     /   | |  | | |  |  |  |  | |\  \  |  | \   \       
                 \___/    |_|  |_| |__|  |__|  |_| \__\ |__|  \__/        
                                                                              
                      - O R C A' S   B I G   F R I E N D -                    
                                      &                                       
                       - I N T E G R A L  F E E D E R -                       
                                                                              
 v1 FN, 2020, v2 2021                                                         
------------------------------------------------------------------------------


Reading SHARK input file D2.SHARKINP.tmp ... ok
----------------------
SHARK INTEGRAL PACKAGE
----------------------

Number of atoms                             ...     26
Number of basis functions                   ...    437
Number of shells                            ...    183
Maximum angular momentum                    ...      3
Integral batch strategy                     ... SHARK/LIBINT Hybrid
RI-J (if used) integral strategy            ... SPLIT-RIJ (Revised 2003 algorithm where possible)
Printlevel                                  ...      1
Contraction scheme used                     ... SEGMENTED contraction
Coulomb Range Separation                    ... NOT USED
Exchange Range Separation                   ... Long Range
   Mu parameter                             ...  0.250000
   Scaling (regular/separated)              ...  0.195728  0.804272
Finite Nucleus Model                        ... NOT USED
Auxiliary Coulomb fitting basis             ... AVAILABLE
   # of basis functions in Aux-J            ...    706
   # of shells in Aux-J                     ...    242
   Maximum angular momentum in Aux-J        ...      4
Auxiliary J/K fitting basis                 ... NOT available
Auxiliary Correlation fitting basis         ... NOT available
Auxiliary 'external' fitting basis          ... NOT available
Integral threshold                          ...     2.500000e-11
Primitive cut-off                           ...     2.500000e-12
Primitive pair pre-selection threshold      ...     2.500000e-12

Calculating pre-screening integrals         ... done (  0.2 sec) Dimension = 183
Organizing shell pair data                  ... done (  0.2 sec)
Shell pair information
Total number of shell pairs                 ...     16836
Shell pairs after pre-screening             ...     14722
Total number of primitive shell pairs       ...     50704
Primitive shell pairs kept                  ...     31655
          la=0 lb=0:   4288 shell pairs
          la=1 lb=0:   4407 shell pairs
          la=1 lb=1:   1167 shell pairs
          la=2 lb=0:   1912 shell pairs
          la=2 lb=1:    998 shell pairs
          la=2 lb=2:    231 shell pairs
          la=3 lb=0:    934 shell pairs
          la=3 lb=1:    499 shell pairs
          la=3 lb=2:    224 shell pairs
          la=3 lb=3:     62 shell pairs

Calculating one electron integrals          ... done (  0.0 sec)
Calculating RI/J V-Matrix + Cholesky decomp.... done (  0.1 sec)
Calculating Nuclear repulsion               ... done (  0.0 sec) ENN=    873.243922685803 Eh

SHARK setup successfully completed in   0.7 seconds

Maximum memory used throughout the entire GTOINT-calculation: 23.9 MB


           ************************************************************
           *        Program running with 18 parallel MPI-processes    *
           *              working on a common directory               *
           ************************************************************
-------------------------------------------------------------------------------
                                 ORCA SCF
-------------------------------------------------------------------------------

------------
SCF SETTINGS
------------
Hamiltonian:
 Density Functional     Method          .... DFT(GTOs)
 Exchange Functional    Exchange        .... WB97X-D3
 Correlation Functional Correlation     .... WB97X-D3
 Gradients option       PostSCFGGA      .... off
 Hybrid DFT is turned on
   Fraction HF Exchange ScalHFX         ....  0.195728
   Scaling of DF-GGA-X  ScalDFX         ....  0.000000
   Scaling of DF-GGA-C  ScalDFC         ....  1.000000
   Scaling of DF-LDA-C  ScalLDAC        ....  1.000000
   Perturbative correction              ....  0.000000
   Density functional embedding theory  .... OFF
 Long-range corrected/Screened/Range-Separated Hybrid DFT is turned on
   Amount of maximum screened exact exchange              ....  0.804272
   Range separation parameter mu (erf(mu*r12)/r12)        ....  0.250000
 RI-approximation to the Coulomb term is turned on
   Number of AuxJ basis functions       .... 706
   RIJ-COSX (HFX calculated with COS-X)).... on


General Settings:
 Integral files         IntName         .... D2
 Hartree-Fock type      HFTyp           .... RHF
 Total Charge           Charge          ....    0
 Multiplicity           Mult            ....    1
 Number of Electrons    NEL             ....   98
 Basis Dimension        Dim             ....  437
 Nuclear Repulsion      ENuc            ....    873.2439226858 Eh

Convergence Acceleration:
 DIIS                   CNVDIIS         .... on
   Start iteration      DIISMaxIt       ....    12
   Startup error        DIISStart       ....  0.200000
   # of expansion vecs  DIISMaxEq       ....     5
   Bias factor          DIISBfac        ....   1.050
   Max. coefficient     DIISMaxC        ....  10.000
 Trust-Rad. Augm. Hess. CNVTRAH         .... auto
   Auto Start mean grad. ratio tolernc. ....  1.125000
   Auto Start start iteration           ....    20
   Auto Start num. interpolation iter.  ....    10
   Max. Number of Micro iterations      ....    16
   Max. Number of Macro iterations      .... Maxiter - #DIIS iter
   Number of Davidson start vectors     ....     2
   Converg. threshold I  (grad. norm)   ....   1.000e-05
   Converg. threshold II (energy diff.) ....   1.000e-08
   Grad. Scal. Fac. for Micro threshold ....   0.100
   Minimum threshold for Micro iter.    ....   0.010
   NR start threshold (gradient norm)   ....   0.001
   Initial trust radius                 ....   0.400
   Minimum AH scaling param. (alpha)    ....   1.000
   Maximum AH scaling param. (alpha)    .... 1000.000
   Orbital update algorithm             .... Taylor
   White noise on init. David. guess    .... on
   Maximum white noise                  ....   0.010
   Quad. conv. algorithm                .... NR
 SOSCF                  CNVSOSCF        .... on
   Start iteration      SOSCFMaxIt      ....   150
   Startup grad/error   SOSCFStart      ....  0.003300
 Level Shifting         CNVShift        .... on
   Level shift para.    LevelShift      ....    0.2500
   Turn off err/grad.   ShiftErr        ....    0.0010
 Zerner damping         CNVZerner       .... off
 Static damping         CNVDamp         .... on
   Fraction old density DampFac         ....    0.7000
   Max. Damping (<1)    DampMax         ....    0.9800
   Min. Damping (>=0)   DampMin         ....    0.0000
   Turn off err/grad.   DampErr         ....    0.1000
 Fernandez-Rico         CNVRico         .... off

SCF Procedure:
 Maximum # iterations   MaxIter         ....   150
 SCF integral mode      SCFMode         .... Direct
   Integral package                     .... SHARK and LIBINT hybrid scheme
 Reset frequency        DirectResetFreq ....    20
 Integral Threshold     Thresh          ....  2.500e-11 Eh
 Primitive CutOff       TCut            ....  2.500e-12 Eh

Convergence Tolerance:
 Convergence Check Mode ConvCheckMode   .... Total+1el-Energy
 Convergence forced     ConvForced      .... 0
 Energy Change          TolE            ....  1.000e-08 Eh
 1-El. energy change                    ....  1.000e-05 Eh
 Orbital Gradient       TolG            ....  1.000e-05
 Orbital Rotation angle TolX            ....  1.000e-05
 DIIS Error             TolErr          ....  5.000e-07


Diagonalization of the overlap matrix:
Smallest eigenvalue                        ... 7.153e-05
Time for diagonalization                   ...    0.049 sec
Threshold for overlap eigenvalues          ... 1.000e-08
Number of eigenvalues below threshold      ... 0
Time for construction of square roots      ...    0.078 sec
Total time needed                          ...    0.129 sec

Time for model grid setup =    0.177 sec

------------------------------
INITIAL GUESS: MODEL POTENTIAL
------------------------------
Loading Hartree-Fock densities                     ... done
Calculating cut-offs                               ... done
Initializing the effective Hamiltonian             ... done
Setting up the integral package (SHARK)            ... done
Starting the Coulomb interaction                   ... done (   0.2 sec)
Reading the grid                                   ... done
Mapping shells                                     ... done
Starting the XC term evaluation                    ... done (   0.1 sec)
  promolecular density results
     # of electrons  =     97.991438248
     EX              =    -91.675007793
     EC              =     -3.409363209
     EX+EC           =    -95.084371001
Transforming the Hamiltonian                       ... done (   0.0 sec)
Diagonalizing the Hamiltonian                      ... done (   0.1 sec)
Back transforming the eigenvectors                 ... done (   0.0 sec)
Now organizing SCF variables                       ... done
                      ------------------
                      INITIAL GUESS DONE (   0.6 sec)
                      ------------------
-------------------
DFT GRID GENERATION
-------------------

General Integration Accuracy     IntAcc      ... 4.388
Radial Grid Type                 RadialGrid  ... OptM3 with GC (2021)
Angular Grid (max. ang.)         AngularGrid ... 4 (Lebedev-302)
Angular grid pruning method      GridPruning ... 4 (adaptive)
Weight generation scheme         WeightScheme... Becke
Basis function cutoff            BFCut       ... 1.0000e-11
Integration weight cutoff        WCut        ... 1.0000e-14
Angular grids for H and He will be reduced by one unit
Partially contracted basis set               ... off
Rotationally invariant grid construction     ... off

Total number of grid points                  ...   114577
Total number of batches                      ...     1804
Average number of points per batch           ...       63
Average number of grid points per atom       ...     4407
Time for grid setup =    0.865 sec

--------------------
COSX GRID GENERATION
--------------------

GRIDX 1
-------
General Integration Accuracy     IntAcc      ... 3.816
Radial Grid Type                 RadialGrid  ... OptM3 with GC (2021)
Angular Grid (max. ang.)         AngularGrid ... 1 (Lebedev-50)
Angular grid pruning method      GridPruning ... 4 (adaptive)
Weight generation scheme         WeightScheme... Becke
Basis function cutoff            BFCut       ... 1.0000e-11
Integration weight cutoff        WCut        ... 1.0000e-14
Angular grids for H and He will be reduced by one unit
Partially contracted basis set               ... on
Rotationally invariant grid construction     ... off

Total number of grid points                  ...    14548
Total number of batches                      ...      243
Average number of points per batch           ...       59
Average number of grid points per atom       ...      560
UseSFitting                                  ... on

GRIDX 2
-------
General Integration Accuracy     IntAcc      ... 4.020
Radial Grid Type                 RadialGrid  ... OptM3 with GC (2021)
Angular Grid (max. ang.)         AngularGrid ... 2 (Lebedev-110)
Angular grid pruning method      GridPruning ... 4 (adaptive)
Weight generation scheme         WeightScheme... Becke
Basis function cutoff            BFCut       ... 1.0000e-11
Integration weight cutoff        WCut        ... 1.0000e-14
Angular grids for H and He will be reduced by one unit
Partially contracted basis set               ... on
Rotationally invariant grid construction     ... off

Total number of grid points                  ...    30694
Total number of batches                      ...      494
Average number of points per batch           ...       62
Average number of grid points per atom       ...     1181
UseSFitting                                  ... on

GRIDX 3
-------
General Integration Accuracy     IntAcc      ... 4.338
Radial Grid Type                 RadialGrid  ... OptM3 with GC (2021)
Angular Grid (max. ang.)         AngularGrid ... 3 (Lebedev-194)
Angular grid pruning method      GridPruning ... 4 (adaptive)
Weight generation scheme         WeightScheme... Becke
Basis function cutoff            BFCut       ... 1.0000e-11
Integration weight cutoff        WCut        ... 1.0000e-14
Angular grids for H and He will be reduced by one unit
Partially contracted basis set               ... on
Rotationally invariant grid construction     ... off

Total number of grid points                  ...    67443
Total number of batches                      ...     1065
Average number of points per batch           ...       63
Average number of grid points per atom       ...     2594
UseSFitting                                  ... on

Time for X-Grid setup             =    0.859 sec

--------------
SCF ITERATIONS
--------------
ITER       Energy         Delta-E        Max-DP      RMS-DP      [F,P]     Damp
               ***  Starting incremental Fock matrix formation  ***
  0   -923.7528956966   0.000000000000 0.12579965  0.00090270  0.2813331 0.7000
  1   -923.9774403958  -0.224544699126 0.06075161  0.00063523  0.1256770 0.7000
                               ***Turning on DIIS***
  2   -924.0758379454  -0.098397549652 0.04927222  0.00115937  0.0634371 0.0000
  3   -924.2394048959  -0.163566950450 0.06350991  0.00043505  0.0613416 0.0000
  4   -924.2658665277  -0.026461631872 0.01009787  0.00012707  0.0109381 0.0000
  5   -924.2668418903  -0.000975362592 0.00360099  0.00004610  0.0063382 0.0000
                      *** Initiating the SOSCF procedure ***
                           *** Shutting down DIIS ***
                      *** Re-Reading the Fockian *** 
                      *** Removing any level shift *** 
ITER      Energy       Delta-E        Grad      Rot      Max-DP    RMS-DP
  6   -924.26696531  -0.0001234240  0.000236  0.000236  0.001688  0.000030
               *** Restarting incremental Fock matrix formation ***
  7   -924.26698792  -0.0000226047  0.000103  0.000153  0.000478  0.000010
  8   -924.26698857  -0.0000006491  0.000121  0.000060  0.000169  0.000004
  9   -924.26698909  -0.0000005219  0.000010  0.000021  0.000081  0.000001
 10   -924.26698911  -0.0000000212  0.000011  0.000009  0.000042  0.000000
 11   -924.26698911  -0.0000000007  0.000003  0.000003  0.000021  0.000000
 12   -924.26698911  -0.0000000007  0.000003  0.000001  0.000004  0.000000
                  ***Gradient check signals convergence***
              ***Rediagonalizing the Fockian in SOSCF/NRSCF***

               *****************************************************
               *                     SUCCESS                       *
               *           SCF CONVERGED AFTER  13 CYCLES          *
               *****************************************************

Old exchange energy                            =    -28.872299864 Eh
New exchange energy                            =    -28.872279068 Eh
Exchange energy change after final integration =      0.000020796 Eh
Total energy after final integration           =   -924.266968318 Eh
Final COS-X integration done in                =     7.843 sec

----------------
TOTAL SCF ENERGY
----------------

Total Energy       :         -924.26696832 Eh          -25150.58284 eV

Components:
Nuclear Repulsion  :          873.24392269 Eh           23762.17518 eV
Electronic Energy  :        -1797.51089100 Eh          -48912.75802 eV
One Electron Energy:        -3001.78959292 Eh          -81682.84750 eV
Two Electron Energy:         1204.27870191 Eh           32770.08948 eV
Max COSX asymmetry :            0.00000211 Eh               0.00006 eV

Virial components:
Potential Energy   :        -1846.13171615 Eh          -50235.79793 eV
Kinetic Energy     :          921.86474783 Eh           25085.21510 eV
Virial Ratio       :            2.00260583


DFT components:
N(Alpha)           :       48.999995528564 electrons
N(Beta)            :       48.999995528564 electrons
N(Total)           :       97.999991057128 electrons
E(XC)              :      -68.391452218160 Eh       
DFET-embed. en.    :        0.000000000000 Eh       

---------------
SCF CONVERGENCE
---------------

  Last Energy change         ...   -1.6411e-09  Tolerance :   1.0000e-08
  Last MAX-Density change    ...    3.5527e-15  Tolerance :   1.0000e-07
  Last RMS-Density change    ...    1.7439e-17  Tolerance :   5.0000e-09
  Last Orbital Gradient      ...    2.2050e-07  Tolerance :   1.0000e-05
  Last Orbital Rotation      ...    4.2490e-07  Tolerance :   1.0000e-05

             **** THE GBW FILE WAS UPDATED (D2.gbw) ****
             **** DENSITY D2.scfp WAS UPDATED ****
             **** ENERGY FILE WAS UPDATED (D2.en.tmp) ****
             **** THE GBW FILE WAS UPDATED (D2.gbw) ****
             **** DENSITY D2.scfp WAS UPDATED ****
----------------
ORBITAL ENERGIES
----------------

  NO   OCC          E(Eh)            E(eV) 
   0   2.0000     -89.200481     -2427.2685 
   1   2.0000     -24.895749      -677.4478 
   2   2.0000     -19.252029      -523.8743 
   3   2.0000     -19.238065      -523.4944 
   4   2.0000     -10.339963      -281.3647 
   5   2.0000     -10.303523      -280.3731 
   6   2.0000     -10.277889      -279.6756 
   7   2.0000     -10.276398      -279.6350 
   8   2.0000     -10.265502      -279.3385 
   9   2.0000     -10.252171      -278.9758 
  10   2.0000     -10.200131      -277.5597 
  11   2.0000      -8.263939      -224.8732 
  12   2.0000      -6.221336      -169.2911 
  13   2.0000      -6.215121      -169.1220 
  14   2.0000      -6.214327      -169.1004 
  15   2.0000      -1.482537       -40.3419 
  16   2.0000      -1.232812       -33.5465 
  17   2.0000      -1.136584       -30.9280 
  18   2.0000      -0.956411       -26.0253 
  19   2.0000      -0.921603       -25.0781 
  20   2.0000      -0.871879       -23.7250 
  21   2.0000      -0.843875       -22.9630 
  22   2.0000      -0.805867       -21.9288 
  23   2.0000      -0.769072       -20.9275 
  24   2.0000      -0.727034       -19.7836 
  25   2.0000      -0.690001       -18.7759 
  26   2.0000      -0.678046       -18.4506 
  27   2.0000      -0.662983       -18.0407 
  28   2.0000      -0.660971       -17.9859 
  29   2.0000      -0.601659       -16.3720 
  30   2.0000      -0.592756       -16.1297 
  31   2.0000      -0.572700       -15.5840 
  32   2.0000      -0.564360       -15.3570 
  33   2.0000      -0.557496       -15.1702 
  34   2.0000      -0.537353       -14.6221 
  35   2.0000      -0.523056       -14.2331 
  36   2.0000      -0.503226       -13.6935 
  37   2.0000      -0.494146       -13.4464 
  38   2.0000      -0.488516       -13.2932 
  39   2.0000      -0.484021       -13.1709 
  40   2.0000      -0.454656       -12.3718 
  41   2.0000      -0.449654       -12.2357 
  42   2.0000      -0.447904       -12.1881 
  43   2.0000      -0.430952       -11.7268 
  44   2.0000      -0.420837       -11.4515 
  45   2.0000      -0.414219       -11.2715 
  46   2.0000      -0.403734       -10.9862 
  47   2.0000      -0.402072       -10.9409 
  48   2.0000      -0.368618       -10.0306 
  49   0.0000       0.096680         2.6308 
  50   0.0000       0.103478         2.8158 
  51   0.0000       0.120049         3.2667 
  52   0.0000       0.125653         3.4192 
  53   0.0000       0.136911         3.7255 
  54   0.0000       0.150159         4.0860 
  55   0.0000       0.152774         4.1572 
  56   0.0000       0.165657         4.5078 
  57   0.0000       0.172751         4.7008 
  58   0.0000       0.177049         4.8177 
  59   0.0000       0.186784         5.0827 
  60   0.0000       0.189570         5.1584 
  61   0.0000       0.202101         5.4994 
  62   0.0000       0.205809         5.6004 
  63   0.0000       0.215229         5.8567 
  64   0.0000       0.234043         6.3686 
  65   0.0000       0.246769         6.7149 
  66   0.0000       0.248561         6.7637 
  67   0.0000       0.255258         6.9459 
  68   0.0000       0.261094         7.1047 
  69   0.0000       0.276163         7.5148 
  70   0.0000       0.277965         7.5638 
  71   0.0000       0.289127         7.8675 
  72   0.0000       0.298599         8.1253 
  73   0.0000       0.303019         8.2456 
  74   0.0000       0.313078         8.5193 
  75   0.0000       0.327978         8.9247 
  76   0.0000       0.333383         9.0718 
  77   0.0000       0.344277         9.3682 
  78   0.0000       0.346138         9.4189 
  79   0.0000       0.351089         9.5536 
  80   0.0000       0.365368         9.9422 
  81   0.0000       0.367076         9.9886 
  82   0.0000       0.384822        10.4716 
  83   0.0000       0.388942        10.5836 
  84   0.0000       0.403572        10.9818 
  85   0.0000       0.427553        11.6343 
  86   0.0000       0.435051        11.8383 
  87   0.0000       0.446749        12.1566 
  88   0.0000       0.463724        12.6186 
  89   0.0000       0.468977        12.7615 
  90   0.0000       0.474646        12.9158 
  91   0.0000       0.483321        13.1518 
  92   0.0000       0.488741        13.2993 
  93   0.0000       0.496892        13.5211 
  94   0.0000       0.497799        13.5458 
  95   0.0000       0.505537        13.7563 
  96   0.0000       0.505886        13.7659 
  97   0.0000       0.507654        13.8140 
  98   0.0000       0.514735        14.0067 
  99   0.0000       0.526357        14.3229 
 100   0.0000       0.533046        14.5049 
 101   0.0000       0.536861        14.6087 
 102   0.0000       0.541897        14.7458 
 103   0.0000       0.551786        15.0149 
 104   0.0000       0.554855        15.0984 
 105   0.0000       0.557310        15.1652 
 106   0.0000       0.570580        15.5263 
 107   0.0000       0.574574        15.6350 
 108   0.0000       0.578235        15.7346 
 109   0.0000       0.586544        15.9607 
 110   0.0000       0.596104        16.2208 
 111   0.0000       0.604136        16.4394 
 112   0.0000       0.611823        16.6486 
 113   0.0000       0.624865        17.0034 
 114   0.0000       0.632846        17.2206 
 115   0.0000       0.636338        17.3156 
 116   0.0000       0.660660        17.9775 
 117   0.0000       0.665207        18.1012 
 118   0.0000       0.674718        18.3600 
 119   0.0000       0.697484        18.9795 
 120   0.0000       0.700134        19.0516 
 121   0.0000       0.714105        19.4318 
 122   0.0000       0.734775        19.9942 
 123   0.0000       0.740604        20.1529 
 124   0.0000       0.754511        20.5313 
 125   0.0000       0.768532        20.9128 
 126   0.0000       0.789078        21.4719 
 127   0.0000       0.804925        21.9031 
 128   0.0000       0.826313        22.4851 
 129   0.0000       0.828223        22.5371 
 130   0.0000       0.845585        23.0095 
 131   0.0000       0.861721        23.4486 
 132   0.0000       0.869088        23.6491 
 133   0.0000       0.898522        24.4500 
 134   0.0000       0.909916        24.7601 
 135   0.0000       0.919675        25.0256 
 136   0.0000       0.955659        26.0048 
 137   0.0000       0.960300        26.1311 
 138   0.0000       0.967941        26.3390 
 139   0.0000       0.977021        26.5861 
 140   0.0000       0.985643        26.8207 
 141   0.0000       0.996958        27.1286 
 142   0.0000       1.009344        27.4657 
 143   0.0000       1.016669        27.6650 
 144   0.0000       1.027044        27.9473 
 145   0.0000       1.042511        28.3682 
 146   0.0000       1.050273        28.5794 
 147   0.0000       1.072738        29.1907 
 148   0.0000       1.080884        29.4123 
 149   0.0000       1.092348        29.7243 
 150   0.0000       1.121660        30.5219 
 151   0.0000       1.134352        30.8673 
 152   0.0000       1.140314        31.0295 
 153   0.0000       1.155132        31.4327 
 154   0.0000       1.167612        31.7723 
 155   0.0000       1.182857        32.1872 
 156   0.0000       1.201515        32.6949 
 157   0.0000       1.226414        33.3724 
 158   0.0000       1.227196        33.3937 
 159   0.0000       1.238167        33.6922 
 160   0.0000       1.240506        33.7559 
 161   0.0000       1.257252        34.2116 
 162   0.0000       1.282536        34.8996 
 163   0.0000       1.291557        35.1451 
 164   0.0000       1.295982        35.2655 
 165   0.0000       1.310587        35.6629 
 166   0.0000       1.335499        36.3408 
 167   0.0000       1.356823        36.9210 
 168   0.0000       1.382790        37.6276 
 169   0.0000       1.401283        38.1308 
 170   0.0000       1.410966        38.3943 
 171   0.0000       1.426454        38.8158 
 172   0.0000       1.454618        39.5822 
 173   0.0000       1.468418        39.9577 
 174   0.0000       1.487668        40.4815 
 175   0.0000       1.503681        40.9172 
 176   0.0000       1.535895        41.7938 
 177   0.0000       1.566232        42.6193 
 178   0.0000       1.571974        42.7756 
 179   0.0000       1.597510        43.4704 
 180   0.0000       1.612135        43.8684 
 181   0.0000       1.623192        44.1693 
 182   0.0000       1.629819        44.3496 
 183   0.0000       1.640636        44.6440 
 184   0.0000       1.656036        45.0630 
 185   0.0000       1.663626        45.2696 
 186   0.0000       1.669468        45.4285 
 187   0.0000       1.673543        45.5394 
 188   0.0000       1.691740        46.0346 
 189   0.0000       1.711860        46.5821 
 190   0.0000       1.718753        46.7696 
 191   0.0000       1.723827        46.9077 
 192   0.0000       1.731882        47.1269 
 193   0.0000       1.743962        47.4556 
 194   0.0000       1.745330        47.4928 
 195   0.0000       1.758597        47.8538 
 196   0.0000       1.764166        48.0054 
 197   0.0000       1.772690        48.2374 
 198   0.0000       1.787438        48.6387 
 199   0.0000       1.794100        48.8199 
 200   0.0000       1.800921        49.0056 
 201   0.0000       1.819898        49.5220 
 202   0.0000       1.846924        50.2574 
 203   0.0000       1.878022        51.1036 
 204   0.0000       1.880723        51.1771 
 205   0.0000       1.894880        51.5623 
 206   0.0000       1.919104        52.2215 
 207   0.0000       1.922234        52.3066 
 208   0.0000       1.933906        52.6243 
 209   0.0000       1.943230        52.8780 
 210   0.0000       1.955312        53.2068 
 211   0.0000       1.976427        53.7813 
 212   0.0000       1.993351        54.2418 
 213   0.0000       1.996859        54.3373 
 214   0.0000       2.013059        54.7781 
 215   0.0000       2.016148        54.8622 
 216   0.0000       2.046603        55.6909 
 217   0.0000       2.050482        55.7964 
 218   0.0000       2.064821        56.1866 
 219   0.0000       2.082463        56.6667 
 220   0.0000       2.098277        57.0970 
 221   0.0000       2.113533        57.5122 
 222   0.0000       2.131949        58.0133 
 223   0.0000       2.134098        58.0718 
 224   0.0000       2.173296        59.1384 
 225   0.0000       2.190584        59.6088 
 226   0.0000       2.194559        59.7170 
 227   0.0000       2.218368        60.3649 
 228   0.0000       2.223897        60.5153 
 229   0.0000       2.257151        61.4202 
 230   0.0000       2.273290        61.8594 
 231   0.0000       2.283542        62.1383 
 232   0.0000       2.285575        62.1937 
 233   0.0000       2.309361        62.8409 
 234   0.0000       2.329672        63.3936 
 235   0.0000       2.337552        63.6080 
 236   0.0000       2.384763        64.8927 
 237   0.0000       2.392090        65.0921 
 238   0.0000       2.405020        65.4439 
 239   0.0000       2.431501        66.1645 
 240   0.0000       2.456465        66.8438 
 241   0.0000       2.475438        67.3601 
 242   0.0000       2.480068        67.4861 
 243   0.0000       2.486767        67.6684 
 244   0.0000       2.508592        68.2623 
 245   0.0000       2.531467        68.8847 
 246   0.0000       2.540662        69.1349 
 247   0.0000       2.546220        69.2862 
 248   0.0000       2.562152        69.7197 
 249   0.0000       2.580644        70.2229 
 250   0.0000       2.585418        70.3528 
 251   0.0000       2.600054        70.7511 
 252   0.0000       2.611960        71.0750 
 253   0.0000       2.622064        71.3500 
 254   0.0000       2.636569        71.7447 
 255   0.0000       2.641547        71.8802 
 256   0.0000       2.649438        72.0949 
 257   0.0000       2.660383        72.3927 
 258   0.0000       2.681426        72.9653 
 259   0.0000       2.698083        73.4186 
 260   0.0000       2.711343        73.7794 
 261   0.0000       2.717672        73.9516 
 262   0.0000       2.729333        74.2689 
 263   0.0000       2.733017        74.3692 
 264   0.0000       2.742179        74.6185 
 265   0.0000       2.749828        74.8266 
 266   0.0000       2.766089        75.2691 
 267   0.0000       2.770251        75.3824 
 268   0.0000       2.780686        75.6663 
 269   0.0000       2.790386        75.9303 
 270   0.0000       2.809234        76.4432 
 271   0.0000       2.810988        76.4909 
 272   0.0000       2.816476        76.6402 
 273   0.0000       2.823937        76.8432 
 274   0.0000       2.836493        77.1849 
 275   0.0000       2.855068        77.6904 
 276   0.0000       2.860730        77.8444 
 277   0.0000       2.873758        78.1989 
 278   0.0000       2.878585        78.3303 
 279   0.0000       2.888917        78.6114 
 280   0.0000       2.905878        79.0729 
 281   0.0000       2.926577        79.6362 
 282   0.0000       2.932958        79.8098 
 283   0.0000       2.936681        79.9112 
 284   0.0000       2.966932        80.7343 
 285   0.0000       3.006819        81.8197 
 286   0.0000       3.009968        81.9054 
 287   0.0000       3.032396        82.5157 
 288   0.0000       3.037061        82.6426 
 289   0.0000       3.044510        82.8453 
 290   0.0000       3.072995        83.6204 
 291   0.0000       3.090696        84.1021 
 292   0.0000       3.109757        84.6208 
 293   0.0000       3.120918        84.9245 
 294   0.0000       3.151065        85.7448 
 295   0.0000       3.176971        86.4498 
 296   0.0000       3.180263        86.5393 
 297   0.0000       3.204136        87.1890 
 298   0.0000       3.218702        87.5853 
 299   0.0000       3.236270        88.0634 
 300   0.0000       3.245710        88.3203 
 301   0.0000       3.252509        88.5053 
 302   0.0000       3.274862        89.1135 
 303   0.0000       3.287196        89.4492 
 304   0.0000       3.301175        89.8295 
 305   0.0000       3.311702        90.1160 
 306   0.0000       3.321235        90.3754 
 307   0.0000       3.331498        90.6547 
 308   0.0000       3.357305        91.3569 
 309   0.0000       3.360100        91.4330 
 310   0.0000       3.375279        91.8460 
 311   0.0000       3.380090        91.9769 
 312   0.0000       3.401456        92.5583 
 313   0.0000       3.403750        92.6207 
 314   0.0000       3.410266        92.7981 
 315   0.0000       3.419213        93.0415 
 316   0.0000       3.426727        93.2460 
 317   0.0000       3.440791        93.6287 
 318   0.0000       3.454659        94.0060 
 319   0.0000       3.467062        94.3436 
 320   0.0000       3.490523        94.9820 
 321   0.0000       3.509025        95.4854 
 322   0.0000       3.516286        95.6830 
 323   0.0000       3.543030        96.4107 
 324   0.0000       3.548026        96.5467 
 325   0.0000       3.565269        97.0159 
 326   0.0000       3.577391        97.3458 
 327   0.0000       3.590304        97.6971 
 328   0.0000       3.601030        97.9890 
 329   0.0000       3.614450        98.3542 
 330   0.0000       3.625691        98.6601 
 331   0.0000       3.641224        99.0828 
 332   0.0000       3.655917        99.4826 
 333   0.0000       3.673616        99.9642 
 334   0.0000       3.685774       100.2950 
 335   0.0000       3.695166       100.5506 
 336   0.0000       3.710859       100.9776 
 337   0.0000       3.736193       101.6670 
 338   0.0000       3.770136       102.5906 
 339   0.0000       3.801756       103.4511 
 340   0.0000       3.846643       104.6725 
 341   0.0000       3.859278       105.0163 
 342   0.0000       3.874685       105.4355 
 343   0.0000       3.909778       106.3905 
 344   0.0000       3.926146       106.8359 
 345   0.0000       3.946976       107.4027 
 346   0.0000       3.977661       108.2377 
 347   0.0000       3.995420       108.7209 
 348   0.0000       4.023205       109.4770 
 349   0.0000       4.046115       110.1004 
 350   0.0000       4.080798       111.0442 
 351   0.0000       4.084536       111.1459 
 352   0.0000       4.100514       111.5807 
 353   0.0000       4.106562       111.7452 
 354   0.0000       4.120650       112.1286 
 355   0.0000       4.141978       112.7090 
 356   0.0000       4.145991       112.8182 
 357   0.0000       4.179896       113.7407 
 358   0.0000       4.196586       114.1949 
 359   0.0000       4.220048       114.8334 
 360   0.0000       4.247131       115.5703 
 361   0.0000       4.278421       116.4218 
 362   0.0000       4.301785       117.0575 
 363   0.0000       4.309779       117.2751 
 364   0.0000       4.331462       117.8651 
 365   0.0000       4.428969       120.5184 
 366   0.0000       4.476583       121.8140 
 367   0.0000       4.504874       122.5839 
 368   0.0000       4.521234       123.0290 
 369   0.0000       4.552755       123.8868 
 370   0.0000       4.588792       124.8674 
 371   0.0000       4.637684       126.1978 
 372   0.0000       4.660046       126.8063 
 373   0.0000       4.676000       127.2404 
 374   0.0000       4.704802       128.0242 
 375   0.0000       4.748369       129.2097 
 376   0.0000       4.804177       130.7283 
 377   0.0000       4.819653       131.1494 
 378   0.0000       4.860374       132.2575 
 379   0.0000       4.894059       133.1741 
 380   0.0000       4.911511       133.6490 
 381   0.0000       4.946682       134.6061 
 382   0.0000       4.989107       135.7605 
 383   0.0000       5.009350       136.3113 
 384   0.0000       5.059757       137.6830 
 385   0.0000       5.094042       138.6159 
 386   0.0000       5.161515       140.4520 
 387   0.0000       5.221188       142.0757 
 388   0.0000       5.240591       142.6037 
 389   0.0000       5.248029       142.8061 
 390   0.0000       5.267319       143.3310 
 391   0.0000       5.278721       143.6413 
 392   0.0000       5.310382       144.5028 
 393   0.0000       5.338969       145.2807 
 394   0.0000       5.440438       148.0418 
 395   0.0000       5.472555       148.9158 
 396   0.0000       5.565980       151.4580 
 397   0.0000       5.593463       152.2059 
 398   0.0000       5.658816       153.9842 
 399   0.0000       5.714457       155.4983 
 400   0.0000       5.779700       157.2736 
 401   0.0000       6.405596       174.3051 
 402   0.0000       6.410358       174.4347 
 403   0.0000       6.485197       176.4712 
 404   0.0000       6.654983       181.0913 
 405   0.0000       6.712043       182.6440 
 406   0.0000       6.777403       184.4225 
 407   0.0000       6.805352       185.1831 
 408   0.0000       6.867406       186.8716 
 409   0.0000       6.891316       187.5222 
 410   0.0000       6.903688       187.8589 
 411   0.0000       6.920964       188.3290 
 412   0.0000       6.947978       189.0641 
 413   0.0000       6.973136       189.7487 
 414   0.0000       7.006166       190.6475 
 415   0.0000       7.051693       191.8863 
 416   0.0000       7.065177       192.2532 
 417   0.0000       7.136797       194.2021 
 418   0.0000       8.374947       227.8939 
 419   0.0000       8.447637       229.8719 
 420   0.0000       8.702158       236.7978 
 421   0.0000       8.752363       238.1639 
 422   0.0000       8.836737       240.4598 
 423   0.0000       9.461391       257.4575 
 424   0.0000       9.672515       263.2025 
 425   0.0000       9.782847       266.2048 
 426   0.0000      22.191874       603.8716 
 427   0.0000      22.557986       613.8340 
 428   0.0000      22.596845       614.8914 
 429   0.0000      22.625177       615.6624 
 430   0.0000      22.635116       615.9328 
 431   0.0000      22.657503       616.5420 
 432   0.0000      22.685506       617.3040 
 433   0.0000      22.918816       623.6527 
 434   0.0000      43.813386      1192.2228 
 435   0.0000      43.860549      1193.5062 
 436   0.0000      57.183674      1556.0469 

                    ********************************
                    * MULLIKEN POPULATION ANALYSIS *
                    ********************************

-----------------------
MULLIKEN ATOMIC CHARGES
-----------------------
   0 C :   -0.168980
   1 C :   -0.437193
   2 C :   -0.207509
   3 C :   -0.353337
   4 S :    0.931723
   5 H :    0.090888
   6 H :    0.113814
   7 H :    0.173288
   8 O :   -0.417302
   9 F :   -0.119641
  10 H :    0.102164
  11 H :    0.096188
  12 O :   -0.452741
  13 C :   -0.187515
  14 H :    0.096593
  15 H :    0.105730
  16 C :   -0.283891
  17 H :    0.108494
  18 H :    0.086413
  19 C :   -0.152234
  20 H :    0.167125
  21 H :    0.186399
  22 H :    0.157200
  23 H :    0.112785
  24 H :    0.118529
  25 H :    0.133009
Sum of atomic charges:   -0.0000000

--------------------------------
MULLIKEN REDUCED ORBITAL CHARGES
--------------------------------
  0 C s       :     3.183753  s :     3.183753
      pz      :     0.957122  p :     2.884828
      px      :     0.912906
      py      :     1.014800
      dz2     :     0.024746  d :     0.094821
      dxz     :     0.017056
      dyz     :     0.007979
      dx2y2   :     0.021968
      dxy     :     0.023072
      f0      :     0.000337  f :     0.005579
      f+1     :     0.001339
      f-1     :     0.000510
      f+2     :     0.000991
      f-2     :     0.000595
      f+3     :     0.000606
      f-3     :     0.001202
  1 C s       :     3.245777  s :     3.245777
      pz      :     1.023208  p :     3.140450
      px      :     0.975755
      py      :     1.141486
      dz2     :     0.011153  d :     0.048241
      dxz     :     0.008924
      dyz     :     0.001468
      dx2y2   :     0.008012
      dxy     :     0.018684
      f0      :     0.000476  f :     0.002725
      f+1     :     0.000535
      f-1     :     0.000006
      f+2     :     0.000190
      f-2     :     0.000158
      f+3     :     0.000835
      f-3     :     0.000525
  2 C s       :     3.211753  s :     3.211753
      pz      :     0.978454  p :     2.893897
      px      :     0.988833
      py      :     0.926610
      dz2     :     0.015103  d :     0.096593
      dxz     :     0.017962
      dyz     :     0.024131
      dx2y2   :     0.022090
      dxy     :     0.017306
      f0      :     0.000291  f :     0.005265
      f+1     :     0.000571
      f-1     :     0.000833
      f+2     :     0.001469
      f-2     :     0.000641
      f+3     :     0.000945
      f-3     :     0.000516
  3 C s       :     3.245665  s :     3.245665
      pz      :     1.044349  p :     3.017553
      px      :     0.957913
      py      :     1.015291
      dz2     :     0.026710  d :     0.085710
      dxz     :     0.008190
      dyz     :     0.011676
      dx2y2   :     0.009502
      dxy     :     0.029631
      f0      :     0.000407  f :     0.004409
      f+1     :     0.001166
      f-1     :     0.000445
      f+2     :     0.000277
      f-2     :     0.000845
      f+3     :     0.000694
      f-3     :     0.000575
  4 S s       :     5.346713  s :     5.346713
      pz      :     2.783666  p :     8.477613
      px      :     2.885433
      py      :     2.808513
      dz2     :     0.235172  d :     1.121019
      dxz     :     0.236063
      dyz     :     0.235264
      dx2y2   :     0.179564
      dxy     :     0.234956
      f0      :     0.014701  f :     0.122931
      f+1     :     0.024194
      f-1     :     0.024485
      f+2     :     0.015066
      f-2     :     0.016433
      f+3     :     0.016718
      f-3     :     0.011334
  5 H s       :     0.879969  s :     0.879969
      pz      :     0.015220  p :     0.029143
      px      :     0.005959
      py      :     0.007965
  6 H s       :     0.862025  s :     0.862025
      pz      :     0.005931  p :     0.024161
      px      :     0.008625
      py      :     0.009605
  7 H s       :     0.789277  s :     0.789277
      pz      :     0.007265  p :     0.037435
      px      :     0.009221
      py      :     0.020950
  8 O s       :     3.850075  s :     3.850075
      pz      :     1.620936  p :     4.528891
      px      :     1.383875
      py      :     1.524079
      dz2     :     0.004421  d :     0.036218
      dxz     :     0.008870
      dyz     :     0.002938
      dx2y2   :     0.009863
      dxy     :     0.010126
      f0      :     0.000194  f :     0.002118
      f+1     :     0.000338
      f-1     :     0.000109
      f+2     :     0.000219
      f-2     :     0.000317
      f+3     :     0.000520
      f-3     :     0.000422
  9 F s       :     3.911143  s :     3.911143
      pz      :     1.757395  p :     5.187397
      px      :     1.828766
      py      :     1.601236
      dz2     :     0.003179  d :     0.020257
      dxz     :     0.001973
      dyz     :     0.006633
      dx2y2   :     0.004365
      dxy     :     0.004108
      f0      :     0.000088  f :     0.000844
      f+1     :     0.000025
      f-1     :     0.000181
      f+2     :     0.000175
      f-2     :     0.000142
      f+3     :     0.000124
      f-3     :     0.000109
 10 H s       :     0.876104  s :     0.876104
      pz      :     0.011714  p :     0.021731
      px      :     0.004257
      py      :     0.005760
 11 H s       :     0.882176  s :     0.882176
      pz      :     0.004485  p :     0.021636
      px      :     0.004341
      py      :     0.012809
 12 O s       :     3.862346  s :     3.862346
      pz      :     1.230239  p :     4.553940
      px      :     1.682540
      py      :     1.641162
      dz2     :     0.013807  d :     0.034560
      dxz     :     0.008995
      dyz     :     0.009347
      dx2y2   :     0.001247
      dxy     :     0.001163
      f0      :     0.000692  f :     0.001895
      f+1     :     0.000500
      f-1     :     0.000520
      f+2     :     0.000072
      f-2     :     0.000077
      f+3     :     0.000026
      f-3     :     0.000008
 13 C s       :     3.185860  s :     3.185860
      pz      :     0.935651  p :     2.906921
      px      :     1.030121
      py      :     0.941148
      dz2     :     0.012683  d :     0.089709
      dxz     :     0.020674
      dyz     :     0.021634
      dx2y2   :     0.017955
      dxy     :     0.016763
      f0      :     0.000341  f :     0.005024
      f+1     :     0.000151
      f-1     :     0.001086
      f+2     :     0.001431
      f-2     :     0.000871
      f+3     :     0.000667
      f-3     :     0.000477
 14 H s       :     0.881901  s :     0.881901
      pz      :     0.006482  p :     0.021506
      px      :     0.010895
      py      :     0.004129
 15 H s       :     0.872750  s :     0.872750
      pz      :     0.009091  p :     0.021520
      px      :     0.004477
      py      :     0.007953
 16 C s       :     3.237777  s :     3.237777
      pz      :     0.962769  p :     2.950083
      px      :     1.049907
      py      :     0.937407
      dz2     :     0.013341  d :     0.090905
      dxz     :     0.022002
      dyz     :     0.021280
      dx2y2   :     0.017402
      dxy     :     0.016880
      f0      :     0.000389  f :     0.005127
      f+1     :     0.000170
      f-1     :     0.001061
      f+2     :     0.001131
      f-2     :     0.001254
      f+3     :     0.000420
      f-3     :     0.000699
 17 H s       :     0.869860  s :     0.869860
      pz      :     0.006476  p :     0.021647
      px      :     0.010280
      py      :     0.004891
 18 H s       :     0.890117  s :     0.890117
      pz      :     0.009764  p :     0.023470
      px      :     0.009146
      py      :     0.004560
 19 C s       :     3.168570  s :     3.168570
      pz      :     0.961360  p :     2.879921
      px      :     0.939679
      py      :     0.978882
      dz2     :     0.015379  d :     0.098419
      dxz     :     0.020649
      dyz     :     0.024956
      dx2y2   :     0.015125
      dxy     :     0.022310
      f0      :     0.000404  f :     0.005324
      f+1     :     0.000766
      f-1     :     0.000629
      f+2     :     0.000858
      f-2     :     0.001294
      f+3     :     0.000464
      f-3     :     0.000908
 20 H s       :     0.810582  s :     0.810582
      pz      :     0.012012  p :     0.022292
      px      :     0.005687
      py      :     0.004594
 21 H s       :     0.791176  s :     0.791176
      pz      :     0.004683  p :     0.022425
      px      :     0.006001
      py      :     0.011741
 22 H s       :     0.819360  s :     0.819360
      pz      :     0.008844  p :     0.023440
      px      :     0.008933
      py      :     0.005663
 23 H s       :     0.865676  s :     0.865676
      pz      :     0.007057  p :     0.021539
      px      :     0.009982
      py      :     0.004500
 24 H s       :     0.859940  s :     0.859940
      pz      :     0.005231  p :     0.021531
      px      :     0.008802
      py      :     0.007498
 25 H s       :     0.845335  s :     0.845335
      pz      :     0.009683  p :     0.021656
      px      :     0.004976
      py      :     0.006997


                     *******************************
                     * LOEWDIN POPULATION ANALYSIS *
                     *******************************

----------------------
LOEWDIN ATOMIC CHARGES
----------------------
   0 C :   -0.301672
   1 C :   -0.333107
   2 C :   -0.268149
   3 C :   -0.365301
   4 S :    0.570938
   5 H :    0.095335
   6 H :    0.104880
   7 H :    0.096673
   8 O :   -0.250066
   9 F :    0.071187
  10 H :    0.132361
  11 H :    0.133568
  12 O :   -0.273295
  13 C :   -0.270326
  14 H :    0.134965
  15 H :    0.136162
  16 C :   -0.267460
  17 H :    0.135895
  18 H :    0.126325
  19 C :   -0.275580
  20 H :    0.138503
  21 H :    0.151235
  22 H :    0.145931
  23 H :    0.138937
  24 H :    0.145523
  25 H :    0.146538

-------------------------------
LOEWDIN REDUCED ORBITAL CHARGES
-------------------------------
  0 C s       :     2.763683  s :     2.763683
      pz      :     1.020392  p :     3.074278
      px      :     1.036324
      py      :     1.017562
      dz2     :     0.100311  d :     0.421202
      dxz     :     0.087686
      dyz     :     0.047933
      dx2y2   :     0.108856
      dxy     :     0.076417
      f0      :     0.003272  f :     0.042509
      f+1     :     0.008939
      f-1     :     0.004943
      f+2     :     0.005628
      f-2     :     0.005672
      f+3     :     0.004593
      f-3     :     0.009462
  1 C s       :     2.779178  s :     2.779178
      pz      :     1.087580  p :     3.243970
      px      :     1.054223
      py      :     1.102167
      dz2     :     0.075177  d :     0.280367
      dxz     :     0.052350
      dyz     :     0.018538
      dx2y2   :     0.045426
      dxy     :     0.088876
      f0      :     0.004224  f :     0.029591
      f+1     :     0.004170
      f-1     :     0.001688
      f+2     :     0.004924
      f-2     :     0.004501
      f+3     :     0.006213
      f-3     :     0.003871
  2 C s       :     2.773041  s :     2.773041
      pz      :     1.026999  p :     3.054906
      px      :     1.021847
      py      :     1.006060
      dz2     :     0.056176  d :     0.402098
      dxz     :     0.077339
      dyz     :     0.107909
      dx2y2   :     0.098424
      dxy     :     0.062250
      f0      :     0.004177  f :     0.038104
      f+1     :     0.004561
      f-1     :     0.007122
      f+2     :     0.006330
      f-2     :     0.004352
      f+3     :     0.007271
      f-3     :     0.004290
  3 C s       :     2.844620  s :     2.844620
      pz      :     1.069916  p :     3.136314
      px      :     1.036344
      py      :     1.030054
      dz2     :     0.096898  d :     0.353541
      dxz     :     0.058560
      dyz     :     0.040088
      dx2y2   :     0.045658
      dxy     :     0.112337
      f0      :     0.003156  f :     0.030826
      f+1     :     0.005866
      f-1     :     0.004616
      f+2     :     0.003258
      f-2     :     0.004774
      f+3     :     0.005144
      f-3     :     0.004013
  4 S s       :     4.756940  s :     4.756940
      pz      :     2.839774  p :     8.549359
      px      :     2.897434
      py      :     2.812152
      dz2     :     0.391539  d :     1.751029
      dxz     :     0.331924
      dyz     :     0.370281
      dx2y2   :     0.278423
      dxy     :     0.378861
      f0      :     0.053775  f :     0.371735
      f+1     :     0.065044
      f-1     :     0.069254
      f+2     :     0.046295
      f-2     :     0.049787
      f+3     :     0.049428
      f-3     :     0.038152
  5 H s       :     0.819298  s :     0.819298
      pz      :     0.041524  p :     0.085367
      px      :     0.018312
      py      :     0.025531
  6 H s       :     0.822519  s :     0.822519
      pz      :     0.019750  p :     0.072601
      px      :     0.023708
      py      :     0.029143
  7 H s       :     0.789755  s :     0.789755
      pz      :     0.023145  p :     0.113573
      px      :     0.027499
      py      :     0.062929
  8 O s       :     3.556774  s :     3.556774
      pz      :     1.582891  p :     4.618923
      px      :     1.508547
      py      :     1.527485
      dz2     :     0.009520  d :     0.069623
      dxz     :     0.014915
      dyz     :     0.005181
      dx2y2   :     0.017510
      dxy     :     0.022497
      f0      :     0.000480  f :     0.004746
      f+1     :     0.000731
      f-1     :     0.000216
      f+2     :     0.000461
      f-2     :     0.000749
      f+3     :     0.000825
      f-3     :     0.001285
  9 F s       :     3.664656  s :     3.664656
      pz      :     1.758691  p :     5.223813
      px      :     1.792276
      py      :     1.672847
      dz2     :     0.004897  d :     0.038701
      dxz     :     0.003184
      dyz     :     0.014600
      dx2y2   :     0.008871
      dxy     :     0.007149
      f0      :     0.000203  f :     0.001642
      f+1     :     0.000044
      f-1     :     0.000313
      f+2     :     0.000381
      f-2     :     0.000270
      f+3     :     0.000235
      f-3     :     0.000196
 10 H s       :     0.808769  s :     0.808769
      pz      :     0.028155  p :     0.058870
      px      :     0.013259
      py      :     0.017456
 11 H s       :     0.808010  s :     0.808010
      pz      :     0.013394  p :     0.058422
      px      :     0.013384
      py      :     0.031643
 12 O s       :     3.565293  s :     3.565293
      pz      :     1.430863  p :     4.634874
      px      :     1.620938
      py      :     1.583073
      dz2     :     0.036379  d :     0.068755
      dxz     :     0.011500
      dyz     :     0.014506
      dx2y2   :     0.003098
      dxy     :     0.003272
      f0      :     0.001963  f :     0.004373
      f+1     :     0.000804
      f-1     :     0.001184
      f+2     :     0.000130
      f-2     :     0.000177
      f+3     :     0.000101
      f-3     :     0.000013
 13 C s       :     2.768136  s :     2.768136
      pz      :     1.021954  p :     3.062260
      px      :     1.021853
      py      :     1.018453
      dz2     :     0.054091  d :     0.401260
      dxz     :     0.106042
      dyz     :     0.090724
      dx2y2   :     0.087782
      dxy     :     0.062621
      f0      :     0.005005  f :     0.038669
      f+1     :     0.002652
      f-1     :     0.008083
      f+2     :     0.006315
      f-2     :     0.005160
      f+3     :     0.006402
      f-3     :     0.005052
 14 H s       :     0.806822  s :     0.806822
      pz      :     0.018898  p :     0.058213
      px      :     0.026677
      py      :     0.012638
 15 H s       :     0.805628  s :     0.805628
      pz      :     0.024422  p :     0.058210
      px      :     0.013403
      py      :     0.020385
 16 C s       :     2.768988  s :     2.768988
      pz      :     1.029172  p :     3.066139
      px      :     1.032203
      py      :     1.004764
      dz2     :     0.053884  d :     0.393989
      dxz     :     0.097621
      dyz     :     0.094167
      dx2y2   :     0.073640
      dxy     :     0.074678
      f0      :     0.005408  f :     0.038344
      f+1     :     0.002889
      f-1     :     0.007599
      f+2     :     0.005267
      f-2     :     0.005977
      f+3     :     0.004370
      f-3     :     0.006835
 17 H s       :     0.805493  s :     0.805493
      pz      :     0.017242  p :     0.058612
      px      :     0.027163
      py      :     0.014207
 18 H s       :     0.813295  s :     0.813295
      pz      :     0.022293  p :     0.060379
      px      :     0.024484
      py      :     0.013602
 19 C s       :     2.778602  s :     2.778602
      pz      :     1.022034  p :     3.062286
      px      :     1.009221
      py      :     1.031031
      dz2     :     0.058436  d :     0.396824
      dxz     :     0.090235
      dyz     :     0.097279
      dx2y2   :     0.061189
      dxy     :     0.089685
      f0      :     0.004717  f :     0.037868
      f+1     :     0.005339
      f-1     :     0.005708
      f+2     :     0.004805
      f-2     :     0.006435
      f+3     :     0.003898
      f-3     :     0.006967
 20 H s       :     0.797482  s :     0.797482
      pz      :     0.032427  p :     0.064015
      px      :     0.017225
      py      :     0.014363
 21 H s       :     0.785087  s :     0.785087
      pz      :     0.013923  p :     0.063678
      px      :     0.016763
      py      :     0.032991
 22 H s       :     0.791621  s :     0.791621
      pz      :     0.022250  p :     0.062448
      px      :     0.024207
      py      :     0.015991
 23 H s       :     0.802472  s :     0.802472
      pz      :     0.018357  p :     0.058591
      px      :     0.026500
      py      :     0.013735
 24 H s       :     0.795567  s :     0.795567
      pz      :     0.016288  p :     0.058909
      px      :     0.023103
      py      :     0.019518
 25 H s       :     0.794231  s :     0.794231
      pz      :     0.025807  p :     0.059231
      px      :     0.015086
      py      :     0.018338


                      *****************************
                      * MAYER POPULATION ANALYSIS *
                      *****************************

  NA   - Mulliken gross atomic population
  ZA   - Total nuclear charge
  QA   - Mulliken gross atomic charge
  VA   - Mayer's total valence
  BVA  - Mayer's bonded valence
  FA   - Mayer's free valence

  ATOM       NA         ZA         QA         VA         BVA        FA
  0 C      6.1690     6.0000    -0.1690     3.8067     3.8067     0.0000
  1 C      6.4372     6.0000    -0.4372     3.8577     3.8577    -0.0000
  2 C      6.2075     6.0000    -0.2075     3.9371     3.9371     0.0000
  3 C      6.3533     6.0000    -0.3533     3.9193     3.9193     0.0000
  4 S     15.0683    16.0000     0.9317     5.8320     5.8320    -0.0000
  5 H      0.9091     1.0000     0.0909     0.9822     0.9822    -0.0000
  6 H      0.8862     1.0000     0.1138     0.9846     0.9846    -0.0000
  7 H      0.8267     1.0000     0.1733     0.9909     0.9909    -0.0000
  8 O      8.4173     8.0000    -0.4173     2.1041     2.1041     0.0000
  9 F      9.1196     9.0000    -0.1196     1.1953     1.1953     0.0000
 10 H      0.8978     1.0000     0.1022     0.9663     0.9663    -0.0000
 11 H      0.9038     1.0000     0.0962     0.9712     0.9712    -0.0000
 12 O      8.4527     8.0000    -0.4527     1.9564     1.9564    -0.0000
 13 C      6.1875     6.0000    -0.1875     3.8505     3.8505    -0.0000
 14 H      0.9034     1.0000     0.0966     0.9725     0.9725     0.0000
 15 H      0.8943     1.0000     0.1057     0.9696     0.9696     0.0000
 16 C      6.2839     6.0000    -0.2839     3.8947     3.8947    -0.0000
 17 H      0.8915     1.0000     0.1085     0.9740     0.9740    -0.0000
 18 H      0.9136     1.0000     0.0864     0.9729     0.9729    -0.0000
 19 C      6.1522     6.0000    -0.1522     3.8182     3.8182    -0.0000
 20 H      0.8329     1.0000     0.1671     0.9587     0.9587     0.0000
 21 H      0.8136     1.0000     0.1864     0.9663     0.9663     0.0000
 22 H      0.8428     1.0000     0.1572     0.9672     0.9672    -0.0000
 23 H      0.8872     1.0000     0.1128     0.9716     0.9716    -0.0000
 24 H      0.8815     1.0000     0.1185     0.9686     0.9686    -0.0000
 25 H      0.8670     1.0000     0.1330     0.9711     0.9711    -0.0000

  Mayer bond orders larger than 0.100000
B(  0-C ,  1-C ) :   0.9132 B(  0-C ,  2-C ) :   0.9716 B(  0-C , 10-H ) :   0.9902 
B(  0-C , 11-H ) :   0.9775 B(  1-C ,  5-H ) :   0.9980 B(  1-C ,  6-H ) :   0.9782 
B(  1-C ,  7-H ) :   0.9734 B(  2-C , 13-C ) :   0.9807 B(  2-C , 14-H ) :   0.9827 
B(  2-C , 15-H ) :   0.9787 B(  3-C ,  4-S ) :   0.9160 B(  3-C , 19-C ) :   0.9497 
B(  3-C , 20-H ) :   0.9497 B(  3-C , 21-H ) :   0.9450 B(  4-S ,  8-O ) :   1.9771 
B(  4-S ,  9-F ) :   1.0941 B(  4-S , 12-O ) :   1.7916 B( 13-C , 16-C ) :   0.9384 
B( 13-C , 17-H ) :   0.9732 B( 13-C , 18-H ) :   0.9878 B( 16-C , 19-C ) :   0.9693 
B( 16-C , 22-H ) :   0.9834 B( 16-C , 23-H ) :   0.9653 B( 19-C , 24-H ) :   0.9576 
B( 19-C , 25-H ) :   0.9748 

-------
TIMINGS
-------

Total SCF time: 0 days 0 hours 0 min 59 sec 

Total time                  ....      59.261 sec
Sum of individual times     ....      56.543 sec  ( 95.4%)

Fock matrix formation       ....      53.125 sec  ( 89.6%)
  Split-RI-J                ....       3.592 sec  (  6.8% of F)
  Chain of spheres X        ....      45.674 sec  ( 86.0% of F)
  XC integration            ....       3.626 sec  (  6.8% of F)
    Basis function eval.    ....       0.993 sec  ( 27.4% of XC)
    Density eval.           ....       1.050 sec  ( 28.9% of XC)
    XC-Functional eval.     ....       0.167 sec  (  4.6% of XC)
    XC-Potential eval.      ....       0.979 sec  ( 27.0% of XC)
Diagonalization             ....       0.431 sec  (  0.7%)
Density matrix formation    ....       0.037 sec  (  0.1%)
Population analysis         ....       0.056 sec  (  0.1%)
Initial guess               ....       0.375 sec  (  0.6%)
Orbital Transformation      ....       0.000 sec  (  0.0%)
Orbital Orthonormalization  ....       0.000 sec  (  0.0%)
DIIS solution               ....       0.249 sec  (  0.4%)
SOSCF solution              ....       0.368 sec  (  0.6%)
Grid generation             ....       1.901 sec  (  3.2%)

Maximum memory used throughout the entire SCF-calculation: 97.0 MB


-------------------------------------------------------------------------------
                          DFT DISPERSION CORRECTION                            
                                                                               
                              DFTD3 V3.1  Rev 1                                
                              USING zero damping                               
-------------------------------------------------------------------------------
The omegaB97X-D3 functional is recognized. Fit by Chai et al.
Active option DFTDOPT                   ...         3   

molecular C6(AA) [au] = 5910.456950 


            DFT-D V3
 parameters
 s6 scaling factor         :     1.0000 
 rs6 scaling factor        :     1.2810 
 s8 scaling factor         :     1.0000 
 rs8 scaling factor        :     1.0940 
 Damping factor alpha6     :    14.0000 
 Damping factor alpha8     :    16.0000 
 ad hoc parameters k1-k3   :    16.0000     1.3333    -4.0000 

 Edisp/kcal,au: -8.132961404854  -0.012960697605 
 E6   /kcal   :  -3.421473799 
 E8   /kcal   :  -4.711487606 
 % E8         :  57.930775409 

-------------------------   ----------------
Dispersion correction           -0.012960698
-------------------------   ----------------


-------------------------   --------------------
FINAL SINGLE POINT ENERGY      -924.279929015994
-------------------------   --------------------


                            ***************************************
                            *     ORCA property calculations      *
                            ***************************************

                                    ---------------------
                                    Active property flags
                                    ---------------------
   (+) Dipole Moment


------------------------------------------------------------------------------
                       ORCA ELECTRIC PROPERTIES CALCULATION
------------------------------------------------------------------------------

Dipole Moment Calculation                       ... on
Quadrupole Moment Calculation                   ... off
Polarizability Calculation                      ... off
GBWName                                         ... D2.gbw
Electron density file                           ... D2.scfp
The origin for moment calculation is the CENTER OF MASS  = (-10.593473, -7.575489 -0.123704)

-------------
DIPOLE MOMENT
-------------
                                X             Y             Z
Electronic contribution:    -15.98797      -5.37398      -7.23900
Nuclear contribution   :     17.25367       4.78608       6.55647
                        -----------------------------------------
Total Dipole Moment    :      1.26569      -0.58790      -0.68254
                        -----------------------------------------
Magnitude (a.u.)       :      1.55353
Magnitude (Debye)      :      3.94877



--------------------
Rotational spectrum 
--------------------
 
Rotational constants in cm-1:     0.048508     0.025517     0.020225 
Rotational constants in MHz :  1454.219007   764.979652   606.316599 

 Dipole components along the rotational axes: 
x,y,z [a.u.] :     0.422296     1.251668    -0.817595 
x,y,z [Debye]:     1.073392     3.181487    -2.078160 

 

Timings for individual modules:

Sum of individual times         ...       60.794 sec (=   1.013 min)
GTO integral calculation        ...        1.098 sec (=   0.018 min)   1.8 %
SCF iterations                  ...       59.695 sec (=   0.995 min)  98.2 %
                             ****ORCA TERMINATED NORMALLY****
TOTAL RUN TIME: 0 days 0 hours 1 minutes 1 seconds 440 msec
