
                                        *****************
                                        * O   R   C   A *
                                        *****************

                                            #,                                       
                                            ###                                      
                                            ####                                     
                                            #####                                    
                                            ######                                   
                                           ########,                                 
                                     ,,################,,,,,                         
                               ,,#################################,,                 
                          ,,##########################################,,             
                       ,#########################################, ''#####,          
                    ,#############################################,,   '####,        
                  ,##################################################,,,,####,       
                ,###########''''           ''''###############################       
              ,#####''   ,,,,##########,,,,          '''####'''          '####       
            ,##' ,,,,###########################,,,                        '##       
           ' ,,###''''                  '''############,,,                           
         ,,##''                                '''############,,,,        ,,,,,,###''
      ,#''                                            '''#######################'''  
     '                                                          ''''####''''         
             ,#######,   #######,   ,#######,      ##                                
            ,#'     '#,  ##    ##  ,#'     '#,    #''#        ######   ,####,        
            ##       ##  ##   ,#'  ##            #'  '#       #        #'  '#        
            ##       ##  #######   ##           ,######,      #####,   #    #        
            '#,     ,#'  ##    ##  '#,     ,#' ,#      #,         ##   #,  ,#        
             '#######'   ##     ##  '#######'  #'      '#     #####' # '####'        



                  #######################################################
                  #                        -***-                        #
                  #          Department of theory and spectroscopy      #
                  #    Directorship and core code : Frank Neese         #
                  #        Max Planck Institute fuer Kohlenforschung    #
                  #                Kaiser Wilhelm Platz 1               #
                  #                 D-45470 Muelheim/Ruhr               #
                  #                      Germany                        #
                  #                                                     #
                  #                  All rights reserved                #
                  #                        -***-                        #
                  #######################################################


                         Program Version 5.0.0 -  RELEASE  -
                                (SVN: $Rev: 19529$)
                ($Date: 2021-06-28 11:36:33 +0200 (Mo, 28 Jun 2021) $)


 With contributions from (in alphabetic order):
   Daniel Aravena         : Magnetic Suceptibility
   Michael Atanasov       : Ab Initio Ligand Field Theory (pilot matlab implementation)
   Alexander A. Auer      : GIAO ZORA, VPT2 properties, NMR spectrum
   Ute Becker             : Parallelization
   Giovanni Bistoni       : ED, misc. LED, open-shell LED, HFLD
   Martin Brehm           : Molecular dynamics
   Dmytro Bykov           : SCF Hessian
   Vijay G. Chilkuri      : MRCI spin determinant printing, contributions to CSF-ICE
   Dipayan Datta          : RHF DLPNO-CCSD density
   Achintya Kumar Dutta   : EOM-CC, STEOM-CC
   Dmitry Ganyushin       : Spin-Orbit,Spin-Spin,Magnetic field MRCI
   Miquel Garcia          : C-PCM Hessian, Gaussian charge scheme
   Yang Guo               : DLPNO-NEVPT2, F12-NEVPT2, CIM, IAO-localization
   Andreas Hansen         : Spin unrestricted coupled pair/coupled cluster methods
   Benjamin Helmich-Paris : MC-RPA, TRAH-SCF, COSX integrals
   Lee Huntington         : MR-EOM, pCC
   Robert Izsak           : Overlap fitted RIJCOSX, COSX-SCS-MP3, EOM
   Marcus Kettner         : VPT2
   Christian Kollmar      : KDIIS, OOCD, Brueckner-CCSD(T), CCSD density, CASPT2, CASPT2-K
   Simone Kossmann        : Meta GGA functionals, TD-DFT gradient, OOMP2, MP2 Hessian
   Martin Krupicka        : Initial AUTO-CI
   Lucas Lang             : DCDCAS
   Marvin Lechner         : AUTO-CI (C++ implementation), FIC-MRCC
   Dagmar Lenk            : GEPOL surface, SMD
   Dimitrios Liakos       : Extrapolation schemes; Compound Job, initial MDCI parallelization
   Dimitrios Manganas     : Further ROCIS development; embedding schemes
   Dimitrios Pantazis     : SARC Basis sets
   Anastasios Papadopoulos: AUTO-CI, single reference methods and gradients
   Taras Petrenko         : DFT Hessian,TD-DFT gradient, ASA, ECA, R-Raman, ABS, FL, XAS/XES, NRVS
   Peter Pinski           : DLPNO-MP2, DLPNO-MP2 Gradient
   Christoph Reimann      : Effective Core Potentials
   Marius Retegan         : Local ZFS, SOC
   Christoph Riplinger    : Optimizer, TS searches, QM/MM, DLPNO-CCSD(T), (RO)-DLPNO pert. Triples
   Tobias Risthaus        : Range-separated hybrids, TD-DFT gradient, RPA, STAB
   Michael Roemelt        : Original ROCIS implementation
   Masaaki Saitow         : Open-shell DLPNO-CCSD energy and density
   Barbara Sandhoefer     : DKH picture change effects
   Avijit Sen             : IP-ROCIS
   Kantharuban Sivalingam : CASSCF convergence, NEVPT2, FIC-MRCI
   Bernardo de Souza      : ESD, SOC TD-DFT
   Georgi Stoychev        : AutoAux, RI-MP2 NMR
   Willem Van den Heuvel  : Paramagnetic NMR
   Boris Wezisla          : Elementary symmetry handling
   Frank Wennmohs         : Technical directorship


 We gratefully acknowledge several colleagues who have allowed us to
 interface, adapt or use parts of their codes:
   Stefan Grimme, W. Hujo, H. Kruse, P. Pracht,  : VdW corrections, initial TS optimization,
                  C. Bannwarth, S. Ehlert          DFT functionals, gCP, sTDA/sTD-DF
   Ed Valeev, F. Pavosevic, A. Kumar             : LibInt (2-el integral package), F12 methods
   Garnet Chan, S. Sharma, J. Yang, R. Olivares  : DMRG
   Ulf Ekstrom                                   : XCFun DFT Library
   Mihaly Kallay                                 : mrcc  (arbitrary order and MRCC methods)
   Jiri Pittner, Ondrej Demel                    : Mk-CCSD
   Frank Weinhold                                : gennbo (NPA and NBO analysis)
   Christopher J. Cramer and Donald G. Truhlar   : smd solvation model
   Lars Goerigk                                  : TD-DFT with DH, B97 family of functionals
   V. Asgeirsson, H. Jonsson                     : NEB implementation
   FAccTs GmbH                                   : IRC, NEB, NEB-TS, DLPNO-Multilevel, CI-OPT
                                                   MM, QMMM, 2- and 3-layer-ONIOM, Crystal-QMMM,
                                                   LR-CPCM, SF, NACMEs, symmetry and pop. for TD-DFT,
                                                   nearIR, NL-DFT gradient (VV10), updates on ESD,
                                                   ML-optimized integration grids
   S Lehtola, MJT Oliveira, MAL Marques          : LibXC Library
   Liviu Ungur et al                             : ANISO software


 Your calculation uses the libint2 library for the computation of 2-el integrals
 For citations please refer to: http://libint.valeyev.net

 Your ORCA version has been built with support for libXC version: 5.1.0
 For citations please refer to: https://tddft.org/programs/libxc/

 This ORCA versions uses:
   CBLAS   interface :  Fast vector & matrix operations
   LAPACKE interface :  Fast linear algebra routines
   SCALAPACK package :  Parallel linear algebra routines
   Shared memory     :  Shared parallel matrices
   BLAS/LAPACK       :  OpenBLAS 0.3.15  USE64BITINT DYNAMIC_ARCH NO_AFFINITY Haswell SINGLE_THREADED
        Core in use  :  Haswell
   Copyright (c) 2011-2014, The OpenBLAS Project


Your calculation utilizes the atom-pairwise dispersion correction
with the Becke-Johnson damping scheme (D3BJ)
Cite in your paper:
S.Grimme, S.Ehrlich, L.Goerigk, J Comput Chem, (2011), 32, 1456–1465 
S.Grimme, J.Antony, S.Ehrlich and H.Krieg, J.Chem.Phys., 132, (2010), 154104 
   

================================================================================

----- Orbital basis set information -----
Your calculation utilizes the basis: def2-SVP
   F. Weigend and R. Ahlrichs, Phys. Chem. Chem. Phys. 7, 3297 (2005).

----- AuxJ basis set information -----
Your calculation utilizes the auxiliary basis: def2/J
   F. Weigend, Phys. Chem. Chem. Phys. 8, 1057 (2006).

================================================================================
                                        WARNINGS
                       Please study these warnings very carefully!
================================================================================



WARNING: Found flag for RIJCOSX approximation but no HF exchange needed!
  ===> : RIJCOSX  will be disabled and Split-RI-J is turned on

INFO   : the flag for use of the SHARK integral package has been found!

================================================================================
                                       INPUT FILE
================================================================================
NAME = SVP_PBE_A_wt_dlpno_neg.com
|  1> !PBE D3BJ RIJCOSX def2-SVP def2/J TightSCF
|  2> *xyz -1 1 
|  3> C         -2.79070       -0.78527        5.70281
|  4> C         -2.45380        0.05510        6.94145
|  5> C         -2.07842        1.48042        6.56410
|  6> H         -1.62558       -0.38216        7.49891
|  7> H         -3.32527        0.08775        7.59917
|  8> O         -0.90125        1.85816        6.82810
|  9> O         -2.93658        2.17731        5.96415
| 10> H         -1.94052       -0.82114        5.05412
| 11> H         -3.61590       -0.34261        5.18514
| 12> H         -3.05063       -1.77815        6.00536
| 13> *
| 14> %MaxCore 64000
| 15> 
| 16> %pal nprocs 4
| 17> end  
| 18> 
| 19> %scf
| 20>   MaxIter 150
| 21> end
| 22> 
| 23> 
| 24>                          ****END OF INPUT****
================================================================================

                       ****************************
                       * Single Point Calculation *
                       ****************************

---------------------------------
CARTESIAN COORDINATES (ANGSTROEM)
---------------------------------
  C     -2.790700   -0.785270    5.702810
  C     -2.453800    0.055100    6.941450
  C     -2.078420    1.480420    6.564100
  H     -1.625580   -0.382160    7.498910
  H     -3.325270    0.087750    7.599170
  O     -0.901250    1.858160    6.828100
  O     -2.936580    2.177310    5.964150
  H     -1.940520   -0.821140    5.054120
  H     -3.615900   -0.342610    5.185140
  H     -3.050630   -1.778150    6.005360

----------------------------
CARTESIAN COORDINATES (A.U.)
----------------------------
  NO LB      ZA    FRAG     MASS         X           Y           Z
   0 C     6.0000    0    12.011   -5.273659   -1.483945   10.776749
   1 C     6.0000    0    12.011   -4.637010    0.104124   13.117439
   2 C     6.0000    0    12.011   -3.927645    2.797588   12.404351
   3 H     1.0000    0     1.008   -3.071901   -0.722178   14.170886
   4 H     1.0000    0     1.008   -6.283850    0.165823   14.360350
   5 O     8.0000    0    15.999   -1.703116    3.511414   12.903239
   6 O     8.0000    0    15.999   -5.549332    4.114520   11.270610
   7 H     1.0000    0     1.008   -3.667051   -1.551730    9.550903
   8 H     1.0000    0     1.008   -6.833061   -0.647439    9.798495
   9 H     1.0000    0     1.008   -5.764855   -3.360217   11.348486

--------------------------------
INTERNAL COORDINATES (ANGSTROEM)
--------------------------------
 C      0   0   0     0.000000000000     0.00000000     0.00000000
 C      1   0   0     1.534259559690     0.00000000     0.00000000
 C      2   1   0     1.521459913800   111.53513769     0.00000000
 H      2   1   3     1.089911155829   111.10258347   238.96823987
 H      2   1   3     1.092301049070   109.10515178   119.91335327
 O      3   2   1     1.264164829641   117.25007708   243.52498973
 O      3   2   1     1.257789433967   117.97049371    60.57688393
 H      1   2   3     1.069995983824   109.47102157    60.08647560
 H      1   2   3     1.069993058155   109.47132324   300.08588633
 H      1   2   3     1.070005047558   109.47065153   180.08601431

---------------------------
INTERNAL COORDINATES (A.U.)
---------------------------
 C      0   0   0     0.000000000000     0.00000000     0.00000000
 C      1   0   0     2.899330386165     0.00000000     0.00000000
 C      2   1   0     2.875142560821   111.53513769     0.00000000
 H      2   1   3     2.059633594822   111.10258347   238.96823987
 H      2   1   3     2.064149838538   109.10515178   119.91335327
 O      3   2   1     2.388925316156   117.25007708   243.52498973
 O      3   2   1     2.376877564338   117.97049371    60.57688393
 H      1   2   3     2.021999373823   109.47102157    60.08647560
 H      1   2   3     2.021993845110   109.47132324   300.08588633
 H      1   2   3     2.022016501798   109.47065153   180.08601431

---------------------
BASIS SET INFORMATION
---------------------
There are 3 groups of distinct atoms

 Group   1 Type C   : 7s4p1d contracted to 3s2p1d pattern {511/31/1}
 Group   2 Type H   : 4s1p contracted to 2s1p pattern {31/1}
 Group   3 Type O   : 7s4p1d contracted to 3s2p1d pattern {511/31/1}

Atom   0C    basis set group =>   1
Atom   1C    basis set group =>   1
Atom   2C    basis set group =>   1
Atom   3H    basis set group =>   2
Atom   4H    basis set group =>   2
Atom   5O    basis set group =>   3
Atom   6O    basis set group =>   3
Atom   7H    basis set group =>   2
Atom   8H    basis set group =>   2
Atom   9H    basis set group =>   2
---------------------------------
AUXILIARY/J BASIS SET INFORMATION
---------------------------------
There are 3 groups of distinct atoms

 Group   1 Type C   : 12s5p4d2f1g contracted to 6s4p3d1f1g pattern {711111/2111/211/2/1}
 Group   2 Type H   : 5s2p1d contracted to 3s1p1d pattern {311/2/1}
 Group   3 Type O   : 12s5p4d2f1g contracted to 6s4p3d1f1g pattern {711111/2111/211/2/1}

Atom   0C    basis set group =>   1
Atom   1C    basis set group =>   1
Atom   2C    basis set group =>   1
Atom   3H    basis set group =>   2
Atom   4H    basis set group =>   2
Atom   5O    basis set group =>   3
Atom   6O    basis set group =>   3
Atom   7H    basis set group =>   2
Atom   8H    basis set group =>   2
Atom   9H    basis set group =>   2


           ************************************************************
           *        Program running with 4 parallel MPI-processes     *
           *              working on a common directory               *
           ************************************************************
------------------------------------------------------------------------------
                           ORCA GTO INTEGRAL CALCULATION
                           -- RI-GTO INTEGRALS CHOSEN --
------------------------------------------------------------------------------
------------------------------------------------------------------------------
                   ___                                                        
                  /   \      - P O W E R E D   B Y -                         
                 /     \                                                     
                 |  |  |   _    _      __       _____    __    __             
                 |  |  |  | |  | |    /  \     |  _  \  |  |  /  |          
                  \  \/   | |  | |   /    \    | | | |  |  | /  /          
                 / \  \   | |__| |  /  /\  \   | |_| |  |  |/  /          
                |  |  |   |  __  | /  /__\  \  |    /   |      \           
                |  |  |   | |  | | |   __   |  |    \   |  |\   \          
                \     /   | |  | | |  |  |  |  | |\  \  |  | \   \       
                 \___/    |_|  |_| |__|  |__|  |_| \__\ |__|  \__/        
                                                                              
                      - O R C A' S   B I G   F R I E N D -                    
                                      &                                       
                       - I N T E G R A L  F E E D E R -                       
                                                                              
 v1 FN, 2020, v2 2021                                                         
------------------------------------------------------------------------------


Reading SHARK input file SVP_PBE_A_wt_dlpno_neg.SHARKINP.tmp ... ok
----------------------
SHARK INTEGRAL PACKAGE
----------------------

Number of atoms                             ...     10
Number of basis functions                   ...     95
Number of shells                            ...     45
Maximum angular momentum                    ...      2
Integral batch strategy                     ... SHARK/LIBINT Hybrid
RI-J (if used) integral strategy            ... SPLIT-RIJ (Revised 2003 algorithm where possible)
Printlevel                                  ...      1
Contraction scheme used                     ... SEGMENTED contraction
Coulomb Range Separation                    ... NOT USED
Exchange Range Separation                   ... NOT USED
Finite Nucleus Model                        ... NOT USED
Auxiliary Coulomb fitting basis             ... AVAILABLE
   # of basis functions in Aux-J            ...    300
   # of shells in Aux-J                     ...    100
   Maximum angular momentum in Aux-J        ...      4
Auxiliary J/K fitting basis                 ... NOT available
Auxiliary Correlation fitting basis         ... NOT available
Auxiliary 'external' fitting basis          ... NOT available
Integral threshold                          ...     2.500000e-11
Primitive cut-off                           ...     2.500000e-12
Primitive pair pre-selection threshold      ...     2.500000e-12

Calculating pre-screening integrals         ... done (  0.0 sec) Dimension = 45
Organizing shell pair data                  ... done (  0.0 sec)
Shell pair information
Total number of shell pairs                 ...      1035
Shell pairs after pre-screening             ...      1020
Total number of primitive shell pairs       ...      3735
Primitive shell pairs kept                  ...      2933
          la=0 lb=0:    317 shell pairs
          la=1 lb=0:    370 shell pairs
          la=1 lb=1:    120 shell pairs
          la=2 lb=0:    123 shell pairs
          la=2 lb=1:     75 shell pairs
          la=2 lb=2:     15 shell pairs

Calculating one electron integrals          ... done (  0.0 sec)
Calculating RI/J V-Matrix + Cholesky decomp.... done (  0.0 sec)
Calculating Nuclear repulsion               ... done (  0.0 sec) ENN=    169.076244161938 Eh

SHARK setup successfully completed in   0.1 seconds

Maximum memory used throughout the entire GTOINT-calculation: 8.8 MB


           ************************************************************
           *        Program running with 4 parallel MPI-processes     *
           *              working on a common directory               *
           ************************************************************
-------------------------------------------------------------------------------
                                 ORCA SCF
-------------------------------------------------------------------------------

------------
SCF SETTINGS
------------
Hamiltonian:
 Density Functional     Method          .... DFT(GTOs)
 Exchange Functional    Exchange        .... PBE
   PBE kappa parameter   XKappa         ....  0.804000
   PBE mue parameter    XMuePBE         ....  0.219520
 Correlation Functional Correlation     .... PBE
   PBE beta parameter  CBetaPBE         ....  0.066725
 LDA part of GGA corr.  LDAOpt          .... PW91-LDA
 Gradients option       PostSCFGGA      .... off
   Density functional embedding theory  .... OFF
   NL short-range parameter             ....  6.400000
 RI-approximation to the Coulomb term is turned on
   Number of AuxJ basis functions       .... 300


General Settings:
 Integral files         IntName         .... SVP_PBE_A_wt_dlpno_neg
 Hartree-Fock type      HFTyp           .... RHF
 Total Charge           Charge          ....   -1
 Multiplicity           Mult            ....    1
 Number of Electrons    NEL             ....   40
 Basis Dimension        Dim             ....   95
 Nuclear Repulsion      ENuc            ....    169.0762441619 Eh

Convergence Acceleration:
 DIIS                   CNVDIIS         .... on
   Start iteration      DIISMaxIt       ....    12
   Startup error        DIISStart       ....  0.200000
   # of expansion vecs  DIISMaxEq       ....     5
   Bias factor          DIISBfac        ....   1.050
   Max. coefficient     DIISMaxC        ....  10.000
 Trust-Rad. Augm. Hess. CNVTRAH         .... auto
   Auto Start mean grad. ratio tolernc. ....  1.125000
   Auto Start start iteration           ....    20
   Auto Start num. interpolation iter.  ....    10
   Max. Number of Micro iterations      ....    16
   Max. Number of Macro iterations      .... Maxiter - #DIIS iter
   Number of Davidson start vectors     ....     2
   Converg. threshold I  (grad. norm)   ....   1.000e-05
   Converg. threshold II (energy diff.) ....   1.000e-08
   Grad. Scal. Fac. for Micro threshold ....   0.100
   Minimum threshold for Micro iter.    ....   0.010
   NR start threshold (gradient norm)   ....   0.001
   Initial trust radius                 ....   0.400
   Minimum AH scaling param. (alpha)    ....   1.000
   Maximum AH scaling param. (alpha)    .... 1000.000
   Orbital update algorithm             .... Taylor
   White noise on init. David. guess    .... on
   Maximum white noise                  ....   0.010
   Quad. conv. algorithm                .... NR
 SOSCF                  CNVSOSCF        .... on
   Start iteration      SOSCFMaxIt      ....   150
   Startup grad/error   SOSCFStart      ....  0.003300
 Level Shifting         CNVShift        .... on
   Level shift para.    LevelShift      ....    0.2500
   Turn off err/grad.   ShiftErr        ....    0.0010
 Zerner damping         CNVZerner       .... off
 Static damping         CNVDamp         .... on
   Fraction old density DampFac         ....    0.7000
   Max. Damping (<1)    DampMax         ....    0.9800
   Min. Damping (>=0)   DampMin         ....    0.0000
   Turn off err/grad.   DampErr         ....    0.1000
 Fernandez-Rico         CNVRico         .... off

SCF Procedure:
 Maximum # iterations   MaxIter         ....   150
 SCF integral mode      SCFMode         .... Direct
   Integral package                     .... SHARK and LIBINT hybrid scheme
 Reset frequency        DirectResetFreq ....    20
 Integral Threshold     Thresh          ....  2.500e-11 Eh
 Primitive CutOff       TCut            ....  2.500e-12 Eh

Convergence Tolerance:
 Convergence Check Mode ConvCheckMode   .... Total+1el-Energy
 Convergence forced     ConvForced      .... 0
 Energy Change          TolE            ....  1.000e-08 Eh
 1-El. energy change                    ....  1.000e-05 Eh
 Orbital Gradient       TolG            ....  1.000e-05
 Orbital Rotation angle TolX            ....  1.000e-05
 DIIS Error             TolErr          ....  5.000e-07


Diagonalization of the overlap matrix:
Smallest eigenvalue                        ... 2.807e-03
Time for diagonalization                   ...    0.003 sec
Threshold for overlap eigenvalues          ... 1.000e-08
Number of eigenvalues below threshold      ... 0
Time for construction of square roots      ...    0.002 sec
Total time needed                          ...    0.005 sec

Time for model grid setup =    0.051 sec

------------------------------
INITIAL GUESS: MODEL POTENTIAL
------------------------------
Loading Hartree-Fock densities                     ... done
Calculating cut-offs                               ... done
Initializing the effective Hamiltonian             ... done
Setting up the integral package (SHARK)            ... done
Starting the Coulomb interaction                   ... done (   0.0 sec)
Reading the grid                                   ... done
Mapping shells                                     ... done
Starting the XC term evaluation                    ... done (   0.0 sec)
  promolecular density results
     # of electrons  =     38.994323986
     EX              =    -33.066047770
     EC              =     -1.282756197
     EX+EC           =    -34.348803967
Transforming the Hamiltonian                       ... done (   0.0 sec)
Diagonalizing the Hamiltonian                      ... done (   0.0 sec)
Back transforming the eigenvectors                 ... done (   0.0 sec)
Now organizing SCF variables                       ... done
                      ------------------
                      INITIAL GUESS DONE (   0.1 sec)
                      ------------------
-------------------
DFT GRID GENERATION
-------------------

General Integration Accuracy     IntAcc      ... 4.388
Radial Grid Type                 RadialGrid  ... OptM3 with GC (2021)
Angular Grid (max. ang.)         AngularGrid ... 4 (Lebedev-302)
Angular grid pruning method      GridPruning ... 4 (adaptive)
Weight generation scheme         WeightScheme... Becke
Basis function cutoff            BFCut       ... 1.0000e-11
Integration weight cutoff        WCut        ... 1.0000e-14
Angular grids for H and He will be reduced by one unit
Partially contracted basis set               ... off
Rotationally invariant grid construction     ... off

Total number of grid points                  ...    46551
Total number of batches                      ...      731
Average number of points per batch           ...       63
Average number of grid points per atom       ...     4655
Time for grid setup =    0.279 sec

--------------
SCF ITERATIONS
--------------
ITER       Energy         Delta-E        Max-DP      RMS-DP      [F,P]     Damp
               ***  Starting incremental Fock matrix formation  ***
  0   -267.0341831425   0.000000000000 0.28775136  0.00723977  0.2848326 0.7000
  1   -267.1684247709  -0.134241628417 0.25611973  0.00563824  0.1049509 0.7000
                               ***Turning on DIIS***
  2   -267.2112065459  -0.042781774971 0.33504264  0.00839331  0.0283431 0.0000
  3   -267.2844261950  -0.073219649150 0.20689080  0.00406950  0.0580172 0.0000
  4   -267.3002946702  -0.015868475146 0.06759832  0.00141547  0.0158403 0.0000
                      *** Initiating the SOSCF procedure ***
                           *** Shutting down DIIS ***
                      *** Re-Reading the Fockian *** 
                      *** Removing any level shift *** 
ITER      Energy       Delta-E        Grad      Rot      Max-DP    RMS-DP
  5   -267.30196800  -0.0016733251  0.001210  0.001210  0.030914  0.000649
               *** Restarting incremental Fock matrix formation ***
  6   -267.30208333  -0.0001153340  0.000604  0.003826  0.025289  0.000583
  7   -267.30209612  -0.0000127942  0.000642  0.000696  0.004206  0.000117
  8   -267.30210100  -0.0000048759  0.000267  0.001073  0.008153  0.000177
  9   -267.30210266  -0.0000016638  0.000244  0.000530  0.000952  0.000046
 10   -267.30210235   0.0000003141  0.000277  0.000564  0.003275  0.000083
 11   -267.30210349  -0.0000011435  0.000131  0.000216  0.000538  0.000022
 12   -267.30210321   0.0000002804  0.000152  0.000177  0.000903  0.000027
 13   -267.30210382  -0.0000006108  0.000013  0.000048  0.000425  0.000009
 14   -267.30210382  -0.0000000018  0.000016  0.000009  0.000111  0.000003
                  ***Gradient check signals convergence***
              ***Rediagonalizing the Fockian in SOSCF/NRSCF***

               *****************************************************
               *                     SUCCESS                       *
               *           SCF CONVERGED AFTER  15 CYCLES          *
               *****************************************************


----------------
TOTAL SCF ENERGY
----------------

Total Energy       :         -267.30210383 Eh           -7273.66003 eV

Components:
Nuclear Repulsion  :          169.07624416 Eh            4600.79850 eV
Electronic Energy  :         -436.37834799 Eh          -11874.45853 eV
One Electron Energy:         -708.79572201 Eh          -19287.31214 eV
Two Electron Energy:          272.41737402 Eh            7412.85361 eV

Virial components:
Potential Energy   :         -532.58330797 Eh          -14492.32859 eV
Kinetic Energy     :          265.28120414 Eh            7218.66855 eV
Virial Ratio       :            2.00761795


DFT components:
N(Alpha)           :       20.000037908866 electrons
N(Beta)            :       20.000037908866 electrons
N(Total)           :       40.000075817733 electrons
E(X)               :      -33.956351512200 Eh       
E(C)               :       -1.336832418517 Eh       
E(XC)              :      -35.293183930717 Eh       
DFET-embed. en.    :        0.000000000000 Eh       

---------------
SCF CONVERGENCE
---------------

  Last Energy change         ...   -4.5775e-09  Tolerance :   1.0000e-08
  Last MAX-Density change    ...    3.9402e-05  Tolerance :   1.0000e-07
  Last RMS-Density change    ...    1.0001e-06  Tolerance :   5.0000e-09
  Last Orbital Gradient      ...    1.9034e-06  Tolerance :   1.0000e-05
  Last Orbital Rotation      ...    5.7215e-06  Tolerance :   1.0000e-05

             **** THE GBW FILE WAS UPDATED (SVP_PBE_A_wt_dlpno_neg.gbw) ****
             **** DENSITY SVP_PBE_A_wt_dlpno_neg.scfp WAS UPDATED ****
             **** ENERGY FILE WAS UPDATED (SVP_PBE_A_wt_dlpno_neg.en.tmp) ****
             **** THE GBW FILE WAS UPDATED (SVP_PBE_A_wt_dlpno_neg.gbw) ****
             **** DENSITY SVP_PBE_A_wt_dlpno_neg.scfp WAS UPDATED ****
----------------
ORBITAL ENERGIES
----------------

  NO   OCC          E(Eh)            E(eV) 
   0   2.0000     -18.457583      -502.2564 
   1   2.0000     -18.454878      -502.1828 
   2   2.0000      -9.732906      -264.8458 
   3   2.0000      -9.722156      -264.5533 
   4   2.0000      -9.700129      -263.9539 
   5   2.0000      -0.681255       -18.5379 
   6   2.0000      -0.590875       -16.0785 
   7   2.0000      -0.511193       -13.9103 
   8   2.0000      -0.387328       -10.5397 
   9   2.0000      -0.244950        -6.6654 
  10   2.0000      -0.227176        -6.1818 
  11   2.0000      -0.183475        -4.9926 
  12   2.0000      -0.162200        -4.4137 
  13   2.0000      -0.144523        -3.9327 
  14   2.0000      -0.126368        -3.4386 
  15   2.0000      -0.094116        -2.5610 
  16   2.0000      -0.087527        -2.3817 
  17   2.0000       0.030248         0.8231 
  18   2.0000       0.040517         1.1025 
  19   2.0000       0.062017         1.6876 
  20   0.0000       0.196701         5.3525 
  21   0.0000       0.244079         6.6417 
  22   0.0000       0.251377         6.8403 
  23   0.0000       0.260213         7.0808 
  24   0.0000       0.264846         7.2068 
  25   0.0000       0.298707         8.1282 
  26   0.0000       0.364207         9.9106 
  27   0.0000       0.405574        11.0362 
  28   0.0000       0.472839        12.8666 
  29   0.0000       0.532910        14.5012 
  30   0.0000       0.558966        15.2102 
  31   0.0000       0.580168        15.7872 
  32   0.0000       0.620020        16.8716 
  33   0.0000       0.711075        19.3493 
  34   0.0000       0.728259        19.8169 
  35   0.0000       0.751751        20.4562 
  36   0.0000       0.769522        20.9398 
  37   0.0000       0.780178        21.2297 
  38   0.0000       0.788867        21.4662 
  39   0.0000       0.795968        21.6594 
  40   0.0000       0.822309        22.3762 
  41   0.0000       0.825121        22.4527 
  42   0.0000       0.832754        22.6604 
  43   0.0000       0.847083        23.0503 
  44   0.0000       0.869001        23.6467 
  45   0.0000       1.016409        27.6579 
  46   0.0000       1.056739        28.7553 
  47   0.0000       1.104841        30.0643 
  48   0.0000       1.111149        30.2359 
  49   0.0000       1.220528        33.2123 
  50   0.0000       1.244119        33.8542 
  51   0.0000       1.294818        35.2338 
  52   0.0000       1.328428        36.1484 
  53   0.0000       1.338369        36.4189 
  54   0.0000       1.437791        39.1243 
  55   0.0000       1.480397        40.2837 
  56   0.0000       1.569614        42.7114 
  57   0.0000       1.617280        44.0084 
  58   0.0000       1.645138        44.7665 
  59   0.0000       1.765343        48.0374 
  60   0.0000       1.813339        49.3435 
  61   0.0000       1.845899        50.2295 
  62   0.0000       1.879906        51.1548 
  63   0.0000       1.894289        51.5462 
  64   0.0000       1.897381        51.6304 
  65   0.0000       1.948391        53.0184 
  66   0.0000       1.952553        53.1317 
  67   0.0000       1.984134        53.9910 
  68   0.0000       1.993058        54.2339 
  69   0.0000       2.068846        56.2962 
  70   0.0000       2.112248        57.4772 
  71   0.0000       2.233435        60.7748 
  72   0.0000       2.262388        61.5627 
  73   0.0000       2.331691        63.4485 
  74   0.0000       2.418263        65.8043 
  75   0.0000       2.478668        67.4480 
  76   0.0000       2.510016        68.3010 
  77   0.0000       2.615790        71.1793 
  78   0.0000       2.654449        72.2312 
  79   0.0000       2.712780        73.8185 
  80   0.0000       2.825598        76.8884 
  81   0.0000       2.844516        77.4032 
  82   0.0000       2.848797        77.5197 
  83   0.0000       2.890393        78.6516 
  84   0.0000       2.933010        79.8112 
  85   0.0000       2.978862        81.0590 
  86   0.0000       3.042823        82.7994 
  87   0.0000       3.082929        83.8908 
  88   0.0000       3.102989        84.4366 
  89   0.0000       3.177518        86.4647 
  90   0.0000       3.296424        89.7003 
  91   0.0000       3.386606        92.1542 
  92   0.0000       3.526016        95.9478 
  93   0.0000       3.750773       102.0637 
  94   0.0000       3.813291       103.7649 

                    ********************************
                    * MULLIKEN POPULATION ANALYSIS *
                    ********************************

-----------------------
MULLIKEN ATOMIC CHARGES
-----------------------
   0 C :    0.007490
   1 C :    0.021000
   2 C :   -0.051707
   3 H :   -0.063901
   4 H :   -0.047971
   5 O :   -0.396006
   6 O :   -0.393366
   7 H :   -0.013093
   8 H :   -0.013930
   9 H :   -0.048515
Sum of atomic charges:   -1.0000000

--------------------------------
MULLIKEN REDUCED ORBITAL CHARGES
--------------------------------
  0 C s       :     2.954116  s :     2.954116
      pz      :     1.021905  p :     3.010628
      px      :     1.018861
      py      :     0.969862
      dz2     :     0.004192  d :     0.027766
      dxz     :     0.009274
      dyz     :     0.004370
      dx2y2   :     0.006571
      dxy     :     0.003360
  1 C s       :     2.981292  s :     2.981292
      pz      :     0.969769  p :     2.965955
      px      :     0.941277
      py      :     1.054908
      dz2     :     0.004101  d :     0.031753
      dxz     :     0.009146
      dyz     :     0.006853
      dx2y2   :     0.006484
      dxy     :     0.005168
  2 C s       :     3.057883  s :     3.057883
      pz      :     0.928484  p :     2.859634
      px      :     0.942563
      py      :     0.988588
      dz2     :     0.015440  d :     0.134190
      dxz     :     0.028595
      dyz     :     0.012263
      dx2y2   :     0.041004
      dxy     :     0.036888
  3 H s       :     1.041725  s :     1.041725
      pz      :     0.006514  p :     0.022176
      px      :     0.010411
      py      :     0.005251
  4 H s       :     1.024828  s :     1.024828
      pz      :     0.007578  p :     0.023143
      px      :     0.010256
      py      :     0.005309
  5 O s       :     3.737908  s :     3.737908
      pz      :     1.552379  p :     4.644846
      px      :     1.378471
      py      :     1.713996
      dz2     :     0.001646  d :     0.013253
      dxz     :     0.003425
      dyz     :     0.000639
      dx2y2   :     0.004118
      dxy     :     0.003425
  6 O s       :     3.738169  s :     3.738169
      pz      :     1.475645  p :     4.641614
      px      :     1.558277
      py      :     1.607692
      dz2     :     0.002306  d :     0.013583
      dxz     :     0.002938
      dyz     :     0.002342
      dx2y2   :     0.002310
      dxy     :     0.003687
  7 H s       :     0.988500  s :     0.988500
      pz      :     0.007972  p :     0.024593
      px      :     0.010825
      py      :     0.005796
  8 H s       :     0.989244  s :     0.989244
      pz      :     0.006658  p :     0.024685
      px      :     0.010149
      py      :     0.007878
  9 H s       :     1.023687  s :     1.023687
      pz      :     0.006216  p :     0.024828
      px      :     0.006617
      py      :     0.011995


                     *******************************
                     * LOEWDIN POPULATION ANALYSIS *
                     *******************************

----------------------
LOEWDIN ATOMIC CHARGES
----------------------
   0 C :   -0.068446
   1 C :   -0.097382
   2 C :   -0.093150
   3 H :   -0.007206
   4 H :    0.000334
   5 O :   -0.373126
   6 O :   -0.370412
   7 H :    0.010114
   8 H :    0.006903
   9 H :   -0.007629

-------------------------------
LOEWDIN REDUCED ORBITAL CHARGES
-------------------------------
  0 C s       :     2.826482  s :     2.826482
      pz      :     1.055220  p :     3.167606
      px      :     1.071764
      py      :     1.040622
      dz2     :     0.010117  d :     0.074359
      dxz     :     0.023547
      dyz     :     0.013649
      dx2y2   :     0.017996
      dxy     :     0.009050
  1 C s       :     2.866835  s :     2.866835
      pz      :     1.020534  p :     3.145317
      px      :     1.049853
      py      :     1.074930
      dz2     :     0.010100  d :     0.085230
      dxz     :     0.024531
      dyz     :     0.019206
      dx2y2   :     0.018158
      dxy     :     0.013235
  2 C s       :     2.858893  s :     2.858893
      pz      :     0.914102  p :     2.915104
      px      :     1.011853
      py      :     0.989150
      dz2     :     0.034129  d :     0.319154
      dxz     :     0.065370
      dyz     :     0.027773
      dx2y2   :     0.104067
      dxy     :     0.087814
  3 H s       :     0.937139  s :     0.937139
      pz      :     0.020299  p :     0.070067
      px      :     0.029330
      py      :     0.020438
  4 H s       :     0.930317  s :     0.930317
      pz      :     0.021894  p :     0.069349
      px      :     0.030562
      py      :     0.016894
  5 O s       :     3.581347  s :     3.581347
      pz      :     1.558752  p :     4.767386
      px      :     1.477508
      py      :     1.731126
      dz2     :     0.003429  d :     0.024393
      dxz     :     0.005432
      dyz     :     0.000864
      dx2y2   :     0.008112
      dxy     :     0.006555
  6 O s       :     3.576745  s :     3.576745
      pz      :     1.507566  p :     4.768718
      px      :     1.616400
      py      :     1.644752
      dz2     :     0.003265  d :     0.024949
      dxz     :     0.005938
      dyz     :     0.004537
      dx2y2   :     0.003789
      dxy     :     0.007420
  7 H s       :     0.920184  s :     0.920184
      pz      :     0.024685  p :     0.069702
      px      :     0.031051
      py      :     0.013966
  8 H s       :     0.920873  s :     0.920873
      pz      :     0.021480  p :     0.072224
      px      :     0.029831
      py      :     0.020913
  9 H s       :     0.936842  s :     0.936842
      pz      :     0.018502  p :     0.070787
      px      :     0.016333
      py      :     0.035951


                      *****************************
                      * MAYER POPULATION ANALYSIS *
                      *****************************

  NA   - Mulliken gross atomic population
  ZA   - Total nuclear charge
  QA   - Mulliken gross atomic charge
  VA   - Mayer's total valence
  BVA  - Mayer's bonded valence
  FA   - Mayer's free valence

  ATOM       NA         ZA         QA         VA         BVA        FA
  0 C      5.9925     6.0000     0.0075     4.0037     4.0037    -0.0000
  1 C      5.9790     6.0000     0.0210     3.8191     3.8191     0.0000
  2 C      6.0517     6.0000    -0.0517     4.6902     4.6902    -0.0000
  3 H      1.0639     1.0000    -0.0639     1.0220     1.0220    -0.0000
  4 H      1.0480     1.0000    -0.0480     0.9891     0.9891    -0.0000
  5 O      8.3960     8.0000    -0.3960     2.0735     2.0735     0.0000
  6 O      8.3934     8.0000    -0.3934     2.0637     2.0637    -0.0000
  7 H      1.0131     1.0000    -0.0131     0.9872     0.9872    -0.0000
  8 H      1.0139     1.0000    -0.0139     1.0382     1.0382    -0.0000
  9 H      1.0485     1.0000    -0.0485     0.9721     0.9721    -0.0000

  Mayer bond orders larger than 0.100000
B(  0-C ,  1-C ) :   1.1077 B(  0-C ,  7-H ) :   0.9668 B(  0-C ,  8-H ) :   0.9529 
B(  0-C ,  9-H ) :   0.9568 B(  1-C ,  2-C ) :   0.9152 B(  1-C ,  3-H ) :   0.9180 
B(  1-C ,  4-H ) :   0.9179 B(  2-C ,  5-O ) :   1.8720 B(  2-C ,  6-O ) :   1.8445 
B(  5-O ,  6-O ) :   0.1400 

-------
TIMINGS
-------

Total SCF time: 0 days 0 hours 0 min 2 sec 

Total time                  ....       2.412 sec
Sum of individual times     ....       2.296 sec  ( 95.2%)

Fock matrix formation       ....       1.860 sec  ( 77.1%)
  Split-RI-J                ....       0.412 sec  ( 22.2% of F)
  XC integration            ....       1.426 sec  ( 76.7% of F)
    Basis function eval.    ....       0.581 sec  ( 40.7% of XC)
    Density eval.           ....       0.275 sec  ( 19.3% of XC)
    XC-Functional eval.     ....       0.183 sec  ( 12.9% of XC)
    XC-Potential eval.      ....       0.274 sec  ( 19.2% of XC)
Diagonalization             ....       0.017 sec  (  0.7%)
Density matrix formation    ....       0.002 sec  (  0.1%)
Population analysis         ....       0.004 sec  (  0.2%)
Initial guess               ....       0.048 sec  (  2.0%)
Orbital Transformation      ....       0.000 sec  (  0.0%)
Orbital Orthonormalization  ....       0.000 sec  (  0.0%)
DIIS solution               ....       0.014 sec  (  0.6%)
SOSCF solution              ....       0.020 sec  (  0.8%)
Grid generation             ....       0.331 sec  ( 13.7%)

Maximum memory used throughout the entire SCF-calculation: 14.0 MB


-------------------------------------------------------------------------------
                          DFT DISPERSION CORRECTION                            
                                                                               
                              DFTD3 V3.1  Rev 1                                
                          USING Becke-Johnson damping                          
-------------------------------------------------------------------------------
The PBE functional is recognized
Active option DFTDOPT                   ...         4   

molecular C6(AA) [au] = 865.578320 


            DFT-D V3
 parameters
 s6 scaling factor         :     1.0000 
 a1 scaling factor         :     0.4289 
 s8 scaling factor         :     0.7875 
 a2 scaling factor         :     4.4407 
 ad hoc parameters k1-k3   :    16.0000     1.3333    -4.0000 

 Edisp/kcal,au: -4.109431472604  -0.006548795204 
 E6   /kcal   :  -2.939816262 
 E8   /kcal   :  -1.169615211 
 % E8         :  28.461728066 

-------------------------   ----------------
Dispersion correction           -0.006548795
-------------------------   ----------------


-------------------------   --------------------
FINAL SINGLE POINT ENERGY      -267.308652624551
-------------------------   --------------------


                            ***************************************
                            *     ORCA property calculations      *
                            ***************************************

                                    ---------------------
                                    Active property flags
                                    ---------------------
   (+) Dipole Moment


------------------------------------------------------------------------------
                       ORCA ELECTRIC PROPERTIES CALCULATION
------------------------------------------------------------------------------

Dipole Moment Calculation                       ... on
Quadrupole Moment Calculation                   ... off
Polarizability Calculation                      ... off
GBWName                                         ... SVP_PBE_A_wt_dlpno_neg.gbw
Electron density file                           ... SVP_PBE_A_wt_dlpno_neg.scfp
The origin for moment calculation is the CENTER OF MASS  = (-4.216031,  1.818388 12.076503)

-------------
DIPOLE MOMENT
-------------
                                X             Y             Z
Electronic contribution:      1.75016       5.91134       0.61778
Nuclear contribution   :     -2.24498      -7.51881      -0.57245
                        -----------------------------------------
Total Dipole Moment    :     -0.49482      -1.60747       0.04533
                        -----------------------------------------
Magnitude (a.u.)       :      1.68251
Magnitude (Debye)      :      4.27661



--------------------
Rotational spectrum 
--------------------
 
Rotational constants in cm-1:     0.305589     0.135336     0.107479 
Rotational constants in MHz :  9161.317320  4057.276612  3222.126231 

 Dipole components along the rotational axes: 
x,y,z [a.u.] :    -1.641425     0.293428     0.224659 
x,y,z [Debye]:    -4.172170     0.745834     0.571038 

 

Timings for individual modules:

Sum of individual times         ...        6.184 sec (=   0.103 min)
GTO integral calculation        ...        2.104 sec (=   0.035 min)  34.0 %
SCF iterations                  ...        4.080 sec (=   0.068 min)  66.0 %
                             ****ORCA TERMINATED NORMALLY****
TOTAL RUN TIME: 0 days 0 hours 0 minutes 6 seconds 768 msec
