
                                        *****************
                                        * O   R   C   A *
                                        *****************

                                            #,                                       
                                            ###                                      
                                            ####                                     
                                            #####                                    
                                            ######                                   
                                           ########,                                 
                                     ,,################,,,,,                         
                               ,,#################################,,                 
                          ,,##########################################,,             
                       ,#########################################, ''#####,          
                    ,#############################################,,   '####,        
                  ,##################################################,,,,####,       
                ,###########''''           ''''###############################       
              ,#####''   ,,,,##########,,,,          '''####'''          '####       
            ,##' ,,,,###########################,,,                        '##       
           ' ,,###''''                  '''############,,,                           
         ,,##''                                '''############,,,,        ,,,,,,###''
      ,#''                                            '''#######################'''  
     '                                                          ''''####''''         
             ,#######,   #######,   ,#######,      ##                                
            ,#'     '#,  ##    ##  ,#'     '#,    #''#        ######   ,####,        
            ##       ##  ##   ,#'  ##            #'  '#       #        #'  '#        
            ##       ##  #######   ##           ,######,      #####,   #    #        
            '#,     ,#'  ##    ##  '#,     ,#' ,#      #,         ##   #,  ,#        
             '#######'   ##     ##  '#######'  #'      '#     #####' # '####'        



                  #######################################################
                  #                        -***-                        #
                  #          Department of theory and spectroscopy      #
                  #    Directorship and core code : Frank Neese         #
                  #        Max Planck Institute fuer Kohlenforschung    #
                  #                Kaiser Wilhelm Platz 1               #
                  #                 D-45470 Muelheim/Ruhr               #
                  #                      Germany                        #
                  #                                                     #
                  #                  All rights reserved                #
                  #                        -***-                        #
                  #######################################################


                         Program Version 5.0.0 -  RELEASE  -
                                (SVN: $Rev: 19529$)
                ($Date: 2021-06-28 11:36:33 +0200 (Mo, 28 Jun 2021) $)


 With contributions from (in alphabetic order):
   Daniel Aravena         : Magnetic Suceptibility
   Michael Atanasov       : Ab Initio Ligand Field Theory (pilot matlab implementation)
   Alexander A. Auer      : GIAO ZORA, VPT2 properties, NMR spectrum
   Ute Becker             : Parallelization
   Giovanni Bistoni       : ED, misc. LED, open-shell LED, HFLD
   Martin Brehm           : Molecular dynamics
   Dmytro Bykov           : SCF Hessian
   Vijay G. Chilkuri      : MRCI spin determinant printing, contributions to CSF-ICE
   Dipayan Datta          : RHF DLPNO-CCSD density
   Achintya Kumar Dutta   : EOM-CC, STEOM-CC
   Dmitry Ganyushin       : Spin-Orbit,Spin-Spin,Magnetic field MRCI
   Miquel Garcia          : C-PCM Hessian, Gaussian charge scheme
   Yang Guo               : DLPNO-NEVPT2, F12-NEVPT2, CIM, IAO-localization
   Andreas Hansen         : Spin unrestricted coupled pair/coupled cluster methods
   Benjamin Helmich-Paris : MC-RPA, TRAH-SCF, COSX integrals
   Lee Huntington         : MR-EOM, pCC
   Robert Izsak           : Overlap fitted RIJCOSX, COSX-SCS-MP3, EOM
   Marcus Kettner         : VPT2
   Christian Kollmar      : KDIIS, OOCD, Brueckner-CCSD(T), CCSD density, CASPT2, CASPT2-K
   Simone Kossmann        : Meta GGA functionals, TD-DFT gradient, OOMP2, MP2 Hessian
   Martin Krupicka        : Initial AUTO-CI
   Lucas Lang             : DCDCAS
   Marvin Lechner         : AUTO-CI (C++ implementation), FIC-MRCC
   Dagmar Lenk            : GEPOL surface, SMD
   Dimitrios Liakos       : Extrapolation schemes; Compound Job, initial MDCI parallelization
   Dimitrios Manganas     : Further ROCIS development; embedding schemes
   Dimitrios Pantazis     : SARC Basis sets
   Anastasios Papadopoulos: AUTO-CI, single reference methods and gradients
   Taras Petrenko         : DFT Hessian,TD-DFT gradient, ASA, ECA, R-Raman, ABS, FL, XAS/XES, NRVS
   Peter Pinski           : DLPNO-MP2, DLPNO-MP2 Gradient
   Christoph Reimann      : Effective Core Potentials
   Marius Retegan         : Local ZFS, SOC
   Christoph Riplinger    : Optimizer, TS searches, QM/MM, DLPNO-CCSD(T), (RO)-DLPNO pert. Triples
   Tobias Risthaus        : Range-separated hybrids, TD-DFT gradient, RPA, STAB
   Michael Roemelt        : Original ROCIS implementation
   Masaaki Saitow         : Open-shell DLPNO-CCSD energy and density
   Barbara Sandhoefer     : DKH picture change effects
   Avijit Sen             : IP-ROCIS
   Kantharuban Sivalingam : CASSCF convergence, NEVPT2, FIC-MRCI
   Bernardo de Souza      : ESD, SOC TD-DFT
   Georgi Stoychev        : AutoAux, RI-MP2 NMR
   Willem Van den Heuvel  : Paramagnetic NMR
   Boris Wezisla          : Elementary symmetry handling
   Frank Wennmohs         : Technical directorship


 We gratefully acknowledge several colleagues who have allowed us to
 interface, adapt or use parts of their codes:
   Stefan Grimme, W. Hujo, H. Kruse, P. Pracht,  : VdW corrections, initial TS optimization,
                  C. Bannwarth, S. Ehlert          DFT functionals, gCP, sTDA/sTD-DF
   Ed Valeev, F. Pavosevic, A. Kumar             : LibInt (2-el integral package), F12 methods
   Garnet Chan, S. Sharma, J. Yang, R. Olivares  : DMRG
   Ulf Ekstrom                                   : XCFun DFT Library
   Mihaly Kallay                                 : mrcc  (arbitrary order and MRCC methods)
   Jiri Pittner, Ondrej Demel                    : Mk-CCSD
   Frank Weinhold                                : gennbo (NPA and NBO analysis)
   Christopher J. Cramer and Donald G. Truhlar   : smd solvation model
   Lars Goerigk                                  : TD-DFT with DH, B97 family of functionals
   V. Asgeirsson, H. Jonsson                     : NEB implementation
   FAccTs GmbH                                   : IRC, NEB, NEB-TS, DLPNO-Multilevel, CI-OPT
                                                   MM, QMMM, 2- and 3-layer-ONIOM, Crystal-QMMM,
                                                   LR-CPCM, SF, NACMEs, symmetry and pop. for TD-DFT,
                                                   nearIR, NL-DFT gradient (VV10), updates on ESD,
                                                   ML-optimized integration grids
   S Lehtola, MJT Oliveira, MAL Marques          : LibXC Library
   Liviu Ungur et al                             : ANISO software


 Your calculation uses the libint2 library for the computation of 2-el integrals
 For citations please refer to: http://libint.valeyev.net

 Your ORCA version has been built with support for libXC version: 5.1.0
 For citations please refer to: https://tddft.org/programs/libxc/

 This ORCA versions uses:
   CBLAS   interface :  Fast vector & matrix operations
   LAPACKE interface :  Fast linear algebra routines
   SCALAPACK package :  Parallel linear algebra routines
   Shared memory     :  Shared parallel matrices
   BLAS/LAPACK       :  OpenBLAS 0.3.15  USE64BITINT DYNAMIC_ARCH NO_AFFINITY Haswell SINGLE_THREADED
        Core in use  :  Haswell
   Copyright (c) 2011-2014, The OpenBLAS Project


Your calculation utilizes the atom-pairwise dispersion correction
with the zero-damping scheme (D30)
Cite in your paper:
S.Grimme, J.Antony, S.Ehrlich and H.Krieg, J.Chem.Phys., 132, (2010), 154104 
   

XCFun DFT library Copyright 2009-2010 Ulf Ekstrom and contributors.
See http://admol.org/xcfun for more information.
This is free software; see the source code for copying conditions.
There is ABSOLUTELY NO WARRANTY; not even for MERCHANTABILITY or FITNESS FOR A PARTICULAR PURPOSE.
For details see the documentation.
Scientific users of this library should cite U. Ekstrom, L. Visscher, R. Bast, A. J. Thorvaldsen and K. Ruud;
J.Chem.Theor.Comp. 2010, DOI: 10.1021/ct100117s
XCFun Version 0.99 

================================================================================

----- Orbital basis set information -----
Your calculation utilizes the basis: def2-SVPD
   F. Weigend and R. Ahlrichs, Phys. Chem. Chem. Phys. 7, 3297 (2005).
   D. Rappoport and F. Furche, J. Chem. Phys. 133 134105 (2010).

----- AuxJ basis set information -----
Your calculation utilizes the auxiliary basis: def2/J
   F. Weigend, Phys. Chem. Chem. Phys. 8, 1057 (2006).

================================================================================
                                        WARNINGS
                       Please study these warnings very carefully!
================================================================================


INFO   : the flag for use of the SHARK integral package has been found!

================================================================================
                                       INPUT FILE
================================================================================
NAME = C2_wt_wb97_typm1_pos.com
|  1> !wB97X-D3 RIJCOSX def2-SVPD def2/J TightSCF 
|  2> *xyz 0 1 
|  3> C          3.90595        2.81985       -3.75292
|  4> N          5.29562        3.13151       -4.10533
|  5> C          5.70862        3.46889       -5.32419
|  6> C          6.90470        3.03895       -5.71708
|  7> N          4.98188        4.29357       -6.09746
|  8> H          5.00055        4.10131       -7.08776
|  9> H          4.08469        4.59690       -5.73965
| 10> H          5.96336        2.52611       -3.64239
| 11> H          7.04716        2.06686       -5.47360
| 12> H          7.19815        3.30799       -6.64523
| 13> H          3.24866        3.48801       -4.26909
| 14> H          3.77188        2.93227       -2.69732
| 15> H          3.68381        1.81198       -4.03533
| 16> *
| 17> 
| 18> %MaxCore 64000
| 19> 
| 20> %pal nprocs 18
| 21> end  
| 22> 
| 23> %scf
| 24>   MaxIter 150
| 25> end
| 26> 
| 27> 
| 28>                          ****END OF INPUT****
================================================================================

                       ****************************
                       * Single Point Calculation *
                       ****************************

---------------------------------
CARTESIAN COORDINATES (ANGSTROEM)
---------------------------------
  C      3.905950    2.819850   -3.752920
  N      5.295620    3.131510   -4.105330
  C      5.708620    3.468890   -5.324190
  C      6.904700    3.038950   -5.717080
  N      4.981880    4.293570   -6.097460
  H      5.000550    4.101310   -7.087760
  H      4.084690    4.596900   -5.739650
  H      5.963360    2.526110   -3.642390
  H      7.047160    2.066860   -5.473600
  H      7.198150    3.307990   -6.645230
  H      3.248660    3.488010   -4.269090
  H      3.771880    2.932270   -2.697320
  H      3.683810    1.811980   -4.035330

----------------------------
CARTESIAN COORDINATES (A.U.)
----------------------------
  NO LB      ZA    FRAG     MASS         X           Y           Z
   0 C     6.0000    0    12.011    7.381176    5.328744   -7.091991
   1 N     7.0000    0    14.007   10.007272    5.917696   -7.757949
   2 C     6.0000    0    12.011   10.787728    6.555252  -10.061261
   3 C     6.0000    0    12.011   13.047992    5.742783  -10.803715
   4 N     7.0000    0    14.007    9.414389    8.113671  -11.522530
   5 H     1.0000    0     1.008    9.449670    7.750353  -13.393925
   6 H     1.0000    0     1.008    7.718945    8.686882  -10.846367
   7 H     1.0000    0     1.008   11.269117    4.773656   -6.883120
   8 H     1.0000    0     1.008   13.317202    3.905799  -10.343605
   9 H     1.0000    0     1.008   13.602532    6.251195  -12.557665
  10 H     1.0000    0     1.008    6.139078    6.591384   -8.067411
  11 H     1.0000    0     1.008    7.127820    5.541187   -5.097196
  12 H     1.0000    0     1.008    6.961392    3.424146   -7.625669

--------------------------------
INTERNAL COORDINATES (ANGSTROEM)
--------------------------------
 C      0   0   0     0.000000000000     0.00000000     0.00000000
 N      1   0   0     1.467142621765     0.00000000     0.00000000
 C      2   1   0     1.330418717547   124.60848250     0.00000000
 C      3   2   1     1.330345189077   117.88568818   216.04039772
 N      3   2   1     1.343947403324   120.98879030    40.55692244
 H      5   3   2     1.008963114539   115.96332282   215.01866637
 H      5   3   2     1.012416406969   117.36806711   356.14703280
 H      2   1   3     1.013261719005   112.80142721   219.48070045
 H      4   3   2     1.012193820422   111.46134138    44.03787504
 H      4   3   2     1.009929624578   116.52326395   180.07681422
 H      1   2   3     1.069999718972   109.47095925   320.51906472
 H      1   2   3     1.070002047334   109.47115738   200.51941491
 H      1   2   3     1.070001647008   109.47154101    80.51927171

---------------------------
INTERNAL COORDINATES (A.U.)
---------------------------
 C      0   0   0     0.000000000000     0.00000000     0.00000000
 N      1   0   0     2.772497754539     0.00000000     0.00000000
 C      2   1   0     2.514127019607   124.60848250     0.00000000
 C      3   2   1     2.513988070935   117.88568818   216.04039772
 N      3   2   1     2.539692530676   120.98879030    40.55692244
 H      5   3   2     1.906663965707   115.96332282   215.01866637
 H      5   3   2     1.913189742660   117.36806711   356.14703280
 H      2   1   3     1.914787150905   112.80142721   219.48070045
 H      4   3   2     1.912769115045   111.46134138    44.03787504
 H      4   3   2     1.908490404986   116.52326395   180.07681422
 H      1   2   3     2.022006432230   109.47095925   320.51906472
 H      1   2   3     2.022010832197   109.47115738   200.51941491
 H      1   2   3     2.022010075690   109.47154101    80.51927171

---------------------
BASIS SET INFORMATION
---------------------
There are 3 groups of distinct atoms

 Group   1 Type C   : 8s4p2d contracted to 4s2p2d pattern {5111/31/11}
 Group   2 Type N   : 8s4p2d contracted to 4s2p2d pattern {5111/31/11}
 Group   3 Type H   : 4s2p contracted to 2s2p pattern {31/11}

Atom   0C    basis set group =>   1
Atom   1N    basis set group =>   2
Atom   2C    basis set group =>   1
Atom   3C    basis set group =>   1
Atom   4N    basis set group =>   2
Atom   5H    basis set group =>   3
Atom   6H    basis set group =>   3
Atom   7H    basis set group =>   3
Atom   8H    basis set group =>   3
Atom   9H    basis set group =>   3
Atom  10H    basis set group =>   3
Atom  11H    basis set group =>   3
Atom  12H    basis set group =>   3
---------------------------------
AUXILIARY/J BASIS SET INFORMATION
---------------------------------
There are 3 groups of distinct atoms

 Group   1 Type C   : 12s5p4d2f1g contracted to 6s4p3d1f1g pattern {711111/2111/211/2/1}
 Group   2 Type N   : 12s5p4d2f1g contracted to 6s4p3d1f1g pattern {711111/2111/211/2/1}
 Group   3 Type H   : 5s2p1d contracted to 3s1p1d pattern {311/2/1}

Atom   0C    basis set group =>   1
Atom   1N    basis set group =>   2
Atom   2C    basis set group =>   1
Atom   3C    basis set group =>   1
Atom   4N    basis set group =>   2
Atom   5H    basis set group =>   3
Atom   6H    basis set group =>   3
Atom   7H    basis set group =>   3
Atom   8H    basis set group =>   3
Atom   9H    basis set group =>   3
Atom  10H    basis set group =>   3
Atom  11H    basis set group =>   3
Atom  12H    basis set group =>   3


           ************************************************************
           *        Program running with 18 parallel MPI-processes    *
           *              working on a common directory               *
           ************************************************************
------------------------------------------------------------------------------
                           ORCA GTO INTEGRAL CALCULATION
                           -- RI-GTO INTEGRALS CHOSEN --
------------------------------------------------------------------------------
------------------------------------------------------------------------------
                   ___                                                        
                  /   \      - P O W E R E D   B Y -                         
                 /     \                                                     
                 |  |  |   _    _      __       _____    __    __             
                 |  |  |  | |  | |    /  \     |  _  \  |  |  /  |          
                  \  \/   | |  | |   /    \    | | | |  |  | /  /          
                 / \  \   | |__| |  /  /\  \   | |_| |  |  |/  /          
                |  |  |   |  __  | /  /__\  \  |    /   |      \           
                |  |  |   | |  | | |   __   |  |    \   |  |\   \          
                \     /   | |  | | |  |  |  |  | |\  \  |  | \   \       
                 \___/    |_|  |_| |__|  |__|  |_| \__\ |__|  \__/        
                                                                              
                      - O R C A' S   B I G   F R I E N D -                    
                                      &                                       
                       - I N T E G R A L  F E E D E R -                       
                                                                              
 v1 FN, 2020, v2 2021                                                         
------------------------------------------------------------------------------


Reading SHARK input file C2_wt_wb97_typm1_pos.SHARKINP.tmp ... ok
----------------------
SHARK INTEGRAL PACKAGE
----------------------

Number of atoms                             ...     13
Number of basis functions                   ...    164
Number of shells                            ...     72
Maximum angular momentum                    ...      2
Integral batch strategy                     ... SHARK/LIBINT Hybrid
RI-J (if used) integral strategy            ... SPLIT-RIJ (Revised 2003 algorithm where possible)
Printlevel                                  ...      1
Contraction scheme used                     ... SEGMENTED contraction
Coulomb Range Separation                    ... NOT USED
Exchange Range Separation                   ... Long Range
   Mu parameter                             ...  0.250000
   Scaling (regular/separated)              ...  0.195728  0.804272
Finite Nucleus Model                        ... NOT USED
Auxiliary Coulomb fitting basis             ... AVAILABLE
   # of basis functions in Aux-J            ...    333
   # of shells in Aux-J                     ...    115
   Maximum angular momentum in Aux-J        ...      4
Auxiliary J/K fitting basis                 ... NOT available
Auxiliary Correlation fitting basis         ... NOT available
Auxiliary 'external' fitting basis          ... NOT available
Integral threshold                          ...     2.500000e-11
Primitive cut-off                           ...     2.500000e-12
Primitive pair pre-selection threshold      ...     2.500000e-12

Calculating pre-screening integrals         ... done (  0.0 sec) Dimension = 72
Organizing shell pair data                  ... done (  0.0 sec)
Shell pair information
Total number of shell pairs                 ...      2628
Shell pairs after pre-screening             ...      2605
Total number of primitive shell pairs       ...      7110
Primitive shell pairs kept                  ...      6024
          la=0 lb=0:    658 shell pairs
          la=1 lb=0:    926 shell pairs
          la=1 lb=1:    348 shell pairs
          la=2 lb=0:    358 shell pairs
          la=2 lb=1:    260 shell pairs
          la=2 lb=2:     55 shell pairs

Calculating one electron integrals          ... done (  0.0 sec)
Calculating RI/J V-Matrix + Cholesky decomp.... done (  0.0 sec)
Calculating Nuclear repulsion               ... done (  0.0 sec) ENN=    185.257918310392 Eh

SHARK setup successfully completed in   0.2 seconds

Maximum memory used throughout the entire GTOINT-calculation: 8.9 MB


           ************************************************************
           *        Program running with 18 parallel MPI-processes    *
           *              working on a common directory               *
           ************************************************************
-------------------------------------------------------------------------------
                                 ORCA SCF
-------------------------------------------------------------------------------

------------
SCF SETTINGS
------------
Hamiltonian:
 Density Functional     Method          .... DFT(GTOs)
 Exchange Functional    Exchange        .... WB97X-D3
 Correlation Functional Correlation     .... WB97X-D3
 Gradients option       PostSCFGGA      .... off
 Hybrid DFT is turned on
   Fraction HF Exchange ScalHFX         ....  0.195728
   Scaling of DF-GGA-X  ScalDFX         ....  0.000000
   Scaling of DF-GGA-C  ScalDFC         ....  1.000000
   Scaling of DF-LDA-C  ScalLDAC        ....  1.000000
   Perturbative correction              ....  0.000000
   Density functional embedding theory  .... OFF
 Long-range corrected/Screened/Range-Separated Hybrid DFT is turned on
   Amount of maximum screened exact exchange              ....  0.804272
   Range separation parameter mu (erf(mu*r12)/r12)        ....  0.250000
 RI-approximation to the Coulomb term is turned on
   Number of AuxJ basis functions       .... 333
   RIJ-COSX (HFX calculated with COS-X)).... on


General Settings:
 Integral files         IntName         .... C2_wt_wb97_typm1_pos
 Hartree-Fock type      HFTyp           .... RHF
 Total Charge           Charge          ....    0
 Multiplicity           Mult            ....    1
 Number of Electrons    NEL             ....   40
 Basis Dimension        Dim             ....  164
 Nuclear Repulsion      ENuc            ....    185.2579183104 Eh

Convergence Acceleration:
 DIIS                   CNVDIIS         .... on
   Start iteration      DIISMaxIt       ....    12
   Startup error        DIISStart       ....  0.200000
   # of expansion vecs  DIISMaxEq       ....     5
   Bias factor          DIISBfac        ....   1.050
   Max. coefficient     DIISMaxC        ....  10.000
 Trust-Rad. Augm. Hess. CNVTRAH         .... auto
   Auto Start mean grad. ratio tolernc. ....  1.125000
   Auto Start start iteration           ....    20
   Auto Start num. interpolation iter.  ....    10
   Max. Number of Micro iterations      ....    16
   Max. Number of Macro iterations      .... Maxiter - #DIIS iter
   Number of Davidson start vectors     ....     2
   Converg. threshold I  (grad. norm)   ....   1.000e-05
   Converg. threshold II (energy diff.) ....   1.000e-08
   Grad. Scal. Fac. for Micro threshold ....   0.100
   Minimum threshold for Micro iter.    ....   0.010
   NR start threshold (gradient norm)   ....   0.001
   Initial trust radius                 ....   0.400
   Minimum AH scaling param. (alpha)    ....   1.000
   Maximum AH scaling param. (alpha)    .... 1000.000
   Orbital update algorithm             .... Taylor
   White noise on init. David. guess    .... on
   Maximum white noise                  ....   0.010
   Quad. conv. algorithm                .... NR
 SOSCF                  CNVSOSCF        .... on
   Start iteration      SOSCFMaxIt      ....   150
   Startup grad/error   SOSCFStart      ....  0.003300
 Level Shifting         CNVShift        .... on
   Level shift para.    LevelShift      ....    0.2500
   Turn off err/grad.   ShiftErr        ....    0.0010
 Zerner damping         CNVZerner       .... off
 Static damping         CNVDamp         .... on
   Fraction old density DampFac         ....    0.7000
   Max. Damping (<1)    DampMax         ....    0.9800
   Min. Damping (>=0)   DampMin         ....    0.0000
   Turn off err/grad.   DampErr         ....    0.1000
 Fernandez-Rico         CNVRico         .... off

SCF Procedure:
 Maximum # iterations   MaxIter         ....   150
 SCF integral mode      SCFMode         .... Direct
   Integral package                     .... SHARK and LIBINT hybrid scheme
 Reset frequency        DirectResetFreq ....    20
 Integral Threshold     Thresh          ....  2.500e-11 Eh
 Primitive CutOff       TCut            ....  2.500e-12 Eh

Convergence Tolerance:
 Convergence Check Mode ConvCheckMode   .... Total+1el-Energy
 Convergence forced     ConvForced      .... 0
 Energy Change          TolE            ....  1.000e-08 Eh
 1-El. energy change                    ....  1.000e-05 Eh
 Orbital Gradient       TolG            ....  1.000e-05
 Orbital Rotation angle TolX            ....  1.000e-05
 DIIS Error             TolErr          ....  5.000e-07


Diagonalization of the overlap matrix:
Smallest eigenvalue                        ... 9.813e-05
Time for diagonalization                   ...    0.008 sec
Threshold for overlap eigenvalues          ... 1.000e-08
Number of eigenvalues below threshold      ... 0
Time for construction of square roots      ...    0.012 sec
Total time needed                          ...    0.021 sec

Time for model grid setup =    0.044 sec

------------------------------
INITIAL GUESS: MODEL POTENTIAL
------------------------------
Loading Hartree-Fock densities                     ... done
Calculating cut-offs                               ... done
Initializing the effective Hamiltonian             ... done
Setting up the integral package (SHARK)            ... done
Starting the Coulomb interaction                   ... done (   0.0 sec)
Reading the grid                                   ... done
Mapping shells                                     ... done
Starting the XC term evaluation                    ... done (   0.0 sec)
  promolecular density results
     # of electrons  =     39.998622403
     EX              =    -30.866505587
     EC              =     -1.313664315
     EX+EC           =    -32.180169902
Transforming the Hamiltonian                       ... done (   0.0 sec)
Diagonalizing the Hamiltonian                      ... done (   0.0 sec)
Back transforming the eigenvectors                 ... done (   0.0 sec)
Now organizing SCF variables                       ... done
                      ------------------
                      INITIAL GUESS DONE (   0.1 sec)
                      ------------------
-------------------
DFT GRID GENERATION
-------------------

General Integration Accuracy     IntAcc      ... 4.388
Radial Grid Type                 RadialGrid  ... OptM3 with GC (2021)
Angular Grid (max. ang.)         AngularGrid ... 4 (Lebedev-302)
Angular grid pruning method      GridPruning ... 4 (adaptive)
Weight generation scheme         WeightScheme... Becke
Basis function cutoff            BFCut       ... 1.0000e-11
Integration weight cutoff        WCut        ... 1.0000e-14
Angular grids for H and He will be reduced by one unit
Partially contracted basis set               ... off
Rotationally invariant grid construction     ... off

Total number of grid points                  ...    57651
Total number of batches                      ...      907
Average number of points per batch           ...       63
Average number of grid points per atom       ...     4435
Time for grid setup =    0.280 sec

--------------------
COSX GRID GENERATION
--------------------

GRIDX 1
-------
General Integration Accuracy     IntAcc      ... 3.816
Radial Grid Type                 RadialGrid  ... OptM3 with GC (2021)
Angular Grid (max. ang.)         AngularGrid ... 1 (Lebedev-50)
Angular grid pruning method      GridPruning ... 4 (adaptive)
Weight generation scheme         WeightScheme... Becke
Basis function cutoff            BFCut       ... 1.0000e-11
Integration weight cutoff        WCut        ... 1.0000e-14
Angular grids for H and He will be reduced by one unit
Partially contracted basis set               ... on
Rotationally invariant grid construction     ... off

Total number of grid points                  ...     7188
Total number of batches                      ...      120
Average number of points per batch           ...       59
Average number of grid points per atom       ...      553
UseSFitting                                  ... on

GRIDX 2
-------
General Integration Accuracy     IntAcc      ... 4.020
Radial Grid Type                 RadialGrid  ... OptM3 with GC (2021)
Angular Grid (max. ang.)         AngularGrid ... 2 (Lebedev-110)
Angular grid pruning method      GridPruning ... 4 (adaptive)
Weight generation scheme         WeightScheme... Becke
Basis function cutoff            BFCut       ... 1.0000e-11
Integration weight cutoff        WCut        ... 1.0000e-14
Angular grids for H and He will be reduced by one unit
Partially contracted basis set               ... on
Rotationally invariant grid construction     ... off

Total number of grid points                  ...    15919
Total number of batches                      ...      255
Average number of points per batch           ...       62
Average number of grid points per atom       ...     1225
UseSFitting                                  ... on

GRIDX 3
-------
General Integration Accuracy     IntAcc      ... 4.338
Radial Grid Type                 RadialGrid  ... OptM3 with GC (2021)
Angular Grid (max. ang.)         AngularGrid ... 3 (Lebedev-194)
Angular grid pruning method      GridPruning ... 4 (adaptive)
Weight generation scheme         WeightScheme... Becke
Basis function cutoff            BFCut       ... 1.0000e-11
Integration weight cutoff        WCut        ... 1.0000e-14
Angular grids for H and He will be reduced by one unit
Partially contracted basis set               ... on
Rotationally invariant grid construction     ... off

Total number of grid points                  ...    36547
Total number of batches                      ...      579
Average number of points per batch           ...       63
Average number of grid points per atom       ...     2811
UseSFitting                                  ... on

Time for X-Grid setup             =    0.208 sec

--------------
SCF ITERATIONS
--------------
ITER       Energy         Delta-E        Max-DP      RMS-DP      [F,P]     Damp
               ***  Starting incremental Fock matrix formation  ***
  0   -228.1440390472   0.000000000000 0.23360908  0.00420131  0.2214402 0.7000
  1   -228.2337901495  -0.089751102282 0.17671501  0.00305735  0.1327028 0.7000
                               ***Turning on DIIS***
  2   -228.2803575912  -0.046567441725 0.38758378  0.00633963  0.0671392 0.0000
  3   -228.3533104959  -0.072952904646 0.08833259  0.00187863  0.0551501 0.0000
  4   -228.3650290824  -0.011718586564 0.02203688  0.00037998  0.0093511 0.0000
                      *** Initiating the SOSCF procedure ***
                           *** Shutting down DIIS ***
                      *** Re-Reading the Fockian *** 
                      *** Removing any level shift *** 
ITER      Energy       Delta-E        Grad      Rot      Max-DP    RMS-DP
  5   -228.36532740  -0.0002983155  0.000886  0.000886  0.003600  0.000117
               *** Restarting incremental Fock matrix formation ***
  6   -228.36538920  -0.0000617979  0.000427  0.001071  0.004790  0.000113
  7   -228.36539944  -0.0000102460  0.000344  0.001433  0.002977  0.000072
  8   -228.36540184  -0.0000023945  0.000119  0.000241  0.000809  0.000022
  9   -228.36540219  -0.0000003577  0.000023  0.000048  0.000237  0.000008
 10   -228.36540223  -0.0000000359  0.000009  0.000032  0.000081  0.000002
                  ***Gradient check signals convergence***
              ***Rediagonalizing the Fockian in SOSCF/NRSCF***

               *****************************************************
               *                     SUCCESS                       *
               *           SCF CONVERGED AFTER  11 CYCLES          *
               *****************************************************

Old exchange energy                            =    -10.485749158 Eh
New exchange energy                            =    -10.485769804 Eh
Exchange energy change after final integration =     -0.000020645 Eh
Total energy after final integration           =   -228.365422882 Eh
Final COS-X integration done in                =     0.859 sec

----------------
TOTAL SCF ENERGY
----------------

Total Energy       :         -228.36542288 Eh           -6214.13908 eV

Components:
Nuclear Repulsion  :          185.25791831 Eh            5041.12424 eV
Electronic Energy  :         -413.62334119 Eh          -11255.26332 eV
One Electron Energy:         -673.93202708 Eh          -18338.62277 eV
Two Electron Energy:          260.30868589 Eh            7083.35945 eV
Max COSX asymmetry :            0.00000254 Eh               0.00007 eV

Virial components:
Potential Energy   :         -454.71775194 Eh          -12373.49909 eV
Kinetic Energy     :          226.35232906 Eh            6159.36001 eV
Virial Ratio       :            2.00889363


DFT components:
N(Alpha)           :       19.999979444401 electrons
N(Beta)            :       19.999979444401 electrons
N(Total)           :       39.999958888803 electrons
E(XC)              :      -22.653856288427 Eh       
DFET-embed. en.    :        0.000000000000 Eh       

---------------
SCF CONVERGENCE
---------------

  Last Energy change         ...   -6.4648e-09  Tolerance :   1.0000e-08
  Last MAX-Density change    ...    1.5266e-15  Tolerance :   1.0000e-07
  Last RMS-Density change    ...    3.8111e-17  Tolerance :   5.0000e-09
  Last Orbital Gradient      ...    2.4033e-06  Tolerance :   1.0000e-05
  Last Orbital Rotation      ...    9.1073e-06  Tolerance :   1.0000e-05

             **** THE GBW FILE WAS UPDATED (C2_wt_wb97_typm1_pos.gbw) ****
             **** DENSITY C2_wt_wb97_typm1_pos.scfp WAS UPDATED ****
             **** ENERGY FILE WAS UPDATED (C2_wt_wb97_typm1_pos.en.tmp) ****
             **** THE GBW FILE WAS UPDATED (C2_wt_wb97_typm1_pos.gbw) ****
             **** DENSITY C2_wt_wb97_typm1_pos.scfp WAS UPDATED ****
----------------
ORBITAL ENERGIES
----------------

  NO   OCC          E(Eh)            E(eV) 
   0   2.0000     -14.442633      -393.0040 
   1   2.0000     -14.442569      -393.0023 
   2   2.0000     -10.341212      -281.3987 
   3   2.0000     -10.324361      -280.9401 
   4   2.0000     -10.202465      -277.6232 
   5   2.0000      -1.082364       -29.4526 
   6   2.0000      -0.995786       -27.0967 
   7   2.0000      -0.857482       -23.3333 
   8   2.0000      -0.781202       -21.2576 
   9   2.0000      -0.702792       -19.1239 
  10   2.0000      -0.639168       -17.3927 
  11   2.0000      -0.595490       -16.2041 
  12   2.0000      -0.582913       -15.8619 
  13   2.0000      -0.554499       -15.0887 
  14   2.0000      -0.505872       -13.7655 
  15   2.0000      -0.491427       -13.3724 
  16   2.0000      -0.484471       -13.1831 
  17   2.0000      -0.442923       -12.0526 
  18   2.0000      -0.355702        -9.6791 
  19   2.0000      -0.264845        -7.2068 
  20   0.0000       0.081630         2.2213 
  21   0.0000       0.113554         3.0900 
  22   0.0000       0.122902         3.3443 
  23   0.0000       0.134790         3.6678 
  24   0.0000       0.157056         4.2737 
  25   0.0000       0.167503         4.5580 
  26   0.0000       0.171312         4.6616 
  27   0.0000       0.189409         5.1541 
  28   0.0000       0.200578         5.4580 
  29   0.0000       0.215032         5.8513 
  30   0.0000       0.222699         6.0600 
  31   0.0000       0.243132         6.6160 
  32   0.0000       0.249172         6.7803 
  33   0.0000       0.257421         7.0048 
  34   0.0000       0.263109         7.1596 
  35   0.0000       0.287145         7.8136 
  36   0.0000       0.298345         8.1184 
  37   0.0000       0.312592         8.5061 
  38   0.0000       0.320177         8.7125 
  39   0.0000       0.327197         8.9035 
  40   0.0000       0.342920         9.3313 
  41   0.0000       0.357499         9.7280 
  42   0.0000       0.365039         9.9332 
  43   0.0000       0.375661        10.2223 
  44   0.0000       0.384307        10.4575 
  45   0.0000       0.391791        10.6612 
  46   0.0000       0.408807        11.1242 
  47   0.0000       0.417808        11.3691 
  48   0.0000       0.421840        11.4788 
  49   0.0000       0.428703        11.6656 
  50   0.0000       0.434639        11.8271 
  51   0.0000       0.436349        11.8737 
  52   0.0000       0.448326        12.1996 
  53   0.0000       0.463659        12.6168 
  54   0.0000       0.477922        13.0049 
  55   0.0000       0.478392        13.0177 
  56   0.0000       0.487447        13.2641 
  57   0.0000       0.497387        13.5346 
  58   0.0000       0.514147        13.9907 
  59   0.0000       0.524991        14.2857 
  60   0.0000       0.528304        14.3759 
  61   0.0000       0.542586        14.7645 
  62   0.0000       0.549794        14.9607 
  63   0.0000       0.558096        15.1866 
  64   0.0000       0.560571        15.2539 
  65   0.0000       0.577007        15.7012 
  66   0.0000       0.592512        16.1231 
  67   0.0000       0.601143        16.3579 
  68   0.0000       0.606905        16.5147 
  69   0.0000       0.615927        16.7602 
  70   0.0000       0.629307        17.1243 
  71   0.0000       0.638474        17.3738 
  72   0.0000       0.643656        17.5148 
  73   0.0000       0.657409        17.8890 
  74   0.0000       0.664908        18.0931 
  75   0.0000       0.693998        18.8846 
  76   0.0000       0.701096        19.0778 
  77   0.0000       0.711146        19.3513 
  78   0.0000       0.745083        20.2747 
  79   0.0000       0.749206        20.3869 
  80   0.0000       0.773660        21.0524 
  81   0.0000       0.785619        21.3778 
  82   0.0000       0.815171        22.1819 
  83   0.0000       0.822737        22.3878 
  84   0.0000       0.843572        22.9548 
  85   0.0000       0.852464        23.1967 
  86   0.0000       0.884260        24.0619 
  87   0.0000       0.976064        26.5600 
  88   0.0000       0.982532        26.7361 
  89   0.0000       1.015605        27.6360 
  90   0.0000       1.042041        28.3554 
  91   0.0000       1.054806        28.7027 
  92   0.0000       1.069322        29.0977 
  93   0.0000       1.080627        29.4054 
  94   0.0000       1.101597        29.9760 
  95   0.0000       1.142732        31.0953 
  96   0.0000       1.155356        31.4388 
  97   0.0000       1.185583        32.2614 
  98   0.0000       1.199571        32.6420 
  99   0.0000       1.214187        33.0397 
 100   0.0000       1.234500        33.5925 
 101   0.0000       1.261524        34.3278 
 102   0.0000       1.291948        35.1557 
 103   0.0000       1.303948        35.4822 
 104   0.0000       1.325199        36.0605 
 105   0.0000       1.358660        36.9710 
 106   0.0000       1.393349        37.9150 
 107   0.0000       1.439340        39.1664 
 108   0.0000       1.444161        39.2976 
 109   0.0000       1.581010        43.0215 
 110   0.0000       1.620942        44.1081 
 111   0.0000       1.634379        44.4737 
 112   0.0000       1.690752        46.0077 
 113   0.0000       1.716216        46.7006 
 114   0.0000       1.728234        47.0276 
 115   0.0000       1.761455        47.9316 
 116   0.0000       1.782560        48.5059 
 117   0.0000       1.814359        49.3712 
 118   0.0000       1.824664        49.6516 
 119   0.0000       1.885023        51.2941 
 120   0.0000       1.909022        51.9471 
 121   0.0000       1.929376        52.5010 
 122   0.0000       1.992059        54.2067 
 123   0.0000       2.014373        54.8139 
 124   0.0000       2.017454        54.8977 
 125   0.0000       2.045829        55.6698 
 126   0.0000       2.079410        56.5836 
 127   0.0000       2.093546        56.9683 
 128   0.0000       2.129631        57.9502 
 129   0.0000       2.141745        58.2798 
 130   0.0000       2.167921        58.9921 
 131   0.0000       2.178018        59.2669 
 132   0.0000       2.222894        60.4880 
 133   0.0000       2.229998        60.6813 
 134   0.0000       2.280486        62.0552 
 135   0.0000       2.312128        62.9162 
 136   0.0000       2.332083        63.4592 
 137   0.0000       2.372536        64.5600 
 138   0.0000       2.380541        64.7778 
 139   0.0000       2.411147        65.6106 
 140   0.0000       2.457278        66.8659 
 141   0.0000       2.466074        67.1053 
 142   0.0000       2.523403        68.6653 
 143   0.0000       2.548191        69.3398 
 144   0.0000       2.653201        72.1973 
 145   0.0000       2.673854        72.7593 
 146   0.0000       2.695436        73.3465 
 147   0.0000       2.786888        75.8351 
 148   0.0000       2.807690        76.4011 
 149   0.0000       2.844225        77.3953 
 150   0.0000       2.909029        79.1587 
 151   0.0000       2.971737        80.8651 
 152   0.0000       3.012660        81.9786 
 153   0.0000       3.126546        85.0776 
 154   0.0000       3.191581        86.8473 
 155   0.0000       3.201437        87.1155 
 156   0.0000       3.244137        88.2774 
 157   0.0000       3.275298        89.1254 
 158   0.0000       3.339267        90.8661 
 159   0.0000       3.379450        91.9595 
 160   0.0000       3.432063        93.3912 
 161   0.0000       3.580140        97.4206 
 162   0.0000       3.683738       100.2396 
 163   0.0000       3.755606       102.1952 

                    ********************************
                    * MULLIKEN POPULATION ANALYSIS *
                    ********************************

-----------------------
MULLIKEN ATOMIC CHARGES
-----------------------
   0 C :    1.060102
   1 N :   -0.546443
   2 C :    0.147848
   3 C :    0.498448
   4 N :    0.087909
   5 H :   -0.029576
   6 H :   -0.105596
   7 H :   -0.125615
   8 H :   -0.238583
   9 H :   -0.301792
  10 H :   -0.197339
  11 H :   -0.172943
  12 H :   -0.076420
Sum of atomic charges:    0.0000000

--------------------------------
MULLIKEN REDUCED ORBITAL CHARGES
--------------------------------
  0 C s       :     2.371887  s :     2.371887
      pz      :     0.827440  p :     2.561703
      px      :     0.820967
      py      :     0.913297
      dz2     :     0.002781  d :     0.006308
      dxz     :    -0.002604
      dyz     :    -0.028436
      dx2y2   :     0.001565
      dxy     :     0.033003
  1 N s       :     3.467916  s :     3.467916
      pz      :     1.189997  p :     3.813883
      px      :     1.128062
      py      :     1.495824
      dz2     :     0.043107  d :     0.264644
      dxz     :     0.105049
      dyz     :     0.014862
      dx2y2   :     0.051656
      dxy     :     0.049970
  2 C s       :     2.918367  s :     2.918367
      pz      :     0.857923  p :     2.548196
      px      :     0.854746
      py      :     0.835527
      dz2     :     0.025201  d :     0.385589
      dxz     :     0.170150
      dyz     :    -0.020037
      dx2y2   :     0.093271
      dxy     :     0.117004
  3 C s       :     2.599592  s :     2.599592
      pz      :     0.824204  p :     2.826410
      px      :     1.122620
      py      :     0.879586
      dz2     :     0.012464  d :     0.075551
      dxz     :     0.023712
      dyz     :    -0.004519
      dx2y2   :     0.024964
      dxy     :     0.018929
  4 N s       :     3.200232  s :     3.200232
      pz      :     1.060076  p :     3.707731
      px      :     1.187547
      py      :     1.460109
      dz2     :    -0.013768  d :     0.004127
      dxz     :     0.003960
      dyz     :     0.003046
      dx2y2   :    -0.002369
      dxy     :     0.013259
  5 H s       :     0.978631  s :     0.978631
      pz      :     0.011230  p :     0.050945
      px      :     0.015551
      py      :     0.024164
  6 H s       :     1.069895  s :     1.069895
      pz      :    -0.032536  p :     0.035700
      px      :     0.016276
      py      :     0.051961
  7 H s       :     1.083086  s :     1.083086
      pz      :     0.006903  p :     0.042529
      px      :     0.021738
      py      :     0.013889
  8 H s       :     1.120961  s :     1.120961
      pz      :     0.007231  p :     0.117622
      px      :     0.029868
      py      :     0.080522
  9 H s       :     1.203846  s :     1.203846
      pz      :     0.064072  p :     0.097946
      px      :     0.016448
      py      :     0.017426
 10 H s       :     1.088493  s :     1.088493
      pz      :     0.030494  p :     0.108846
      px      :     0.030471
      py      :     0.047881
 11 H s       :     1.128315  s :     1.128315
      pz      :     0.051255  p :     0.044628
      px      :     0.021000
      py      :    -0.027627
 12 H s       :     1.040644  s :     1.040644
      pz      :    -0.038730  p :     0.035775
      px      :     0.022519
      py      :     0.051986


                     *******************************
                     * LOEWDIN POPULATION ANALYSIS *
                     *******************************

----------------------
LOEWDIN ATOMIC CHARGES
----------------------
   0 C :    0.210407
   1 N :   -0.043966
   2 C :   -0.245446
   3 C :    0.135480
   4 N :    0.196186
   5 H :    0.006726
   6 H :   -0.023154
   7 H :    0.023987
   8 H :   -0.100201
   9 H :   -0.101540
  10 H :   -0.030860
  11 H :   -0.013395
  12 H :   -0.014224

-------------------------------
LOEWDIN REDUCED ORBITAL CHARGES
-------------------------------
  0 C s       :     2.688747  s :     2.688747
      pz      :     0.927337  p :     2.670206
      px      :     0.812963
      py      :     0.929906
      dz2     :     0.091285  d :     0.430640
      dxz     :     0.086224
      dyz     :     0.027956
      dx2y2   :     0.097374
      dxy     :     0.127802
  1 N s       :     2.928258  s :     2.928258
      pz      :     1.153124  p :     3.508155
      px      :     1.055185
      py      :     1.299847
      dz2     :     0.129640  d :     0.607552
      dxz     :     0.183706
      dyz     :     0.077083
      dx2y2   :     0.093803
      dxy     :     0.123320
  2 C s       :     2.635325  s :     2.635325
      pz      :     0.844671  p :     2.507670
      px      :     0.902845
      py      :     0.760153
      dz2     :     0.247172  d :     1.102452
      dxz     :     0.249179
      dyz     :     0.199420
      dx2y2   :     0.229453
      dxy     :     0.177228
  3 C s       :     2.744947  s :     2.744947
      pz      :     0.929463  p :     2.802167
      px      :     0.944040
      py      :     0.928664
      dz2     :     0.068929  d :     0.317406
      dxz     :     0.071595
      dyz     :     0.030591
      dx2y2   :     0.080294
      dxy     :     0.065997
  4 N s       :     2.941805  s :     2.941805
      pz      :     1.062288  p :     3.527384
      px      :     1.149638
      py      :     1.315458
      dz2     :     0.099071  d :     0.334625
      dxz     :     0.056187
      dyz     :     0.049921
      dx2y2   :     0.063942
      dxy     :     0.065504
  5 H s       :     0.655906  s :     0.655906
      pz      :     0.143363  p :     0.337367
      px      :     0.088919
      py      :     0.105086
  6 H s       :     0.658805  s :     0.658805
      pz      :     0.095972  p :     0.364348
      px      :     0.148926
      py      :     0.119451
  7 H s       :     0.641778  s :     0.641778
      pz      :     0.099170  p :     0.334235
      px      :     0.114487
      py      :     0.120578
  8 H s       :     0.760500  s :     0.760500
      pz      :     0.105909  p :     0.339701
      px      :     0.100452
      py      :     0.133340
  9 H s       :     0.771759  s :     0.771759
      pz      :     0.141456  p :     0.329781
      px      :     0.096971
      py      :     0.091355
 10 H s       :     0.742955  s :     0.742955
      pz      :     0.104756  p :     0.287905
      px      :     0.075847
      py      :     0.107302
 11 H s       :     0.753726  s :     0.753726
      pz      :     0.130096  p :     0.259669
      px      :     0.055381
      py      :     0.074192
 12 H s       :     0.755446  s :     0.755446
      pz      :     0.076930  p :     0.258778
      px      :     0.056288
      py      :     0.125560


                      *****************************
                      * MAYER POPULATION ANALYSIS *
                      *****************************

  NA   - Mulliken gross atomic population
  ZA   - Total nuclear charge
  QA   - Mulliken gross atomic charge
  VA   - Mayer's total valence
  BVA  - Mayer's bonded valence
  FA   - Mayer's free valence

  ATOM       NA         ZA         QA         VA         BVA        FA
  0 C      4.9399     6.0000     1.0601     3.3855     3.3855    -0.0000
  1 N      7.5464     7.0000    -0.5464     3.8853     3.8853    -0.0000
  2 C      5.8522     6.0000     0.1478     4.6688     4.6688     0.0000
  3 C      5.5016     6.0000     0.4984     3.7129     3.7129     0.0000
  4 N      6.9121     7.0000     0.0879     3.3972     3.3972     0.0000
  5 H      1.0296     1.0000    -0.0296     0.9609     0.9609    -0.0000
  6 H      1.1056     1.0000    -0.1056     0.9592     0.9592     0.0000
  7 H      1.1256     1.0000    -0.1256     1.0022     1.0022    -0.0000
  8 H      1.2386     1.0000    -0.2386     1.3063     1.3063     0.0000
  9 H      1.3018     1.0000    -0.3018     1.2025     1.2025    -0.0000
 10 H      1.1973     1.0000    -0.1973     1.1732     1.1732    -0.0000
 11 H      1.1729     1.0000    -0.1729     1.0503     1.0503     0.0000
 12 H      1.0764     1.0000    -0.0764     1.0651     1.0651    -0.0000

  Mayer bond orders larger than 0.100000
B(  0-C ,  1-N ) :   0.8725 B(  0-C , 10-H ) :   0.8455 B(  0-C , 11-H ) :   0.8165 
B(  0-C , 12-H ) :   0.8233 B(  1-N ,  2-C ) :   1.1657 B(  1-N ,  3-C ) :   0.1937 
B(  1-N ,  7-H ) :   1.1291 B(  1-N , 10-H ) :   0.1404 B(  1-N , 11-H ) :   0.1879 
B(  1-N , 12-H ) :   0.1041 B(  2-C ,  3-C ) :   1.8684 B(  2-C ,  4-N ) :   1.0198 
B(  2-C ,  8-H ) :   0.2180 B(  2-C ,  9-H ) :   0.3249 B(  3-C ,  4-N ) :   0.2010 
B(  3-C ,  8-H ) :   0.8453 B(  3-C ,  9-H ) :   0.6042 B(  4-N ,  5-H ) :   1.0771 
B(  4-N ,  6-H ) :   0.9745 B(  5-H ,  6-H ) :  -0.1087 B(  8-H ,  9-H ) :   0.1913 


-------
TIMINGS
-------

Total SCF time: 0 days 0 hours 0 min 6 sec 

Total time                  ....       6.940 sec
Sum of individual times     ....       6.721 sec  ( 96.8%)

Fock matrix formation       ....       6.018 sec  ( 86.7%)
  Split-RI-J                ....       0.630 sec  ( 10.5% of F)
  Chain of spheres X        ....       4.601 sec  ( 76.5% of F)
  XC integration            ....       0.740 sec  ( 12.3% of F)
    Basis function eval.    ....       0.210 sec  ( 28.3% of XC)
    Density eval.           ....       0.141 sec  ( 19.1% of XC)
    XC-Functional eval.     ....       0.064 sec  (  8.6% of XC)
    XC-Potential eval.      ....       0.189 sec  ( 25.6% of XC)
Diagonalization             ....       0.047 sec  (  0.7%)
Density matrix formation    ....       0.007 sec  (  0.1%)
Population analysis         ....       0.008 sec  (  0.1%)
Initial guess               ....       0.041 sec  (  0.6%)
Orbital Transformation      ....       0.000 sec  (  0.0%)
Orbital Orthonormalization  ....       0.000 sec  (  0.0%)
DIIS solution               ....       0.033 sec  (  0.5%)
SOSCF solution              ....       0.035 sec  (  0.5%)
Grid generation             ....       0.532 sec  (  7.7%)

Maximum memory used throughout the entire SCF-calculation: 50.8 MB


-------------------------------------------------------------------------------
                          DFT DISPERSION CORRECTION                            
                                                                               
                              DFTD3 V3.1  Rev 1                                
                              USING zero damping                               
-------------------------------------------------------------------------------
The omegaB97X-D3 functional is recognized. Fit by Chai et al.
Active option DFTDOPT                   ...         3   

molecular C6(AA) [au] = 1311.610199 


            DFT-D V3
 parameters
 s6 scaling factor         :     1.0000 
 rs6 scaling factor        :     1.2810 
 s8 scaling factor         :     1.0000 
 rs8 scaling factor        :     1.0940 
 Damping factor alpha6     :    14.0000 
 Damping factor alpha8     :    16.0000 
 ad hoc parameters k1-k3   :    16.0000     1.3333    -4.0000 

 Edisp/kcal,au: -1.543730332462  -0.002460090615 
 E6   /kcal   :  -0.641607459 
 E8   /kcal   :  -0.902122874 
 % E8         :  58.437853741 

-------------------------   ----------------
Dispersion correction           -0.002460091
-------------------------   ----------------


-------------------------   --------------------
FINAL SINGLE POINT ENERGY      -228.367882972301
-------------------------   --------------------


                            ***************************************
                            *     ORCA property calculations      *
                            ***************************************

                                    ---------------------
                                    Active property flags
                                    ---------------------
   (+) Dipole Moment


------------------------------------------------------------------------------
                       ORCA ELECTRIC PROPERTIES CALCULATION
------------------------------------------------------------------------------

Dipole Moment Calculation                       ... on
Quadrupole Moment Calculation                   ... off
Polarizability Calculation                      ... off
GBWName                                         ... C2_wt_wb97_typm1_pos.gbw
Electron density file                           ... C2_wt_wb97_typm1_pos.scfp
The origin for moment calculation is the CENTER OF MASS  = (10.028647,  6.317380 -9.447467)

-------------
DIPOLE MOMENT
-------------
                                X             Y             Z
Electronic contribution:      0.93020       1.44073      -0.29286
Nuclear contribution   :     -2.30713      -1.79036       0.37856
                        -----------------------------------------
Total Dipole Moment    :     -1.37693      -0.34963       0.08570
                        -----------------------------------------
Magnitude (a.u.)       :      1.42321
Magnitude (Debye)      :      3.61751



--------------------
Rotational spectrum 
--------------------
 
Rotational constants in cm-1:     0.307513     0.139026     0.101190 
Rotational constants in MHz :  9218.994719  4167.905268  3033.592538 

 Dipole components along the rotational axes: 
x,y,z [a.u.] :     1.061230    -0.666594    -0.674514 
x,y,z [Debye]:     2.697433    -1.694348    -1.714478 

 

Timings for individual modules:

Sum of individual times         ...        7.863 sec (=   0.131 min)
GTO integral calculation        ...        0.546 sec (=   0.009 min)   6.9 %
SCF iterations                  ...        7.316 sec (=   0.122 min)  93.1 %
                             ****ORCA TERMINATED NORMALLY****
TOTAL RUN TIME: 0 days 0 hours 0 minutes 8 seconds 431 msec
