
                                        *****************
                                        * O   R   C   A *
                                        *****************

                                            #,                                       
                                            ###                                      
                                            ####                                     
                                            #####                                    
                                            ######                                   
                                           ########,                                 
                                     ,,################,,,,,                         
                               ,,#################################,,                 
                          ,,##########################################,,             
                       ,#########################################, ''#####,          
                    ,#############################################,,   '####,        
                  ,##################################################,,,,####,       
                ,###########''''           ''''###############################       
              ,#####''   ,,,,##########,,,,          '''####'''          '####       
            ,##' ,,,,###########################,,,                        '##       
           ' ,,###''''                  '''############,,,                           
         ,,##''                                '''############,,,,        ,,,,,,###''
      ,#''                                            '''#######################'''  
     '                                                          ''''####''''         
             ,#######,   #######,   ,#######,      ##                                
            ,#'     '#,  ##    ##  ,#'     '#,    #''#        ######   ,####,        
            ##       ##  ##   ,#'  ##            #'  '#       #        #'  '#        
            ##       ##  #######   ##           ,######,      #####,   #    #        
            '#,     ,#'  ##    ##  '#,     ,#' ,#      #,         ##   #,  ,#        
             '#######'   ##     ##  '#######'  #'      '#     #####' # '####'        



                  #######################################################
                  #                        -***-                        #
                  #          Department of theory and spectroscopy      #
                  #    Directorship and core code : Frank Neese         #
                  #        Max Planck Institute fuer Kohlenforschung    #
                  #                Kaiser Wilhelm Platz 1               #
                  #                 D-45470 Muelheim/Ruhr               #
                  #                      Germany                        #
                  #                                                     #
                  #                  All rights reserved                #
                  #                        -***-                        #
                  #######################################################


                         Program Version 5.0.0 -  RELEASE  -
                                (SVN: $Rev: 19529$)
                ($Date: 2021-06-28 11:36:33 +0200 (Mo, 28 Jun 2021) $)


 With contributions from (in alphabetic order):
   Daniel Aravena         : Magnetic Suceptibility
   Michael Atanasov       : Ab Initio Ligand Field Theory (pilot matlab implementation)
   Alexander A. Auer      : GIAO ZORA, VPT2 properties, NMR spectrum
   Ute Becker             : Parallelization
   Giovanni Bistoni       : ED, misc. LED, open-shell LED, HFLD
   Martin Brehm           : Molecular dynamics
   Dmytro Bykov           : SCF Hessian
   Vijay G. Chilkuri      : MRCI spin determinant printing, contributions to CSF-ICE
   Dipayan Datta          : RHF DLPNO-CCSD density
   Achintya Kumar Dutta   : EOM-CC, STEOM-CC
   Dmitry Ganyushin       : Spin-Orbit,Spin-Spin,Magnetic field MRCI
   Miquel Garcia          : C-PCM Hessian, Gaussian charge scheme
   Yang Guo               : DLPNO-NEVPT2, F12-NEVPT2, CIM, IAO-localization
   Andreas Hansen         : Spin unrestricted coupled pair/coupled cluster methods
   Benjamin Helmich-Paris : MC-RPA, TRAH-SCF, COSX integrals
   Lee Huntington         : MR-EOM, pCC
   Robert Izsak           : Overlap fitted RIJCOSX, COSX-SCS-MP3, EOM
   Marcus Kettner         : VPT2
   Christian Kollmar      : KDIIS, OOCD, Brueckner-CCSD(T), CCSD density, CASPT2, CASPT2-K
   Simone Kossmann        : Meta GGA functionals, TD-DFT gradient, OOMP2, MP2 Hessian
   Martin Krupicka        : Initial AUTO-CI
   Lucas Lang             : DCDCAS
   Marvin Lechner         : AUTO-CI (C++ implementation), FIC-MRCC
   Dagmar Lenk            : GEPOL surface, SMD
   Dimitrios Liakos       : Extrapolation schemes; Compound Job, initial MDCI parallelization
   Dimitrios Manganas     : Further ROCIS development; embedding schemes
   Dimitrios Pantazis     : SARC Basis sets
   Anastasios Papadopoulos: AUTO-CI, single reference methods and gradients
   Taras Petrenko         : DFT Hessian,TD-DFT gradient, ASA, ECA, R-Raman, ABS, FL, XAS/XES, NRVS
   Peter Pinski           : DLPNO-MP2, DLPNO-MP2 Gradient
   Christoph Reimann      : Effective Core Potentials
   Marius Retegan         : Local ZFS, SOC
   Christoph Riplinger    : Optimizer, TS searches, QM/MM, DLPNO-CCSD(T), (RO)-DLPNO pert. Triples
   Tobias Risthaus        : Range-separated hybrids, TD-DFT gradient, RPA, STAB
   Michael Roemelt        : Original ROCIS implementation
   Masaaki Saitow         : Open-shell DLPNO-CCSD energy and density
   Barbara Sandhoefer     : DKH picture change effects
   Avijit Sen             : IP-ROCIS
   Kantharuban Sivalingam : CASSCF convergence, NEVPT2, FIC-MRCI
   Bernardo de Souza      : ESD, SOC TD-DFT
   Georgi Stoychev        : AutoAux, RI-MP2 NMR
   Willem Van den Heuvel  : Paramagnetic NMR
   Boris Wezisla          : Elementary symmetry handling
   Frank Wennmohs         : Technical directorship


 We gratefully acknowledge several colleagues who have allowed us to
 interface, adapt or use parts of their codes:
   Stefan Grimme, W. Hujo, H. Kruse, P. Pracht,  : VdW corrections, initial TS optimization,
                  C. Bannwarth, S. Ehlert          DFT functionals, gCP, sTDA/sTD-DF
   Ed Valeev, F. Pavosevic, A. Kumar             : LibInt (2-el integral package), F12 methods
   Garnet Chan, S. Sharma, J. Yang, R. Olivares  : DMRG
   Ulf Ekstrom                                   : XCFun DFT Library
   Mihaly Kallay                                 : mrcc  (arbitrary order and MRCC methods)
   Jiri Pittner, Ondrej Demel                    : Mk-CCSD
   Frank Weinhold                                : gennbo (NPA and NBO analysis)
   Christopher J. Cramer and Donald G. Truhlar   : smd solvation model
   Lars Goerigk                                  : TD-DFT with DH, B97 family of functionals
   V. Asgeirsson, H. Jonsson                     : NEB implementation
   FAccTs GmbH                                   : IRC, NEB, NEB-TS, DLPNO-Multilevel, CI-OPT
                                                   MM, QMMM, 2- and 3-layer-ONIOM, Crystal-QMMM,
                                                   LR-CPCM, SF, NACMEs, symmetry and pop. for TD-DFT,
                                                   nearIR, NL-DFT gradient (VV10), updates on ESD,
                                                   ML-optimized integration grids
   S Lehtola, MJT Oliveira, MAL Marques          : LibXC Library
   Liviu Ungur et al                             : ANISO software


 Your calculation uses the libint2 library for the computation of 2-el integrals
 For citations please refer to: http://libint.valeyev.net

 Your ORCA version has been built with support for libXC version: 5.1.0
 For citations please refer to: https://tddft.org/programs/libxc/

 This ORCA versions uses:
   CBLAS   interface :  Fast vector & matrix operations
   LAPACKE interface :  Fast linear algebra routines
   SCALAPACK package :  Parallel linear algebra routines
   Shared memory     :  Shared parallel matrices
   BLAS/LAPACK       :  OpenBLAS 0.3.15  USE64BITINT DYNAMIC_ARCH NO_AFFINITY Haswell SINGLE_THREADED
        Core in use  :  Haswell
   Copyright (c) 2011-2014, The OpenBLAS Project


Your calculation utilizes the atom-pairwise dispersion correction
with the Becke-Johnson damping scheme (D3BJ)
Cite in your paper:
S.Grimme, S.Ehrlich, L.Goerigk, J Comput Chem, (2011), 32, 1456–1465 
S.Grimme, J.Antony, S.Ehrlich and H.Krieg, J.Chem.Phys., 132, (2010), 154104 
   

================================================================================

----- Orbital basis set information -----
Your calculation utilizes the basis: def2-SVPD
   F. Weigend and R. Ahlrichs, Phys. Chem. Chem. Phys. 7, 3297 (2005).
   D. Rappoport and F. Furche, J. Chem. Phys. 133 134105 (2010).

----- AuxJ basis set information -----
Your calculation utilizes the auxiliary basis: def2/J
   F. Weigend, Phys. Chem. Chem. Phys. 8, 1057 (2006).

================================================================================
                                        WARNINGS
                       Please study these warnings very carefully!
================================================================================


INFO   : the flag for use of the SHARK integral package has been found!

================================================================================
                                       INPUT FILE
================================================================================
NAME = 18Feb_SVPD_PBE0_A_wt_wb97_typm1_neg.com
|  1> !PBE0 D3BJ RIJCOSX def2-SVPD def2/J TightSCF 
|  2> *xyz -1 1 
|  3> C          0.28725       -1.71177       -2.52740
|  4> O          0.71050       -0.92751       -1.48177
|  5> H          0.92384       -1.55316       -3.37267
|  6> H         -0.71828       -1.45137       -2.78433
|  7> H          0.32655       -2.74158       -2.23955
|  8> *
|  9> %MaxCore 64000
| 10> 
| 11> %pal nprocs 4
| 12> end  
| 13> 
| 14> %scf
| 15>   MaxIter 150
| 16> end
| 17> 
| 18> 
| 19>                          ****END OF INPUT****
================================================================================

                       ****************************
                       * Single Point Calculation *
                       ****************************

---------------------------------
CARTESIAN COORDINATES (ANGSTROEM)
---------------------------------
  C      0.287250   -1.711770   -2.527400
  O      0.710500   -0.927510   -1.481770
  H      0.923840   -1.553160   -3.372670
  H     -0.718280   -1.451370   -2.784330
  H      0.326550   -2.741580   -2.239550

----------------------------
CARTESIAN COORDINATES (A.U.)
----------------------------
  NO LB      ZA    FRAG     MASS         X           Y           Z
   0 C     6.0000    0    12.011    0.542824   -3.234777   -4.776094
   1 O     8.0000    0    15.999    1.342650   -1.752740   -2.800139
   2 H     1.0000    0     1.008    1.745805   -2.935047   -6.373423
   3 H     1.0000    0     1.008   -1.357352   -2.742692   -5.261621
   4 H     1.0000    0     1.008    0.617090   -5.180835   -4.232136

--------------------------------
INTERNAL COORDINATES (ANGSTROEM)
--------------------------------
 C      0   0   0     0.000000000000     0.00000000     0.00000000
 O      1   0   0     1.373880055536     0.00000000     0.00000000
 H      1   2   0     1.069993146286   109.47111286     0.00000000
 H      1   2   3     1.070005498023   109.47135485   239.99996900
 H      1   2   3     1.070005022698   109.47125991   119.99985835

---------------------------
INTERNAL COORDINATES (A.U.)
---------------------------
 C      0   0   0     0.000000000000     0.00000000     0.00000000
 O      1   0   0     2.596257045820     0.00000000     0.00000000
 H      1   2   0     2.021994011654   109.47111286     0.00000000
 H      1   2   3     2.022017353054   109.47135485   239.99996900
 H      1   2   3     2.022016454820   109.47125991   119.99985835

---------------------
BASIS SET INFORMATION
---------------------
There are 3 groups of distinct atoms

 Group   1 Type C   : 8s4p2d contracted to 4s2p2d pattern {5111/31/11}
 Group   2 Type O   : 8s5p2d contracted to 4s3p2d pattern {5111/311/11}
 Group   3 Type H   : 4s2p contracted to 2s2p pattern {31/11}

Atom   0C    basis set group =>   1
Atom   1O    basis set group =>   2
Atom   2H    basis set group =>   3
Atom   3H    basis set group =>   3
Atom   4H    basis set group =>   3
---------------------------------
AUXILIARY/J BASIS SET INFORMATION
---------------------------------
There are 3 groups of distinct atoms

 Group   1 Type C   : 12s5p4d2f1g contracted to 6s4p3d1f1g pattern {711111/2111/211/2/1}
 Group   2 Type O   : 12s5p4d2f1g contracted to 6s4p3d1f1g pattern {711111/2111/211/2/1}
 Group   3 Type H   : 5s2p1d contracted to 3s1p1d pattern {311/2/1}

Atom   0C    basis set group =>   1
Atom   1O    basis set group =>   2
Atom   2H    basis set group =>   3
Atom   3H    basis set group =>   3
Atom   4H    basis set group =>   3


           ************************************************************
           *        Program running with 4 parallel MPI-processes     *
           *              working on a common directory               *
           ************************************************************
------------------------------------------------------------------------------
                           ORCA GTO INTEGRAL CALCULATION
                           -- RI-GTO INTEGRALS CHOSEN --
------------------------------------------------------------------------------
------------------------------------------------------------------------------
                   ___                                                        
                  /   \      - P O W E R E D   B Y -                         
                 /     \                                                     
                 |  |  |   _    _      __       _____    __    __             
                 |  |  |  | |  | |    /  \     |  _  \  |  |  /  |          
                  \  \/   | |  | |   /    \    | | | |  |  | /  /          
                 / \  \   | |__| |  /  /\  \   | |_| |  |  |/  /          
                |  |  |   |  __  | /  /__\  \  |    /   |      \           
                |  |  |   | |  | | |   __   |  |    \   |  |\   \          
                \     /   | |  | | |  |  |  |  | |\  \  |  | \   \       
                 \___/    |_|  |_| |__|  |__|  |_| \__\ |__|  \__/        
                                                                              
                      - O R C A' S   B I G   F R I E N D -                    
                                      &                                       
                       - I N T E G R A L  F E E D E R -                       
                                                                              
 v1 FN, 2020, v2 2021                                                         
------------------------------------------------------------------------------


Reading SHARK input file 18Feb_SVPD_PBE0_A_wt_wb97_typm1_neg.SHARKINP.tmp ... ok
----------------------
SHARK INTEGRAL PACKAGE
----------------------

Number of atoms                             ...      5
Number of basis functions                   ...     67
Number of shells                            ...     29
Maximum angular momentum                    ...      2
Integral batch strategy                     ... SHARK/LIBINT Hybrid
RI-J (if used) integral strategy            ... SPLIT-RIJ (Revised 2003 algorithm where possible)
Printlevel                                  ...      1
Contraction scheme used                     ... SEGMENTED contraction
Coulomb Range Separation                    ... NOT USED
Exchange Range Separation                   ... NOT USED
Finite Nucleus Model                        ... NOT USED
Auxiliary Coulomb fitting basis             ... AVAILABLE
   # of basis functions in Aux-J            ...    131
   # of shells in Aux-J                     ...     45
   Maximum angular momentum in Aux-J        ...      4
Auxiliary J/K fitting basis                 ... NOT available
Auxiliary Correlation fitting basis         ... NOT available
Auxiliary 'external' fitting basis          ... NOT available
Integral threshold                          ...     2.500000e-11
Primitive cut-off                           ...     2.500000e-12
Primitive pair pre-selection threshold      ...     2.500000e-12

Calculating pre-screening integrals         ... done (  0.0 sec) Dimension = 29
Organizing shell pair data                  ... done (  0.0 sec)
Shell pair information
Total number of shell pairs                 ...       435
Shell pairs after pre-screening             ...       435
Total number of primitive shell pairs       ...      1163
Primitive shell pairs kept                  ...      1102
          la=0 lb=0:    105 shell pairs
          la=1 lb=0:    154 shell pairs
          la=1 lb=1:     66 shell pairs
          la=2 lb=0:     56 shell pairs
          la=2 lb=1:     44 shell pairs
          la=2 lb=2:     10 shell pairs

Calculating one electron integrals          ... done (  0.0 sec)
Calculating RI/J V-Matrix + Cholesky decomp.... done (  0.0 sec)
Calculating Nuclear repulsion               ... done (  0.0 sec) ENN=     34.638989658204 Eh

SHARK setup successfully completed in   0.1 seconds

Maximum memory used throughout the entire GTOINT-calculation: 8.7 MB


           ************************************************************
           *        Program running with 4 parallel MPI-processes     *
           *              working on a common directory               *
           ************************************************************
-------------------------------------------------------------------------------
                                 ORCA SCF
-------------------------------------------------------------------------------

------------
SCF SETTINGS
------------
Hamiltonian:
 Density Functional     Method          .... DFT(GTOs)
 Exchange Functional    Exchange        .... PBE
   PBE kappa parameter   XKappa         ....  0.804000
   PBE mue parameter    XMuePBE         ....  0.219520
 Correlation Functional Correlation     .... PBE
   PBE beta parameter  CBetaPBE         ....  0.066725
 LDA part of GGA corr.  LDAOpt          .... PW91-LDA
 Gradients option       PostSCFGGA      .... off
 Hybrid DFT is turned on
   Fraction HF Exchange ScalHFX         ....  0.250000
   Scaling of DF-GGA-X  ScalDFX         ....  0.750000
   Scaling of DF-GGA-C  ScalDFC         ....  1.000000
   Scaling of DF-LDA-C  ScalLDAC        ....  1.000000
   Perturbative correction              ....  0.000000
   Density functional embedding theory  .... OFF
   NL short-range parameter             ....  6.900000
 RI-approximation to the Coulomb term is turned on
   Number of AuxJ basis functions       .... 131
   RIJ-COSX (HFX calculated with COS-X)).... on


General Settings:
 Integral files         IntName         .... 18Feb_SVPD_PBE0_A_wt_wb97_typm1_neg
 Hartree-Fock type      HFTyp           .... RHF
 Total Charge           Charge          ....   -1
 Multiplicity           Mult            ....    1
 Number of Electrons    NEL             ....   18
 Basis Dimension        Dim             ....   67
 Nuclear Repulsion      ENuc            ....     34.6389896582 Eh

Convergence Acceleration:
 DIIS                   CNVDIIS         .... on
   Start iteration      DIISMaxIt       ....    12
   Startup error        DIISStart       ....  0.200000
   # of expansion vecs  DIISMaxEq       ....     5
   Bias factor          DIISBfac        ....   1.050
   Max. coefficient     DIISMaxC        ....  10.000
 Trust-Rad. Augm. Hess. CNVTRAH         .... auto
   Auto Start mean grad. ratio tolernc. ....  1.125000
   Auto Start start iteration           ....    20
   Auto Start num. interpolation iter.  ....    10
   Max. Number of Micro iterations      ....    16
   Max. Number of Macro iterations      .... Maxiter - #DIIS iter
   Number of Davidson start vectors     ....     2
   Converg. threshold I  (grad. norm)   ....   1.000e-05
   Converg. threshold II (energy diff.) ....   1.000e-08
   Grad. Scal. Fac. for Micro threshold ....   0.100
   Minimum threshold for Micro iter.    ....   0.010
   NR start threshold (gradient norm)   ....   0.001
   Initial trust radius                 ....   0.400
   Minimum AH scaling param. (alpha)    ....   1.000
   Maximum AH scaling param. (alpha)    .... 1000.000
   Orbital update algorithm             .... Taylor
   White noise on init. David. guess    .... on
   Maximum white noise                  ....   0.010
   Quad. conv. algorithm                .... NR
 SOSCF                  CNVSOSCF        .... on
   Start iteration      SOSCFMaxIt      ....   150
   Startup grad/error   SOSCFStart      ....  0.003300
 Level Shifting         CNVShift        .... on
   Level shift para.    LevelShift      ....    0.2500
   Turn off err/grad.   ShiftErr        ....    0.0010
 Zerner damping         CNVZerner       .... off
 Static damping         CNVDamp         .... on
   Fraction old density DampFac         ....    0.7000
   Max. Damping (<1)    DampMax         ....    0.9800
   Min. Damping (>=0)   DampMin         ....    0.0000
   Turn off err/grad.   DampErr         ....    0.1000
 Fernandez-Rico         CNVRico         .... off

SCF Procedure:
 Maximum # iterations   MaxIter         ....   150
 SCF integral mode      SCFMode         .... Direct
   Integral package                     .... SHARK and LIBINT hybrid scheme
 Reset frequency        DirectResetFreq ....    20
 Integral Threshold     Thresh          ....  2.500e-11 Eh
 Primitive CutOff       TCut            ....  2.500e-12 Eh

Convergence Tolerance:
 Convergence Check Mode ConvCheckMode   .... Total+1el-Energy
 Convergence forced     ConvForced      .... 0
 Energy Change          TolE            ....  1.000e-08 Eh
 1-El. energy change                    ....  1.000e-05 Eh
 Orbital Gradient       TolG            ....  1.000e-05
 Orbital Rotation angle TolX            ....  1.000e-05
 DIIS Error             TolErr          ....  5.000e-07


Diagonalization of the overlap matrix:
Smallest eigenvalue                        ... 5.658e-04
Time for diagonalization                   ...    0.002 sec
Threshold for overlap eigenvalues          ... 1.000e-08
Number of eigenvalues below threshold      ... 0
Time for construction of square roots      ...    0.002 sec
Total time needed                          ...    0.004 sec

Time for model grid setup =    0.025 sec

------------------------------
INITIAL GUESS: MODEL POTENTIAL
------------------------------
Loading Hartree-Fock densities                     ... done
Calculating cut-offs                               ... done
Initializing the effective Hamiltonian             ... done
Setting up the integral package (SHARK)            ... done
Starting the Coulomb interaction                   ... done (   0.0 sec)
Reading the grid                                   ... done
Mapping shells                                     ... done
Starting the XC term evaluation                    ... done (   0.0 sec)
  promolecular density results
     # of electrons  =     16.998159597
     EX              =    -14.091815503
     EC              =     -0.541133246
     EX+EC           =    -14.632948749
Transforming the Hamiltonian                       ... done (   0.0 sec)
Diagonalizing the Hamiltonian                      ... done (   0.0 sec)
Back transforming the eigenvectors                 ... done (   0.0 sec)
Now organizing SCF variables                       ... done
                      ------------------
                      INITIAL GUESS DONE (   0.0 sec)
                      ------------------
-------------------
DFT GRID GENERATION
-------------------

General Integration Accuracy     IntAcc      ... 4.388
Radial Grid Type                 RadialGrid  ... OptM3 with GC (2021)
Angular Grid (max. ang.)         AngularGrid ... 4 (Lebedev-302)
Angular grid pruning method      GridPruning ... 4 (adaptive)
Weight generation scheme         WeightScheme... Becke
Basis function cutoff            BFCut       ... 1.0000e-11
Integration weight cutoff        WCut        ... 1.0000e-14
Angular grids for H and He will be reduced by one unit
Partially contracted basis set               ... off
Rotationally invariant grid construction     ... off

Total number of grid points                  ...    23049
Total number of batches                      ...      363
Average number of points per batch           ...       63
Average number of grid points per atom       ...     4610
Time for grid setup =    0.128 sec

--------------------
COSX GRID GENERATION
--------------------

GRIDX 1
-------
General Integration Accuracy     IntAcc      ... 3.816
Radial Grid Type                 RadialGrid  ... OptM3 with GC (2021)
Angular Grid (max. ang.)         AngularGrid ... 1 (Lebedev-50)
Angular grid pruning method      GridPruning ... 4 (adaptive)
Weight generation scheme         WeightScheme... Becke
Basis function cutoff            BFCut       ... 1.0000e-11
Integration weight cutoff        WCut        ... 1.0000e-14
Angular grids for H and He will be reduced by one unit
Partially contracted basis set               ... on
Rotationally invariant grid construction     ... off

Total number of grid points                  ...     2906
Total number of batches                      ...       49
Average number of points per batch           ...       59
Average number of grid points per atom       ...      581
UseSFitting                                  ... on

GRIDX 2
-------
General Integration Accuracy     IntAcc      ... 4.020
Radial Grid Type                 RadialGrid  ... OptM3 with GC (2021)
Angular Grid (max. ang.)         AngularGrid ... 2 (Lebedev-110)
Angular grid pruning method      GridPruning ... 4 (adaptive)
Weight generation scheme         WeightScheme... Becke
Basis function cutoff            BFCut       ... 1.0000e-11
Integration weight cutoff        WCut        ... 1.0000e-14
Angular grids for H and He will be reduced by one unit
Partially contracted basis set               ... on
Rotationally invariant grid construction     ... off

Total number of grid points                  ...     6851
Total number of batches                      ...      109
Average number of points per batch           ...       62
Average number of grid points per atom       ...     1370
UseSFitting                                  ... on

GRIDX 3
-------
General Integration Accuracy     IntAcc      ... 4.338
Radial Grid Type                 RadialGrid  ... OptM3 with GC (2021)
Angular Grid (max. ang.)         AngularGrid ... 3 (Lebedev-194)
Angular grid pruning method      GridPruning ... 4 (adaptive)
Weight generation scheme         WeightScheme... Becke
Basis function cutoff            BFCut       ... 1.0000e-11
Integration weight cutoff        WCut        ... 1.0000e-14
Angular grids for H and He will be reduced by one unit
Partially contracted basis set               ... on
Rotationally invariant grid construction     ... off

Total number of grid points                  ...    15702
Total number of batches                      ...      248
Average number of points per batch           ...       63
Average number of grid points per atom       ...     3140
UseSFitting                                  ... on

Time for X-Grid setup             =    0.109 sec

--------------
SCF ITERATIONS
--------------
ITER       Energy         Delta-E        Max-DP      RMS-DP      [F,P]     Damp
               ***  Starting incremental Fock matrix formation  ***
  0   -114.6556926732   0.000000000000 0.12493319  0.00591150  0.3624929 0.7000
  1   -114.7709791892  -0.115286515988 0.06675008  0.00415577  0.1199111 0.7000
                               ***Turning on DIIS***
  2   -114.8028192335  -0.031840044321 0.10381577  0.00604402  0.0353597 0.0000
  3   -114.8689350904  -0.066115856940 0.05458468  0.00326079  0.0650925 0.0000
  4   -114.8807489192  -0.011813828727 0.02267224  0.00147234  0.0297728 0.0000
                      *** Initiating the SOSCF procedure ***
                           *** Shutting down DIIS ***
                      *** Re-Reading the Fockian *** 
                      *** Removing any level shift *** 
ITER      Energy       Delta-E        Grad      Rot      Max-DP    RMS-DP
  5   -114.88230629  -0.0015573696  0.000927  0.000927  0.011037  0.000741
               *** Restarting incremental Fock matrix formation ***
  6   -114.88240541  -0.0000991222  0.001191  0.001753  0.006729  0.000465
  7   -114.88240169   0.0000037251  0.001348  0.001422  0.003340  0.000249
  8   -114.88242433  -0.0000226471  0.000077  0.000203  0.001433  0.000089
  9   -114.88242452  -0.0000001821  0.000049  0.000044  0.000173  0.000010
 10   -114.88242454  -0.0000000264  0.000017  0.000030  0.000180  0.000011
 11   -114.88242455  -0.0000000104  0.000006  0.000006  0.000033  0.000002
                  ***Gradient check signals convergence***
              ***Rediagonalizing the Fockian in SOSCF/NRSCF***

               *****************************************************
               *                     SUCCESS                       *
               *           SCF CONVERGED AFTER  12 CYCLES          *
               *****************************************************

Old exchange energy                            =     -3.658198102 Eh
New exchange energy                            =     -3.658255223 Eh
Exchange energy change after final integration =     -0.000057121 Eh
Total energy after final integration           =   -114.882481673 Eh
Final COS-X integration done in                =     0.166 sec

----------------
TOTAL SCF ENERGY
----------------

Total Energy       :         -114.88248167 Eh           -3126.11125 eV

Components:
Nuclear Repulsion  :           34.63898966 Eh             942.57483 eV
Electronic Energy  :         -149.52147133 Eh           -4068.68608 eV
One Electron Energy:         -230.00346968 Eh           -6258.71260 eV
Two Electron Energy:           80.48199835 Eh            2190.02651 eV
Max COSX asymmetry :            0.00000092 Eh               0.00003 eV

Virial components:
Potential Energy   :         -228.93158967 Eh           -6229.54526 eV
Kinetic Energy     :          114.04910799 Eh            3103.43400 eV
Virial Ratio       :            2.00730715


DFT components:
N(Alpha)           :        9.000236099598 electrons
N(Beta)            :        9.000236099598 electrons
N(Total)           :       18.000472199197 electrons
E(X)               :      -10.966856171078 Eh       
E(C)               :       -0.578842420093 Eh       
E(XC)              :      -11.545698591171 Eh       
DFET-embed. en.    :        0.000000000000 Eh       

---------------
SCF CONVERGENCE
---------------

  Last Energy change         ...    2.3130e-10  Tolerance :   1.0000e-08
  Last MAX-Density change    ...    8.8818e-16  Tolerance :   1.0000e-07
  Last RMS-Density change    ...    3.5355e-17  Tolerance :   5.0000e-09
  Last Orbital Gradient      ...    1.4276e-06  Tolerance :   1.0000e-05
  Last Orbital Rotation      ...    8.6578e-07  Tolerance :   1.0000e-05

             **** THE GBW FILE WAS UPDATED (18Feb_SVPD_PBE0_A_wt_wb97_typm1_neg.gbw) ****
             **** DENSITY 18Feb_SVPD_PBE0_A_wt_wb97_typm1_neg.scfp WAS UPDATED ****
             **** ENERGY FILE WAS UPDATED (18Feb_SVPD_PBE0_A_wt_wb97_typm1_neg.en.tmp) ****
             **** THE GBW FILE WAS UPDATED (18Feb_SVPD_PBE0_A_wt_wb97_typm1_neg.gbw) ****
             **** DENSITY 18Feb_SVPD_PBE0_A_wt_wb97_typm1_neg.scfp WAS UPDATED ****
----------------
ORBITAL ENERGIES
----------------

  NO   OCC          E(Eh)            E(eV) 
   0   2.0000     -18.861157      -513.2382 
   1   2.0000     -10.015585      -272.5379 
   2   2.0000      -0.671779       -18.2800 
   3   2.0000      -0.408792       -11.1238 
   4   2.0000      -0.207525        -5.6470 
   5   2.0000      -0.207504        -5.6465 
   6   2.0000      -0.110751        -3.0137 
   7   2.0000       0.041135         1.1194 
   8   2.0000       0.041146         1.1196 
   9   0.0000       0.205154         5.5825 
  10   0.0000       0.277407         7.5486 
  11   0.0000       0.277408         7.5487 
  12   0.0000       0.285480         7.7683 
  13   0.0000       0.321139         8.7386 
  14   0.0000       0.355463         9.6727 
  15   0.0000       0.355468         9.6728 
  16   0.0000       0.359601         9.7852 
  17   0.0000       0.359606         9.7854 
  18   0.0000       0.467176        12.7125 
  19   0.0000       0.501569        13.6484 
  20   0.0000       0.501573        13.6485 
  21   0.0000       0.515718        14.0334 
  22   0.0000       0.543469        14.7885 
  23   0.0000       0.567755        15.4494 
  24   0.0000       0.577918        15.7259 
  25   0.0000       0.577921        15.7260 
  26   0.0000       0.618429        16.8283 
  27   0.0000       0.618437        16.8285 
  28   0.0000       0.626866        17.0579 
  29   0.0000       0.659601        17.9487 
  30   0.0000       0.731746        19.9118 
  31   0.0000       0.731760        19.9122 
  32   0.0000       0.816616        22.2212 
  33   0.0000       0.855122        23.2691 
  34   0.0000       0.855138        23.2695 
  35   0.0000       0.876268        23.8445 
  36   0.0000       0.876290        23.8451 
  37   0.0000       1.112972        30.2855 
  38   0.0000       1.123728        30.5782 
  39   0.0000       1.134375        30.8679 
  40   0.0000       1.134399        30.8686 
  41   0.0000       1.228796        33.4372 
  42   0.0000       1.228838        33.4384 
  43   0.0000       1.313318        35.7372 
  44   0.0000       1.718000        46.7492 
  45   0.0000       1.744582        47.4725 
  46   0.0000       1.744601        47.4730 
  47   0.0000       1.833841        49.9013 
  48   0.0000       1.833931        49.9038 
  49   0.0000       1.905325        51.8465 
  50   0.0000       2.141190        58.2647 
  51   0.0000       2.196567        59.7716 
  52   0.0000       2.196626        59.7732 
  53   0.0000       2.245803        61.1114 
  54   0.0000       2.274159        61.8830 
  55   0.0000       2.274183        61.8837 
  56   0.0000       2.570399        69.9441 
  57   0.0000       2.732116        74.3447 
  58   0.0000       2.732130        74.3450 
  59   0.0000       3.084805        83.9418 
  60   0.0000       3.182164        86.5911 
  61   0.0000       3.182213        86.5924 
  62   0.0000       3.361300        91.4656 
  63   0.0000       3.361313        91.4660 
  64   0.0000       3.466257        94.3216 
  65   0.0000       3.466299        94.3228 
  66   0.0000       3.820335       103.9566 

                    ********************************
                    * MULLIKEN POPULATION ANALYSIS *
                    ********************************

-----------------------
MULLIKEN ATOMIC CHARGES
-----------------------
   0 C :    0.704764
   1 O :   -1.061811
   2 H :   -0.214091
   3 H :   -0.214644
   4 H :   -0.214218
Sum of atomic charges:   -1.0000000

--------------------------------
MULLIKEN REDUCED ORBITAL CHARGES
--------------------------------
  0 C s       :     2.627677  s :     2.627677
      pz      :     0.839922  p :     2.570878
      px      :     0.873489
      py      :     0.857467
      dz2     :     0.039281  d :     0.096681
      dxz     :     0.022888
      dyz     :     0.014448
      dx2y2   :     0.014313
      dxy     :     0.005751
  1 O s       :     3.939332  s :     3.939332
      pz      :     1.529033  p :     5.075229
      px      :     1.849517
      py      :     1.696679
      dz2     :     0.014013  d :     0.047250
      dxz     :     0.012315
      dyz     :     0.006156
      dx2y2   :     0.013346
      dxy     :     0.001420
  2 H s       :     1.115503  s :     1.115503
      pz      :     0.061446  p :     0.098588
      px      :     0.031157
      py      :     0.005985
  3 H s       :     1.116068  s :     1.116068
      pz      :     0.013832  p :     0.098576
      px      :     0.074466
      py      :     0.010279
  4 H s       :     1.115737  s :     1.115737
      pz      :     0.020101  p :     0.098481
      px      :    -0.003971
      py      :     0.082351


                     *******************************
                     * LOEWDIN POPULATION ANALYSIS *
                     *******************************

----------------------
LOEWDIN ATOMIC CHARGES
----------------------
   0 C :   -0.113913
   1 O :   -0.653931
   2 H :   -0.077372
   3 H :   -0.077409
   4 H :   -0.077374

-------------------------------
LOEWDIN REDUCED ORBITAL CHARGES
-------------------------------
  0 C s       :     2.727275  s :     2.727275
      pz      :     0.868410  p :     2.645856
      px      :     0.895089
      py      :     0.882357
      dz2     :     0.208935  d :     0.740782
      dxz     :     0.179747
      dyz     :     0.116140
      dx2y2   :     0.182022
      dxy     :     0.053937
  1 O s       :     3.542716  s :     3.542716
      pz      :     1.526402  p :     4.840528
      px      :     1.697981
      py      :     1.616145
      dz2     :     0.079682  d :     0.270688
      dxz     :     0.059581
      dyz     :     0.057278
      dx2y2   :     0.046094
      dxy     :     0.028053
  2 H s       :     0.775679  s :     0.775679
      pz      :     0.127096  p :     0.301693
      px      :     0.099627
      py      :     0.074970
  3 H s       :     0.775715  s :     0.775715
      pz      :     0.079053  p :     0.301694
      px      :     0.146165
      py      :     0.076475
  4 H s       :     0.775691  s :     0.775691
      pz      :     0.072155  p :     0.301683
      px      :     0.078574
      py      :     0.150954


                      *****************************
                      * MAYER POPULATION ANALYSIS *
                      *****************************

  NA   - Mulliken gross atomic population
  ZA   - Total nuclear charge
  QA   - Mulliken gross atomic charge
  VA   - Mayer's total valence
  BVA  - Mayer's bonded valence
  FA   - Mayer's free valence

  ATOM       NA         ZA         QA         VA         BVA        FA
  0 C      5.2952     6.0000     0.7048     3.9365     3.9365    -0.0000
  1 O      9.0618     8.0000    -1.0618     1.2985     1.2985    -0.0000
  2 H      1.2141     1.0000    -0.2141     1.1228     1.1228    -0.0000
  3 H      1.2146     1.0000    -0.2146     1.1222     1.1222     0.0000
  4 H      1.2142     1.0000    -0.2142     1.1223     1.1223    -0.0000

  Mayer bond orders larger than 0.100000
B(  0-C ,  1-O ) :   1.1213 B(  0-C ,  2-H ) :   0.9384 B(  0-C ,  3-H ) :   0.9385 
B(  0-C ,  4-H ) :   0.9383 

-------
TIMINGS
-------

Total SCF time: 0 days 0 hours 0 min 2 sec 

Total time                  ....       2.309 sec
Sum of individual times     ....       2.193 sec  ( 95.0%)

Fock matrix formation       ....       1.877 sec  ( 81.3%)
  Split-RI-J                ....       0.205 sec  ( 10.9% of F)
  Chain of spheres X        ....       1.152 sec  ( 61.4% of F)
  XC integration            ....       0.483 sec  ( 25.8% of F)
    Basis function eval.    ....       0.174 sec  ( 35.9% of XC)
    Density eval.           ....       0.088 sec  ( 18.1% of XC)
    XC-Functional eval.     ....       0.073 sec  ( 15.1% of XC)
    XC-Potential eval.      ....       0.110 sec  ( 22.8% of XC)
Diagonalization             ....       0.011 sec  (  0.5%)
Density matrix formation    ....       0.001 sec  (  0.0%)
Population analysis         ....       0.002 sec  (  0.1%)
Initial guess               ....       0.019 sec  (  0.8%)
Orbital Transformation      ....       0.000 sec  (  0.0%)
Orbital Orthonormalization  ....       0.000 sec  (  0.0%)
DIIS solution               ....       0.010 sec  (  0.4%)
SOSCF solution              ....       0.010 sec  (  0.4%)
Grid generation             ....       0.262 sec  ( 11.4%)

Maximum memory used throughout the entire SCF-calculation: 44.4 MB


-------------------------------------------------------------------------------
                          DFT DISPERSION CORRECTION                            
                                                                               
                              DFTD3 V3.1  Rev 1                                
                          USING Becke-Johnson damping                          
-------------------------------------------------------------------------------
The PBE0 functional is recognized
Active option DFTDOPT                   ...         4   

molecular C6(AA) [au] = 170.925925 


            DFT-D V3
 parameters
 s6 scaling factor         :     1.0000 
 a1 scaling factor         :     0.4145 
 s8 scaling factor         :     1.2177 
 a2 scaling factor         :     4.8593 
 ad hoc parameters k1-k3   :    16.0000     1.3333    -4.0000 

 Edisp/kcal,au: -0.729891830582  -0.001163156546 
 E6   /kcal   :  -0.489133835 
 E8   /kcal   :  -0.240757995 
 % E8         :  32.985434994 

-------------------------   ----------------
Dispersion correction           -0.001163157
-------------------------   ----------------


-------------------------   --------------------
FINAL SINGLE POINT ENERGY      -114.883644829451
-------------------------   --------------------


                            ***************************************
                            *     ORCA property calculations      *
                            ***************************************

                                    ---------------------
                                    Active property flags
                                    ---------------------
   (+) Dipole Moment


------------------------------------------------------------------------------
                       ORCA ELECTRIC PROPERTIES CALCULATION
------------------------------------------------------------------------------

Dipole Moment Calculation                       ... on
Quadrupole Moment Calculation                   ... off
Polarizability Calculation                      ... off
GBWName                                         ... 18Feb_SVPD_PBE0_A_wt_wb97_typm1_neg.gbw
Electron density file                           ... 18Feb_SVPD_PBE0_A_wt_wb97_typm1_neg.scfp
The origin for moment calculation is the CENTER OF MASS  = ( 0.934926, -2.508231 -3.807412)

-------------
DIPOLE MOMENT
-------------
                                X             Y             Z
Electronic contribution:      0.57515       1.06579       1.42103
Nuclear contribution   :     -0.89006      -1.64923      -2.19886
                        -----------------------------------------
Total Dipole Moment    :     -0.31491      -0.58344      -0.77783
                        -----------------------------------------
Magnitude (a.u.)       :      1.02205
Magnitude (Debye)      :      2.59785



--------------------
Rotational spectrum 
--------------------
 
Rotational constants in cm-1:     5.477712     0.934243     0.934241 
Rotational constants in MHz : 164217.678885 28007.889263 28007.851448 

 Dipole components along the rotational axes: 
x,y,z [a.u.] :    -1.022054     0.000011     0.000053 
x,y,z [Debye]:    -2.597855     0.000028     0.000134 

 

Timings for individual modules:

Sum of individual times         ...        3.108 sec (=   0.052 min)
GTO integral calculation        ...        0.472 sec (=   0.008 min)  15.2 %
SCF iterations                  ...        2.637 sec (=   0.044 min)  84.8 %
                             ****ORCA TERMINATED NORMALLY****
TOTAL RUN TIME: 0 days 0 hours 0 minutes 3 seconds 581 msec
