
                                        *****************
                                        * O   R   C   A *
                                        *****************

                                            #,                                       
                                            ###                                      
                                            ####                                     
                                            #####                                    
                                            ######                                   
                                           ########,                                 
                                     ,,################,,,,,                         
                               ,,#################################,,                 
                          ,,##########################################,,             
                       ,#########################################, ''#####,          
                    ,#############################################,,   '####,        
                  ,##################################################,,,,####,       
                ,###########''''           ''''###############################       
              ,#####''   ,,,,##########,,,,          '''####'''          '####       
            ,##' ,,,,###########################,,,                        '##       
           ' ,,###''''                  '''############,,,                           
         ,,##''                                '''############,,,,        ,,,,,,###''
      ,#''                                            '''#######################'''  
     '                                                          ''''####''''         
             ,#######,   #######,   ,#######,      ##                                
            ,#'     '#,  ##    ##  ,#'     '#,    #''#        ######   ,####,        
            ##       ##  ##   ,#'  ##            #'  '#       #        #'  '#        
            ##       ##  #######   ##           ,######,      #####,   #    #        
            '#,     ,#'  ##    ##  '#,     ,#' ,#      #,         ##   #,  ,#        
             '#######'   ##     ##  '#######'  #'      '#     #####' # '####'        



                  #######################################################
                  #                        -***-                        #
                  #          Department of theory and spectroscopy      #
                  #    Directorship and core code : Frank Neese         #
                  #        Max Planck Institute fuer Kohlenforschung    #
                  #                Kaiser Wilhelm Platz 1               #
                  #                 D-45470 Muelheim/Ruhr               #
                  #                      Germany                        #
                  #                                                     #
                  #                  All rights reserved                #
                  #                        -***-                        #
                  #######################################################


                         Program Version 5.0.0 -  RELEASE  -
                                (SVN: $Rev: 19529$)
                ($Date: 2021-06-28 11:36:33 +0200 (Mo, 28 Jun 2021) $)


 With contributions from (in alphabetic order):
   Daniel Aravena         : Magnetic Suceptibility
   Michael Atanasov       : Ab Initio Ligand Field Theory (pilot matlab implementation)
   Alexander A. Auer      : GIAO ZORA, VPT2 properties, NMR spectrum
   Ute Becker             : Parallelization
   Giovanni Bistoni       : ED, misc. LED, open-shell LED, HFLD
   Martin Brehm           : Molecular dynamics
   Dmytro Bykov           : SCF Hessian
   Vijay G. Chilkuri      : MRCI spin determinant printing, contributions to CSF-ICE
   Dipayan Datta          : RHF DLPNO-CCSD density
   Achintya Kumar Dutta   : EOM-CC, STEOM-CC
   Dmitry Ganyushin       : Spin-Orbit,Spin-Spin,Magnetic field MRCI
   Miquel Garcia          : C-PCM Hessian, Gaussian charge scheme
   Yang Guo               : DLPNO-NEVPT2, F12-NEVPT2, CIM, IAO-localization
   Andreas Hansen         : Spin unrestricted coupled pair/coupled cluster methods
   Benjamin Helmich-Paris : MC-RPA, TRAH-SCF, COSX integrals
   Lee Huntington         : MR-EOM, pCC
   Robert Izsak           : Overlap fitted RIJCOSX, COSX-SCS-MP3, EOM
   Marcus Kettner         : VPT2
   Christian Kollmar      : KDIIS, OOCD, Brueckner-CCSD(T), CCSD density, CASPT2, CASPT2-K
   Simone Kossmann        : Meta GGA functionals, TD-DFT gradient, OOMP2, MP2 Hessian
   Martin Krupicka        : Initial AUTO-CI
   Lucas Lang             : DCDCAS
   Marvin Lechner         : AUTO-CI (C++ implementation), FIC-MRCC
   Dagmar Lenk            : GEPOL surface, SMD
   Dimitrios Liakos       : Extrapolation schemes; Compound Job, initial MDCI parallelization
   Dimitrios Manganas     : Further ROCIS development; embedding schemes
   Dimitrios Pantazis     : SARC Basis sets
   Anastasios Papadopoulos: AUTO-CI, single reference methods and gradients
   Taras Petrenko         : DFT Hessian,TD-DFT gradient, ASA, ECA, R-Raman, ABS, FL, XAS/XES, NRVS
   Peter Pinski           : DLPNO-MP2, DLPNO-MP2 Gradient
   Christoph Reimann      : Effective Core Potentials
   Marius Retegan         : Local ZFS, SOC
   Christoph Riplinger    : Optimizer, TS searches, QM/MM, DLPNO-CCSD(T), (RO)-DLPNO pert. Triples
   Tobias Risthaus        : Range-separated hybrids, TD-DFT gradient, RPA, STAB
   Michael Roemelt        : Original ROCIS implementation
   Masaaki Saitow         : Open-shell DLPNO-CCSD energy and density
   Barbara Sandhoefer     : DKH picture change effects
   Avijit Sen             : IP-ROCIS
   Kantharuban Sivalingam : CASSCF convergence, NEVPT2, FIC-MRCI
   Bernardo de Souza      : ESD, SOC TD-DFT
   Georgi Stoychev        : AutoAux, RI-MP2 NMR
   Willem Van den Heuvel  : Paramagnetic NMR
   Boris Wezisla          : Elementary symmetry handling
   Frank Wennmohs         : Technical directorship


 We gratefully acknowledge several colleagues who have allowed us to
 interface, adapt or use parts of their codes:
   Stefan Grimme, W. Hujo, H. Kruse, P. Pracht,  : VdW corrections, initial TS optimization,
                  C. Bannwarth, S. Ehlert          DFT functionals, gCP, sTDA/sTD-DF
   Ed Valeev, F. Pavosevic, A. Kumar             : LibInt (2-el integral package), F12 methods
   Garnet Chan, S. Sharma, J. Yang, R. Olivares  : DMRG
   Ulf Ekstrom                                   : XCFun DFT Library
   Mihaly Kallay                                 : mrcc  (arbitrary order and MRCC methods)
   Jiri Pittner, Ondrej Demel                    : Mk-CCSD
   Frank Weinhold                                : gennbo (NPA and NBO analysis)
   Christopher J. Cramer and Donald G. Truhlar   : smd solvation model
   Lars Goerigk                                  : TD-DFT with DH, B97 family of functionals
   V. Asgeirsson, H. Jonsson                     : NEB implementation
   FAccTs GmbH                                   : IRC, NEB, NEB-TS, DLPNO-Multilevel, CI-OPT
                                                   MM, QMMM, 2- and 3-layer-ONIOM, Crystal-QMMM,
                                                   LR-CPCM, SF, NACMEs, symmetry and pop. for TD-DFT,
                                                   nearIR, NL-DFT gradient (VV10), updates on ESD,
                                                   ML-optimized integration grids
   S Lehtola, MJT Oliveira, MAL Marques          : LibXC Library
   Liviu Ungur et al                             : ANISO software


 Your calculation uses the libint2 library for the computation of 2-el integrals
 For citations please refer to: http://libint.valeyev.net

 Your ORCA version has been built with support for libXC version: 5.1.0
 For citations please refer to: https://tddft.org/programs/libxc/

 This ORCA versions uses:
   CBLAS   interface :  Fast vector & matrix operations
   LAPACKE interface :  Fast linear algebra routines
   SCALAPACK package :  Parallel linear algebra routines
   Shared memory     :  Shared parallel matrices
   BLAS/LAPACK       :  OpenBLAS 0.3.15  USE64BITINT DYNAMIC_ARCH NO_AFFINITY Haswell SINGLE_THREADED
        Core in use  :  Haswell
   Copyright (c) 2011-2014, The OpenBLAS Project




***************************************
The coordinates will be read from file: D3.xyz
***************************************


Your calculation utilizes the atom-pairwise dispersion correction
with the Becke-Johnson damping scheme (D3BJ)
Cite in your paper:
S.Grimme, S.Ehrlich, L.Goerigk, J Comput Chem, (2011), 32, 1456–1465 
S.Grimme, J.Antony, S.Ehrlich and H.Krieg, J.Chem.Phys., 132, (2010), 154104 
   

================================================================================

----- Orbital basis set information -----
Your calculation utilizes the basis: def2-TZVPD
   F. Weigend and R. Ahlrichs, Phys. Chem. Chem. Phys. 7, 3297 (2005).
   D. Rappoport and F. Furche, J. Chem. Phys. 133 134105 (2010).

----- AuxJ basis set information -----
Your calculation utilizes the auxiliary basis: def2/J
   F. Weigend, Phys. Chem. Chem. Phys. 8, 1057 (2006).

================================================================================
                                        WARNINGS
                       Please study these warnings very carefully!
================================================================================



WARNING: Found flag for RIJCOSX approximation but no HF exchange needed!
  ===> : RIJCOSX  will be disabled and Split-RI-J is turned on

INFO   : the flag for use of the SHARK integral package has been found!

================================================================================
                                       INPUT FILE
================================================================================
NAME = 28Oct_TZVPD_TPSS_D3_wb97.com
|  1> !TPSS D3BJ RIJCOSX def2-TZVPD def2/J TightSCF xyzfile                                                                                         
|  2> 
|  3> *xyzfile 0 1 D3.xyz
|  4> 
|  5> %MaxCore 64000
|  6> 
|  7> %pal nprocs 4                                                                                                                                                  
|  8> end  
|  9> 
| 10> %scf
| 11>   MaxIter 150
| 12> end
| 13> 
| 14> 
| 15>                          ****END OF INPUT****
================================================================================

                       ****************************
                       * Single Point Calculation *
                       ****************************

---------------------------------
CARTESIAN COORDINATES (ANGSTROEM)
---------------------------------
  C      2.486452   -2.677121   -2.563447
  C     -0.870963    0.248043   -2.662804
  C     -0.477492    0.608191   -4.101052
  H      0.206773    1.458299   -4.118748
  H     -1.368442    0.929419   -4.647855
  C      0.184673   -0.506640   -4.916760
  C      3.037640   -2.366715   -3.923509
  C      2.280360   -2.454408   -4.967692
  N      4.321736   -2.017932   -4.016641
  H      4.879940   -1.911668   -3.173823
  H      4.710148   -1.670882   -4.883561
  H      1.270423   -2.412650   -4.866143
  H      2.581829   -2.055282   -5.846878
  O     -0.158685   -1.701088   -4.657981
  F      1.055938   -0.174410   -5.740373
  C      2.497991   -1.469464   -1.610303
  C      1.582841   -0.321986   -2.042619
  H      2.193083   -1.833912   -0.625420
  H      3.523356   -1.103982   -1.490392
  C      0.100160   -0.673551   -1.915815
  H      1.822311   -0.040361   -3.072834
  H      1.813180    0.557019   -1.433266
  H     -0.063284   -1.679120   -2.301112
  H     -0.168820   -0.691680   -0.853831
  H     -1.001048    1.181040   -2.104071
  H     -1.844645   -0.246592   -2.663281
  H      1.472592   -3.051527   -2.694366
  H      3.083201   -3.490638   -2.141472

----------------------------
CARTESIAN COORDINATES (A.U.)
----------------------------
  NO LB      ZA    FRAG     MASS         X           Y           Z
   0 C     6.0000    0    12.011    4.698713   -5.059026   -4.844214
   1 C     6.0000    0    12.011   -1.645881    0.468734   -5.031970
   2 C     6.0000    0    12.011   -0.902329    1.149314   -7.749864
   3 H     1.0000    0     1.008    0.390744    2.755786   -7.783305
   4 H     1.0000    0     1.008   -2.585980    1.756347   -8.783173
   5 C     6.0000    0    12.011    0.348982   -0.957411   -9.291330
   6 C     6.0000    0    12.011    5.740308   -4.472444   -7.414358
   7 C     6.0000    0    12.011    4.309256   -4.638160   -9.387577
   8 N     7.0000    0    14.007    8.166898   -3.813339   -7.590352
   9 H     1.0000    0     1.008    9.221751   -3.612530   -5.997657
  10 H     1.0000    0     1.008    8.900891   -3.157510   -9.228594
  11 H     1.0000    0     1.008    2.400752   -4.559248   -9.195678
  12 H     1.0000    0     1.008    4.878950   -3.883920  -11.048997
  13 O     8.0000    0    15.999   -0.299872   -3.214590   -8.802309
  14 F     9.0000    0    18.998    1.995434   -0.329587  -10.847733
  15 C     6.0000    0    12.011    4.720518   -2.776884   -3.043032
  16 C     6.0000    0    12.011    2.991136   -0.608465   -3.859991
  17 H     1.0000    0     1.008    4.144326   -3.465591   -1.181872
  18 H     1.0000    0     1.008    6.658177   -2.086223   -2.816433
  19 C     6.0000    0    12.011    0.189274   -1.272828   -3.620365
  20 H     1.0000    0     1.008    3.443670   -0.076270   -5.806816
  21 H     1.0000    0     1.008    3.426413    1.052613   -2.708480
  22 H     1.0000    0     1.008   -0.119590   -3.173077   -4.348471
  23 H     1.0000    0     1.008   -0.319023   -1.307086   -1.613507
  24 H     1.0000    0     1.008   -1.891707    2.231842   -3.976118
  25 H     1.0000    0     1.008   -3.485874   -0.465991   -5.032871
  26 H     1.0000    0     1.008    2.782796   -5.766551   -5.091613
  27 H     1.0000    0     1.008    5.826406   -6.596350   -4.046796

--------------------------------
INTERNAL COORDINATES (ANGSTROEM)
--------------------------------
 C      0   0   0     0.000000000000     0.00000000     0.00000000
 C      1   0   0     4.454064584838     0.00000000     0.00000000
 C      2   1   0     1.533976128106    88.95459771     0.00000000
 H      3   2   1     1.091428365082   111.03171716   267.18333495
 H      3   2   1     1.093605109075   109.19532305   150.78855748
 C      3   2   1     1.531891446481   116.05722258    29.22456704
 C      1   2   3     1.499976287048    96.94160158     3.38330059
 C      7   1   2     1.292857194550   120.20153047   303.68195089
 N      7   1   2     1.333876682499   118.11023474   124.45999682
 H      9   7   1     1.016476835198   119.87469438   356.11519397
 H      9   7   1     1.011364586483   121.28466771   188.91527382
 H      8   7   1     1.015888226098   119.91986722    21.20577831
 H      8   7   1     1.011510284844   120.04373343   166.48528981
 O      6   3   2     1.269474918861   117.34059584    31.12063894
 F      6   3   2     1.244113151722   117.44399281   214.04914813
 C      1   2   3     1.538522864266    60.26212524   116.36906125
 C     16   1   2     1.530066108002   114.15104694   340.47209586
 H     16   1   2     1.093520442632   107.11405723   102.15692623
 H     16   1   2     1.095138864356   109.68305791   216.63029446
 C     17  16   1     1.529059344857   112.58830136    69.60978898
 H     17  16   1     1.094532649112   109.15039882   306.58294366
 H     17  16   1     1.094082501574   108.61687115   191.73619769
 H     20  17  16     1.089190578302   109.17429135   316.14372051
 H     20  17  16     1.095667243895   108.79798208    72.47390166
 H      2   1   3     1.095256859472   129.61268061   247.30838146
 H      2   1   3     1.092117796530   111.99987238   110.70635839
 H      1   2   3     1.088683249565    61.39264096   256.95470119
 H      1   2   3     1.093610044098   155.29380908   188.74897233

---------------------------
INTERNAL COORDINATES (A.U.)
---------------------------
 C      0   0   0     0.000000000000     0.00000000     0.00000000
 C      1   0   0     8.416962248141     0.00000000     0.00000000
 C      2   1   0     2.898794778093    88.95459771     0.00000000
 H      3   2   1     2.062500704798   111.03171716   267.18333495
 H      3   2   1     2.066614154809   109.19532305   150.78855748
 C      3   2   1     2.894855300746   116.05722258    29.22456704
 C      1   2   3     2.834544389897    96.94160158     3.38330059
 C      7   1   2     2.443146027969   120.20153047   303.68195089
 N      7   1   2     2.520661626346   118.11023474   124.45999682
 H      9   7   1     1.920862840000   119.87469438   356.11519397
 H      9   7   1     1.911202090000   121.28466771   188.91527382
 H      8   7   1     1.919750530000   119.91986722    21.20577831
 H      8   7   1     1.911477420000   120.04373343   166.48528981
 O      6   3   2     2.398959930530   117.34059584    31.12063894
 F      6   3   2     2.351033136364   117.44399281   214.04914813
 C      1   2   3     2.907386864238    60.26212524   116.36906125
 C     16   1   2     2.891405910918   114.15104694   340.47209586
 H     16   1   2     2.066454158419   107.11405723   102.15692623
 H     16   1   2     2.069512532246   109.68305791   216.63029446
 C     17  16   1     2.889503404292   112.58830136    69.60978898
 H     17  16   1     2.068366951457   109.15039882   306.58294366
 H     17  16   1     2.067516295890   108.61687115   191.73619769
 H     20  17  16     2.058271900637   109.17429135   316.14372051
 H     20  17  16     2.070511024871   108.79798208    72.47390166
 H      2   1   3     2.069735510701   129.61268061   247.30838146
 H      2   1   3     2.063803541424   111.99987238   110.70635839
 H      1   2   3     2.057313188266    61.39264096   256.95470119
 H      1   2   3     2.066623480650   155.29380908   188.74897233

---------------------
BASIS SET INFORMATION
---------------------
There are 5 groups of distinct atoms

 Group   1 Type C   : 12s6p3d1f contracted to 6s3p3d1f pattern {621111/411/111/1}
 Group   2 Type H   : 5s2p contracted to 3s2p pattern {311/11}
 Group   3 Type N   : 12s6p3d1f contracted to 6s3p3d1f pattern {621111/411/111/1}
 Group   4 Type O   : 12s7p3d1f contracted to 6s4p3d1f pattern {621111/4111/111/1}
 Group   5 Type F   : 12s7p3d1f contracted to 6s4p3d1f pattern {621111/4111/111/1}

Atom   0C    basis set group =>   1
Atom   1C    basis set group =>   1
Atom   2C    basis set group =>   1
Atom   3H    basis set group =>   2
Atom   4H    basis set group =>   2
Atom   5C    basis set group =>   1
Atom   6C    basis set group =>   1
Atom   7C    basis set group =>   1
Atom   8N    basis set group =>   3
Atom   9H    basis set group =>   2
Atom  10H    basis set group =>   2
Atom  11H    basis set group =>   2
Atom  12H    basis set group =>   2
Atom  13O    basis set group =>   4
Atom  14F    basis set group =>   5
Atom  15C    basis set group =>   1
Atom  16C    basis set group =>   1
Atom  17H    basis set group =>   2
Atom  18H    basis set group =>   2
Atom  19C    basis set group =>   1
Atom  20H    basis set group =>   2
Atom  21H    basis set group =>   2
Atom  22H    basis set group =>   2
Atom  23H    basis set group =>   2
Atom  24H    basis set group =>   2
Atom  25H    basis set group =>   2
Atom  26H    basis set group =>   2
Atom  27H    basis set group =>   2
---------------------------------
AUXILIARY/J BASIS SET INFORMATION
---------------------------------
There are 5 groups of distinct atoms

 Group   1 Type C   : 12s5p4d2f1g contracted to 6s4p3d1f1g pattern {711111/2111/211/2/1}
 Group   2 Type H   : 5s2p1d contracted to 3s1p1d pattern {311/2/1}
 Group   3 Type N   : 12s5p4d2f1g contracted to 6s4p3d1f1g pattern {711111/2111/211/2/1}
 Group   4 Type O   : 12s5p4d2f1g contracted to 6s4p3d1f1g pattern {711111/2111/211/2/1}
 Group   5 Type F   : 12s5p4d2f1g contracted to 6s4p3d1f1g pattern {711111/2111/211/2/1}

Atom   0C    basis set group =>   1
Atom   1C    basis set group =>   1
Atom   2C    basis set group =>   1
Atom   3H    basis set group =>   2
Atom   4H    basis set group =>   2
Atom   5C    basis set group =>   1
Atom   6C    basis set group =>   1
Atom   7C    basis set group =>   1
Atom   8N    basis set group =>   3
Atom   9H    basis set group =>   2
Atom  10H    basis set group =>   2
Atom  11H    basis set group =>   2
Atom  12H    basis set group =>   2
Atom  13O    basis set group =>   4
Atom  14F    basis set group =>   5
Atom  15C    basis set group =>   1
Atom  16C    basis set group =>   1
Atom  17H    basis set group =>   2
Atom  18H    basis set group =>   2
Atom  19C    basis set group =>   1
Atom  20H    basis set group =>   2
Atom  21H    basis set group =>   2
Atom  22H    basis set group =>   2
Atom  23H    basis set group =>   2
Atom  24H    basis set group =>   2
Atom  25H    basis set group =>   2
Atom  26H    basis set group =>   2
Atom  27H    basis set group =>   2


           ************************************************************
           *        Program running with 4 parallel MPI-processes     *
           *              working on a common directory               *
           ************************************************************
------------------------------------------------------------------------------
                           ORCA GTO INTEGRAL CALCULATION
                           -- RI-GTO INTEGRALS CHOSEN --
------------------------------------------------------------------------------
------------------------------------------------------------------------------
                   ___                                                        
                  /   \      - P O W E R E D   B Y -                         
                 /     \                                                     
                 |  |  |   _    _      __       _____    __    __             
                 |  |  |  | |  | |    /  \     |  _  \  |  |  /  |          
                  \  \/   | |  | |   /    \    | | | |  |  | /  /          
                 / \  \   | |__| |  /  /\  \   | |_| |  |  |/  /          
                |  |  |   |  __  | /  /__\  \  |    /   |      \           
                |  |  |   | |  | | |   __   |  |    \   |  |\   \          
                \     /   | |  | | |  |  |  |  | |\  \  |  | \   \       
                 \___/    |_|  |_| |__|  |__|  |_| \__\ |__|  \__/        
                                                                              
                      - O R C A' S   B I G   F R I E N D -                    
                                      &                                       
                       - I N T E G R A L  F E E D E R -                       
                                                                              
 v1 FN, 2020, v2 2021                                                         
------------------------------------------------------------------------------


Reading SHARK input file 28Oct_TZVPD_TPSS_D3_wb97.SHARKINP.tmp ... ok
----------------------
SHARK INTEGRAL PACKAGE
----------------------

Number of atoms                             ...     28
Number of basis functions                   ...    594
Number of shells                            ...    238
Maximum angular momentum                    ...      3
Integral batch strategy                     ... SHARK/LIBINT Hybrid
RI-J (if used) integral strategy            ... SPLIT-RIJ (Revised 2003 algorithm where possible)
Printlevel                                  ...      1
Contraction scheme used                     ... SEGMENTED contraction
Coulomb Range Separation                    ... NOT USED
Exchange Range Separation                   ... NOT USED
Finite Nucleus Model                        ... NOT USED
Auxiliary Coulomb fitting basis             ... AVAILABLE
   # of basis functions in Aux-J            ...    764
   # of shells in Aux-J                     ...    260
   Maximum angular momentum in Aux-J        ...      4
Auxiliary J/K fitting basis                 ... NOT available
Auxiliary Correlation fitting basis         ... NOT available
Auxiliary 'external' fitting basis          ... NOT available
Integral threshold                          ...     2.500000e-11
Primitive cut-off                           ...     2.500000e-12
Primitive pair pre-selection threshold      ...     2.500000e-12

Calculating pre-screening integrals         ... done (  0.2 sec) Dimension = 238
Organizing shell pair data                  ... done (  0.3 sec)
Shell pair information
Total number of shell pairs                 ...     28441
Shell pairs after pre-screening             ...     25935
Total number of primitive shell pairs       ...     71943
Primitive shell pairs kept                  ...     50441
          la=0 lb=0:   6336 shell pairs
          la=1 lb=0:   7722 shell pairs
          la=1 lb=1:   2366 shell pairs
          la=2 lb=0:   3986 shell pairs
          la=2 lb=1:   2405 shell pairs
          la=2 lb=2:    637 shell pairs
          la=3 lb=0:   1231 shell pairs
          la=3 lb=1:    774 shell pairs
          la=3 lb=2:    407 shell pairs
          la=3 lb=3:     71 shell pairs

Calculating one electron integrals          ... done (  0.1 sec)
Calculating RI/J V-Matrix + Cholesky decomp.... done (  0.0 sec)
Calculating Nuclear repulsion               ... done (  0.0 sec) ENN=    782.550444500356 Eh

SHARK setup successfully completed in   0.8 seconds

Maximum memory used throughout the entire GTOINT-calculation: 38.0 MB


           ************************************************************
           *        Program running with 4 parallel MPI-processes     *
           *              working on a common directory               *
           ************************************************************
-------------------------------------------------------------------------------
                                 ORCA SCF
-------------------------------------------------------------------------------

------------
SCF SETTINGS
------------
Hamiltonian:
 Density Functional     Method          .... DFT(GTOs)
 Exchange Functional    Exchange        .... TPSS
 Correlation Functional Correlation     .... TPSS
 LDA part of GGA corr.  LDAOpt          .... PW91-LDA
 Gradients option       PostSCFGGA      .... off
   Density functional embedding theory  .... OFF
   NL short-range parameter             ....  5.000000
 RI-approximation to the Coulomb term is turned on
   Number of AuxJ basis functions       .... 764


General Settings:
 Integral files         IntName         .... 28Oct_TZVPD_TPSS_D3_wb97
 Hartree-Fock type      HFTyp           .... RHF
 Total Charge           Charge          ....    0
 Multiplicity           Mult            ....    1
 Number of Electrons    NEL             ....   94
 Basis Dimension        Dim             ....  594
 Nuclear Repulsion      ENuc            ....    782.5504445004 Eh

Convergence Acceleration:
 DIIS                   CNVDIIS         .... on
   Start iteration      DIISMaxIt       ....    12
   Startup error        DIISStart       ....  0.200000
   # of expansion vecs  DIISMaxEq       ....     5
   Bias factor          DIISBfac        ....   1.050
   Max. coefficient     DIISMaxC        ....  10.000
 Trust-Rad. Augm. Hess. CNVTRAH         .... auto
   Auto Start mean grad. ratio tolernc. ....  1.125000
   Auto Start start iteration           ....    20
   Auto Start num. interpolation iter.  ....    10
   Max. Number of Micro iterations      ....    16
   Max. Number of Macro iterations      .... Maxiter - #DIIS iter
   Number of Davidson start vectors     ....     2
   Converg. threshold I  (grad. norm)   ....   1.000e-05
   Converg. threshold II (energy diff.) ....   1.000e-08
   Grad. Scal. Fac. for Micro threshold ....   0.100
   Minimum threshold for Micro iter.    ....   0.010
   NR start threshold (gradient norm)   ....   0.001
   Initial trust radius                 ....   0.400
   Minimum AH scaling param. (alpha)    ....   1.000
   Maximum AH scaling param. (alpha)    .... 1000.000
   Orbital update algorithm             .... Taylor
   White noise on init. David. guess    .... on
   Maximum white noise                  ....   0.010
   Quad. conv. algorithm                .... NR
 SOSCF                  CNVSOSCF        .... on
   Start iteration      SOSCFMaxIt      ....   150
   Startup grad/error   SOSCFStart      ....  0.003300
 Level Shifting         CNVShift        .... on
   Level shift para.    LevelShift      ....    0.2500
   Turn off err/grad.   ShiftErr        ....    0.0010
 Zerner damping         CNVZerner       .... off
 Static damping         CNVDamp         .... on
   Fraction old density DampFac         ....    0.7000
   Max. Damping (<1)    DampMax         ....    0.9800
   Min. Damping (>=0)   DampMin         ....    0.0000
   Turn off err/grad.   DampErr         ....    0.1000
 Fernandez-Rico         CNVRico         .... off

SCF Procedure:
 Maximum # iterations   MaxIter         ....   150
 SCF integral mode      SCFMode         .... Direct
   Integral package                     .... SHARK and LIBINT hybrid scheme
 Reset frequency        DirectResetFreq ....    20
 Integral Threshold     Thresh          ....  2.500e-11 Eh
 Primitive CutOff       TCut            ....  2.500e-12 Eh

Convergence Tolerance:
 Convergence Check Mode ConvCheckMode   .... Total+1el-Energy
 Convergence forced     ConvForced      .... 0
 Energy Change          TolE            ....  1.000e-08 Eh
 1-El. energy change                    ....  1.000e-05 Eh
 Orbital Gradient       TolG            ....  1.000e-05
 Orbital Rotation angle TolX            ....  1.000e-05
 DIIS Error             TolErr          ....  5.000e-07


Diagonalization of the overlap matrix:
Smallest eigenvalue                        ... 1.676e-06
Time for diagonalization                   ...    0.078 sec
Threshold for overlap eigenvalues          ... 1.000e-08
Number of eigenvalues below threshold      ... 0
Time for construction of square roots      ...    0.099 sec
Total time needed                          ...    0.180 sec

Time for model grid setup =    0.336 sec

------------------------------
INITIAL GUESS: MODEL POTENTIAL
------------------------------
Loading Hartree-Fock densities                     ... done
Calculating cut-offs                               ... done
Initializing the effective Hamiltonian             ... done
Setting up the integral package (SHARK)            ... done
Starting the Coulomb interaction                   ... done (   0.6 sec)
Reading the grid                                   ... done
Mapping shells                                     ... done
Starting the XC term evaluation                    ... done (   0.8 sec)
  promolecular density results
     # of electrons  =     93.986944772
     EX              =    -75.548105538
     EC              =     -3.147751648
     EX+EC           =    -78.695857186
Transforming the Hamiltonian                       ... done (   0.0 sec)
Diagonalizing the Hamiltonian                      ... done (   0.1 sec)
Back transforming the eigenvectors                 ... done (   0.0 sec)
Now organizing SCF variables                       ... done
                      ------------------
                      INITIAL GUESS DONE (   1.9 sec)
                      ------------------
-------------------
DFT GRID GENERATION
-------------------

General Integration Accuracy     IntAcc      ... 4.388
Radial Grid Type                 RadialGrid  ... OptM3 with GC (2021)
Angular Grid (max. ang.)         AngularGrid ... 4 (Lebedev-302)
Angular grid pruning method      GridPruning ... 4 (adaptive)
Weight generation scheme         WeightScheme... Becke
Basis function cutoff            BFCut       ... 1.0000e-11
Integration weight cutoff        WCut        ... 1.0000e-14
Angular grids for H and He will be reduced by one unit
Partially contracted basis set               ... off
Rotationally invariant grid construction     ... off

Total number of grid points                  ...   127873
Total number of batches                      ...     2012
Average number of points per batch           ...       63
Average number of grid points per atom       ...     4567
Time for grid setup =    1.265 sec

--------------
SCF ITERATIONS
--------------
ITER       Energy         Delta-E        Max-DP      RMS-DP      [F,P]     Damp
               ***  Starting incremental Fock matrix formation  ***
  0   -582.1593636829   0.000000000000 1.49777171  0.00501301  0.2670421 0.7000
  1   -582.4040564125  -0.244692729517 1.34454337  0.00453285  0.1134975 0.7000
                               ***Turning on DIIS***
  2   -582.4784059032  -0.074349490771 1.90242733  0.00795608  0.0402497 0.0000
  3   -582.6068080390  -0.128402135771 1.20297318  0.00366882  0.0703114 0.0000
  4   -582.6393504895  -0.032542450530 0.37473548  0.00132622  0.0473272 0.0000
  5   -582.6443175846  -0.004967095058 0.16094808  0.00066494  0.0087458 0.0000
  6   -582.6445535569  -0.000235972305 0.07163001  0.00037298  0.0040326 0.0000
                      *** Initiating the SOSCF procedure ***
                           *** Shutting down DIIS ***
                      *** Re-Reading the Fockian *** 
                      *** Removing any level shift *** 
ITER      Energy       Delta-E        Grad      Rot      Max-DP    RMS-DP
  7   -582.64459204  -0.0000384855  0.000297  0.000297  0.073896  0.000436
               *** Restarting incremental Fock matrix formation ***
  8   -582.64459871  -0.0000066666  0.000163  0.000919  0.005662  0.000040
  9   -582.64459424   0.0000044669  0.000382  0.000672  0.002833  0.000024
 10   -582.64459993  -0.0000056875  0.000043  0.000164  0.013706  0.000048
 11   -582.64459949   0.0000004430  0.000115  0.000153  0.005820  0.000021
 12   -582.64460005  -0.0000005665  0.000035  0.000101  0.008744  0.000038
 13   -582.64459991   0.0000001418  0.000067  0.000066  0.004143  0.000014
 14   -582.64460008  -0.0000001723  0.000005  0.000011  0.006926  0.000031
 15   -582.64460009  -0.0000000037  0.000009  0.000007  0.005793  0.000019
                  ***Gradient check signals convergence***
              ***Rediagonalizing the Fockian in SOSCF/NRSCF***

               *****************************************************
               *                     SUCCESS                       *
               *           SCF CONVERGED AFTER  16 CYCLES          *
               *****************************************************


----------------
TOTAL SCF ENERGY
----------------

Total Energy       :         -582.64460009 Eh          -15854.56560 eV

Components:
Nuclear Repulsion  :          782.55044450 Eh           21294.28018 eV
Electronic Energy  :        -1365.19504459 Eh          -37148.84577 eV
One Electron Energy:        -2346.21472522 Eh          -63843.74843 eV
Two Electron Energy:          981.01968064 Eh           26694.90265 eV

Virial components:
Potential Energy   :        -1163.56033608 Eh          -31662.08641 eV
Kinetic Energy     :          580.91573599 Eh           15807.52082 eV
Virial Ratio       :            2.00297610


DFT components:
N(Alpha)           :       46.999855129793 electrons
N(Beta)            :       46.999855129793 electrons
N(Total)           :       93.999710259585 electrons
E(X)               :      -78.048487761121 Eh       
E(C)               :       -3.141570824957 Eh       
E(XC)              :      -81.190058586079 Eh       
DFET-embed. en.    :        0.000000000000 Eh       

---------------
SCF CONVERGENCE
---------------

  Last Energy change         ...   -2.9320e-10  Tolerance :   1.0000e-08
  Last MAX-Density change    ...    8.3924e-03  Tolerance :   1.0000e-07
  Last RMS-Density change    ...    2.9141e-05  Tolerance :   5.0000e-09
  Last Orbital Gradient      ...    8.1199e-07  Tolerance :   1.0000e-05
  Last Orbital Rotation      ...    8.7412e-07  Tolerance :   1.0000e-05

             **** THE GBW FILE WAS UPDATED (28Oct_TZVPD_TPSS_D3_wb97.gbw) ****
             **** DENSITY 28Oct_TZVPD_TPSS_D3_wb97.scfp WAS UPDATED ****
             **** ENERGY FILE WAS UPDATED (28Oct_TZVPD_TPSS_D3_wb97.en.tmp) ****
             **** THE GBW FILE WAS UPDATED (28Oct_TZVPD_TPSS_D3_wb97.gbw) ****
             **** DENSITY 28Oct_TZVPD_TPSS_D3_wb97.scfp WAS UPDATED ****
----------------
ORBITAL ENERGIES
----------------

  NO   OCC          E(Eh)            E(eV) 
   0   2.0000     -24.480755      -666.1552 
   1   2.0000     -18.884658      -513.8777 
   2   2.0000     -14.090853      -383.4316 
   3   2.0000     -10.153765      -276.2980 
   4   2.0000     -10.015524      -272.5363 
   5   2.0000      -9.996034      -272.0059 
   6   2.0000      -9.982587      -271.6400 
   7   2.0000      -9.981727      -271.6166 
   8   2.0000      -9.981503      -271.6105 
   9   2.0000      -9.978977      -271.5418 
  10   2.0000      -9.974173      -271.4111 
  11   2.0000      -9.886579      -269.0275 
  12   2.0000      -1.246597       -33.9216 
  13   2.0000      -0.963465       -26.2172 
  14   2.0000      -0.850278       -23.1373 
  15   2.0000      -0.762503       -20.7488 
  16   2.0000      -0.732024       -19.9194 
  17   2.0000      -0.686486       -18.6802 
  18   2.0000      -0.663237       -18.0476 
  19   2.0000      -0.624691       -16.9987 
  20   2.0000      -0.597963       -16.2714 
  21   2.0000      -0.562436       -15.3047 
  22   2.0000      -0.528793       -14.3892 
  23   2.0000      -0.512278       -13.9398 
  24   2.0000      -0.495428       -13.4813 
  25   2.0000      -0.476872       -12.9763 
  26   2.0000      -0.469716       -12.7816 
  27   2.0000      -0.461265       -12.5517 
  28   2.0000      -0.434046       -11.8110 
  29   2.0000      -0.425396       -11.5756 
  30   2.0000      -0.411159       -11.1882 
  31   2.0000      -0.398759       -10.8508 
  32   2.0000      -0.389988       -10.6121 
  33   2.0000      -0.361265        -9.8305 
  34   2.0000      -0.356537        -9.7019 
  35   2.0000      -0.348760        -9.4902 
  36   2.0000      -0.339582        -9.2405 
  37   2.0000      -0.327398        -8.9089 
  38   2.0000      -0.321737        -8.7549 
  39   2.0000      -0.313271        -8.5245 
  40   2.0000      -0.299006        -8.1364 
  41   2.0000      -0.290865        -7.9148 
  42   2.0000      -0.281629        -7.6635 
  43   2.0000      -0.275624        -7.5001 
  44   2.0000      -0.272778        -7.4227 
  45   2.0000      -0.225632        -6.1398 
  46   2.0000      -0.151330        -4.1179 
  47   0.0000      -0.064115        -1.7447 
  48   0.0000      -0.009585        -0.2608 
  49   0.0000      -0.000015        -0.0004 
  50   0.0000       0.007285         0.1982 
  51   0.0000       0.015397         0.4190 
  52   0.0000       0.025442         0.6923 
  53   0.0000       0.032252         0.8776 
  54   0.0000       0.033957         0.9240 
  55   0.0000       0.043824         1.1925 
  56   0.0000       0.046759         1.2724 
  57   0.0000       0.058617         1.5951 
  58   0.0000       0.063414         1.7256 
  59   0.0000       0.069755         1.8981 
  60   0.0000       0.070442         1.9168 
  61   0.0000       0.082878         2.2552 
  62   0.0000       0.086434         2.3520 
  63   0.0000       0.092536         2.5180 
  64   0.0000       0.095159         2.5894 
  65   0.0000       0.100175         2.7259 
  66   0.0000       0.107431         2.9233 
  67   0.0000       0.111790         3.0420 
  68   0.0000       0.117032         3.1846 
  69   0.0000       0.122812         3.3419 
  70   0.0000       0.130606         3.5540 
  71   0.0000       0.137873         3.7517 
  72   0.0000       0.138307         3.7635 
  73   0.0000       0.144744         3.9387 
  74   0.0000       0.146786         3.9942 
  75   0.0000       0.153101         4.1661 
  76   0.0000       0.158075         4.3014 
  77   0.0000       0.159820         4.3489 
  78   0.0000       0.170361         4.6358 
  79   0.0000       0.173524         4.7218 
  80   0.0000       0.175254         4.7689 
  81   0.0000       0.176639         4.8066 
  82   0.0000       0.181220         4.9312 
  83   0.0000       0.186142         5.0652 
  84   0.0000       0.197072         5.3626 
  85   0.0000       0.198903         5.4124 
  86   0.0000       0.205229         5.5846 
  87   0.0000       0.209643         5.7047 
  88   0.0000       0.211436         5.7535 
  89   0.0000       0.212711         5.7882 
  90   0.0000       0.216762         5.8984 
  91   0.0000       0.225257         6.1296 
  92   0.0000       0.227876         6.2008 
  93   0.0000       0.232755         6.3336 
  94   0.0000       0.238360         6.4861 
  95   0.0000       0.239944         6.5292 
  96   0.0000       0.242840         6.6080 
  97   0.0000       0.249492         6.7890 
  98   0.0000       0.250481         6.8159 
  99   0.0000       0.255267         6.9462 
 100   0.0000       0.256186         6.9712 
 101   0.0000       0.261715         7.1216 
 102   0.0000       0.266125         7.2416 
 103   0.0000       0.268092         7.2951 
 104   0.0000       0.273196         7.4340 
 105   0.0000       0.276689         7.5291 
 106   0.0000       0.277933         7.5629 
 107   0.0000       0.283836         7.7236 
 108   0.0000       0.285685         7.7739 
 109   0.0000       0.290695         7.9102 
 110   0.0000       0.294291         8.0081 
 111   0.0000       0.296462         8.0672 
 112   0.0000       0.298572         8.1246 
 113   0.0000       0.304561         8.2875 
 114   0.0000       0.306827         8.3492 
 115   0.0000       0.312531         8.5044 
 116   0.0000       0.316556         8.6139 
 117   0.0000       0.318774         8.6743 
 118   0.0000       0.323324         8.7981 
 119   0.0000       0.329793         8.9741 
 120   0.0000       0.332769         9.0551 
 121   0.0000       0.336333         9.1521 
 122   0.0000       0.340234         9.2582 
 123   0.0000       0.344225         9.3668 
 124   0.0000       0.349541         9.5115 
 125   0.0000       0.352890         9.6026 
 126   0.0000       0.355072         9.6620 
 127   0.0000       0.359151         9.7730 
 128   0.0000       0.361940         9.8489 
 129   0.0000       0.367624        10.0036 
 130   0.0000       0.372189        10.1278 
 131   0.0000       0.376503        10.2452 
 132   0.0000       0.381678        10.3860 
 133   0.0000       0.382004        10.3949 
 134   0.0000       0.384403        10.4601 
 135   0.0000       0.388193        10.5633 
 136   0.0000       0.391383        10.6501 
 137   0.0000       0.397103        10.8057 
 138   0.0000       0.401759        10.9324 
 139   0.0000       0.403961        10.9923 
 140   0.0000       0.407927        11.1003 
 141   0.0000       0.409581        11.1453 
 142   0.0000       0.414046        11.2668 
 143   0.0000       0.419532        11.4160 
 144   0.0000       0.421768        11.4769 
 145   0.0000       0.431356        11.7378 
 146   0.0000       0.436552        11.8792 
 147   0.0000       0.438921        11.9436 
 148   0.0000       0.442659        12.0454 
 149   0.0000       0.449837        12.2407 
 150   0.0000       0.453465        12.3394 
 151   0.0000       0.456623        12.4253 
 152   0.0000       0.462523        12.5859 
 153   0.0000       0.465296        12.6614 
 154   0.0000       0.473367        12.8810 
 155   0.0000       0.474724        12.9179 
 156   0.0000       0.476850        12.9757 
 157   0.0000       0.480620        13.0783 
 158   0.0000       0.483663        13.1611 
 159   0.0000       0.487705        13.2711 
 160   0.0000       0.489547        13.3213 
 161   0.0000       0.500788        13.6271 
 162   0.0000       0.504009        13.7148 
 163   0.0000       0.506580        13.7847 
 164   0.0000       0.509526        13.8649 
 165   0.0000       0.515249        14.0206 
 166   0.0000       0.523361        14.2414 
 167   0.0000       0.530089        14.4245 
 168   0.0000       0.536342        14.5946 
 169   0.0000       0.537557        14.6277 
 170   0.0000       0.541562        14.7366 
 171   0.0000       0.550608        14.9828 
 172   0.0000       0.551217        14.9994 
 173   0.0000       0.557931        15.1821 
 174   0.0000       0.566660        15.4196 
 175   0.0000       0.569179        15.4881 
 176   0.0000       0.578630        15.7453 
 177   0.0000       0.584743        15.9117 
 178   0.0000       0.586466        15.9586 
 179   0.0000       0.587520        15.9872 
 180   0.0000       0.597028        16.2460 
 181   0.0000       0.598871        16.2961 
 182   0.0000       0.600101        16.3296 
 183   0.0000       0.613320        16.6893 
 184   0.0000       0.615227        16.7412 
 185   0.0000       0.621384        16.9087 
 186   0.0000       0.625987        17.0340 
 187   0.0000       0.631522        17.1846 
 188   0.0000       0.634307        17.2604 
 189   0.0000       0.642220        17.4757 
 190   0.0000       0.643416        17.5082 
 191   0.0000       0.646150        17.5826 
 192   0.0000       0.648464        17.6456 
 193   0.0000       0.652438        17.7538 
 194   0.0000       0.656816        17.8729 
 195   0.0000       0.661695        18.0056 
 196   0.0000       0.664863        18.0918 
 197   0.0000       0.666655        18.1406 
 198   0.0000       0.673064        18.3150 
 199   0.0000       0.684616        18.6294 
 200   0.0000       0.687341        18.7035 
 201   0.0000       0.691099        18.8058 
 202   0.0000       0.696192        18.9443 
 203   0.0000       0.698686        19.0122 
 204   0.0000       0.703541        19.1443 
 205   0.0000       0.706776        19.2324 
 206   0.0000       0.710625        19.3371 
 207   0.0000       0.716098        19.4860 
 208   0.0000       0.721580        19.6352 
 209   0.0000       0.726234        19.7618 
 210   0.0000       0.727490        19.7960 
 211   0.0000       0.733208        19.9516 
 212   0.0000       0.738059        20.0836 
 213   0.0000       0.745670        20.2907 
 214   0.0000       0.748689        20.3729 
 215   0.0000       0.750558        20.4237 
 216   0.0000       0.756689        20.5906 
 217   0.0000       0.763467        20.7750 
 218   0.0000       0.769222        20.9316 
 219   0.0000       0.774977        21.0882 
 220   0.0000       0.780419        21.2363 
 221   0.0000       0.784203        21.3392 
 222   0.0000       0.785580        21.3767 
 223   0.0000       0.794031        21.6067 
 224   0.0000       0.800120        21.7724 
 225   0.0000       0.806453        21.9447 
 226   0.0000       0.810370        22.0513 
 227   0.0000       0.816995        22.2316 
 228   0.0000       0.823214        22.4008 
 229   0.0000       0.826933        22.5020 
 230   0.0000       0.831570        22.6282 
 231   0.0000       0.835255        22.7284 
 232   0.0000       0.843784        22.9605 
 233   0.0000       0.850232        23.1360 
 234   0.0000       0.852291        23.1920 
 235   0.0000       0.859143        23.3785 
 236   0.0000       0.864749        23.5310 
 237   0.0000       0.870483        23.6870 
 238   0.0000       0.877751        23.8848 
 239   0.0000       0.884729        24.0747 
 240   0.0000       0.892477        24.2855 
 241   0.0000       0.902240        24.5512 
 242   0.0000       0.913568        24.8595 
 243   0.0000       0.922176        25.0937 
 244   0.0000       0.927565        25.2403 
 245   0.0000       0.938293        25.5322 
 246   0.0000       0.942763        25.6539 
 247   0.0000       0.943089        25.6628 
 248   0.0000       0.950785        25.8722 
 249   0.0000       0.955730        26.0067 
 250   0.0000       0.961552        26.1652 
 251   0.0000       0.967634        26.3307 
 252   0.0000       0.971644        26.4398 
 253   0.0000       0.994042        27.0493 
 254   0.0000       0.997286        27.1375 
 255   0.0000       1.006464        27.3873 
 256   0.0000       1.010778        27.5047 
 257   0.0000       1.036414        28.2022 
 258   0.0000       1.041229        28.3333 
 259   0.0000       1.044937        28.4342 
 260   0.0000       1.052283        28.6341 
 261   0.0000       1.057826        28.7849 
 262   0.0000       1.076299        29.2876 
 263   0.0000       1.094512        29.7832 
 264   0.0000       1.101590        29.9758 
 265   0.0000       1.104419        30.0528 
 266   0.0000       1.124426        30.5972 
 267   0.0000       1.138815        30.9887 
 268   0.0000       1.141563        31.0635 
 269   0.0000       1.156611        31.4730 
 270   0.0000       1.172251        31.8986 
 271   0.0000       1.180608        32.1260 
 272   0.0000       1.202288        32.7159 
 273   0.0000       1.206028        32.8177 
 274   0.0000       1.214159        33.0390 
 275   0.0000       1.228915        33.4405 
 276   0.0000       1.243242        33.8303 
 277   0.0000       1.252493        34.0821 
 278   0.0000       1.262623        34.3577 
 279   0.0000       1.274614        34.6840 
 280   0.0000       1.293928        35.2096 
 281   0.0000       1.307822        35.5877 
 282   0.0000       1.314367        35.7658 
 283   0.0000       1.323990        36.0276 
 284   0.0000       1.327832        36.1322 
 285   0.0000       1.337808        36.4036 
 286   0.0000       1.350390        36.7460 
 287   0.0000       1.359235        36.9867 
 288   0.0000       1.371152        37.3109 
 289   0.0000       1.372439        37.3460 
 290   0.0000       1.379726        37.5442 
 291   0.0000       1.391318        37.8597 
 292   0.0000       1.399449        38.0809 
 293   0.0000       1.405841        38.2549 
 294   0.0000       1.417893        38.5828 
 295   0.0000       1.441077        39.2137 
 296   0.0000       1.454081        39.5676 
 297   0.0000       1.464373        39.8476 
 298   0.0000       1.472960        40.0813 
 299   0.0000       1.477368        40.2012 
 300   0.0000       1.487294        40.4713 
 301   0.0000       1.498709        40.7819 
 302   0.0000       1.518776        41.3280 
 303   0.0000       1.534504        41.7560 
 304   0.0000       1.536658        41.8146 
 305   0.0000       1.548054        42.1247 
 306   0.0000       1.559722        42.4422 
 307   0.0000       1.573830        42.8261 
 308   0.0000       1.576919        42.9101 
 309   0.0000       1.604273        43.6545 
 310   0.0000       1.614903        43.9437 
 311   0.0000       1.631272        44.3892 
 312   0.0000       1.679452        45.7002 
 313   0.0000       1.714674        46.6586 
 314   0.0000       1.751205        47.6527 
 315   0.0000       1.786448        48.6117 
 316   0.0000       1.804560        49.1046 
 317   0.0000       1.807217        49.1769 
 318   0.0000       1.820459        49.5372 
 319   0.0000       1.822093        49.5817 
 320   0.0000       1.831212        49.8298 
 321   0.0000       1.836254        49.9670 
 322   0.0000       1.842412        50.1346 
 323   0.0000       1.859286        50.5937 
 324   0.0000       1.866151        50.7806 
 325   0.0000       1.870256        50.8923 
 326   0.0000       1.877629        51.0929 
 327   0.0000       1.884576        51.2819 
 328   0.0000       1.896111        51.5958 
 329   0.0000       1.901385        51.7393 
 330   0.0000       1.912519        52.0423 
 331   0.0000       1.918577        52.2071 
 332   0.0000       1.929140        52.4946 
 333   0.0000       1.932874        52.5962 
 334   0.0000       1.941103        52.8201 
 335   0.0000       1.957892        53.2770 
 336   0.0000       1.961944        53.3872 
 337   0.0000       1.989619        54.1403 
 338   0.0000       2.009700        54.6867 
 339   0.0000       2.016624        54.8751 
 340   0.0000       2.021335        55.0033 
 341   0.0000       2.027436        55.1693 
 342   0.0000       2.036159        55.4067 
 343   0.0000       2.052890        55.8620 
 344   0.0000       2.074488        56.4497 
 345   0.0000       2.078263        56.5524 
 346   0.0000       2.091966        56.9253 
 347   0.0000       2.099776        57.1378 
 348   0.0000       2.112445        57.4826 
 349   0.0000       2.127420        57.8901 
 350   0.0000       2.134728        58.0889 
 351   0.0000       2.141275        58.2671 
 352   0.0000       2.153446        58.5983 
 353   0.0000       2.169226        59.0276 
 354   0.0000       2.174262        59.1647 
 355   0.0000       2.193792        59.6961 
 356   0.0000       2.202606        59.9360 
 357   0.0000       2.215816        60.2954 
 358   0.0000       2.218343        60.3642 
 359   0.0000       2.232778        60.7570 
 360   0.0000       2.248728        61.1910 
 361   0.0000       2.273889        61.8757 
 362   0.0000       2.283530        62.1380 
 363   0.0000       2.284360        62.1606 
 364   0.0000       2.317099        63.0515 
 365   0.0000       2.328611        63.3647 
 366   0.0000       2.337613        63.6097 
 367   0.0000       2.354765        64.0764 
 368   0.0000       2.362747        64.2936 
 369   0.0000       2.370389        64.5016 
 370   0.0000       2.388702        64.9999 
 371   0.0000       2.395785        65.1926 
 372   0.0000       2.414056        65.6898 
 373   0.0000       2.417144        65.7738 
 374   0.0000       2.451845        66.7181 
 375   0.0000       2.470871        67.2358 
 376   0.0000       2.482109        67.5416 
 377   0.0000       2.489534        67.7437 
 378   0.0000       2.506681        68.2103 
 379   0.0000       2.525051        68.7101 
 380   0.0000       2.546859        69.3035 
 381   0.0000       2.556461        69.5648 
 382   0.0000       2.561497        69.7019 
 383   0.0000       2.576494        70.1100 
 384   0.0000       2.594325        70.5952 
 385   0.0000       2.611775        71.0700 
 386   0.0000       2.616401        71.1959 
 387   0.0000       2.639599        71.8272 
 388   0.0000       2.646835        72.0240 
 389   0.0000       2.651757        72.1580 
 390   0.0000       2.667145        72.5767 
 391   0.0000       2.673921        72.7611 
 392   0.0000       2.679873        72.9231 
 393   0.0000       2.693549        73.2952 
 394   0.0000       2.703730        73.5722 
 395   0.0000       2.709940        73.7412 
 396   0.0000       2.721773        74.0632 
 397   0.0000       2.733526        74.3830 
 398   0.0000       2.748088        74.7793 
 399   0.0000       2.754948        74.9659 
 400   0.0000       2.758876        75.0728 
 401   0.0000       2.772286        75.4377 
 402   0.0000       2.781357        75.6846 
 403   0.0000       2.788557        75.8805 
 404   0.0000       2.799431        76.1764 
 405   0.0000       2.806272        76.3625 
 406   0.0000       2.826165        76.9039 
 407   0.0000       2.832957        77.0887 
 408   0.0000       2.840802        77.3022 
 409   0.0000       2.863961        77.9323 
 410   0.0000       2.865487        77.9739 
 411   0.0000       2.887863        78.5827 
 412   0.0000       2.902432        78.9792 
 413   0.0000       2.910476        79.1981 
 414   0.0000       2.918803        79.4247 
 415   0.0000       2.930491        79.7427 
 416   0.0000       2.953723        80.3749 
 417   0.0000       2.964119        80.6578 
 418   0.0000       2.972765        80.8930 
 419   0.0000       2.976861        81.0045 
 420   0.0000       2.997762        81.5733 
 421   0.0000       3.006490        81.8107 
 422   0.0000       3.014864        82.0386 
 423   0.0000       3.039178        82.7002 
 424   0.0000       3.047466        82.9258 
 425   0.0000       3.072886        83.6175 
 426   0.0000       3.081636        83.8556 
 427   0.0000       3.088266        84.0360 
 428   0.0000       3.107813        84.5679 
 429   0.0000       3.114176        84.7410 
 430   0.0000       3.137195        85.3674 
 431   0.0000       3.147370        85.6443 
 432   0.0000       3.163650        86.0873 
 433   0.0000       3.170525        86.2744 
 434   0.0000       3.178625        86.4948 
 435   0.0000       3.182623        86.6036 
 436   0.0000       3.205039        87.2135 
 437   0.0000       3.229902        87.8901 
 438   0.0000       3.234232        88.0079 
 439   0.0000       3.253900        88.5431 
 440   0.0000       3.267376        88.9098 
 441   0.0000       3.277616        89.1885 
 442   0.0000       3.283631        89.3521 
 443   0.0000       3.295243        89.6681 
 444   0.0000       3.299731        89.7902 
 445   0.0000       3.313183        90.1563 
 446   0.0000       3.335936        90.7754 
 447   0.0000       3.339517        90.8729 
 448   0.0000       3.350199        91.1635 
 449   0.0000       3.368398        91.6588 
 450   0.0000       3.371787        91.7510 
 451   0.0000       3.373719        91.8036 
 452   0.0000       3.393729        92.3481 
 453   0.0000       3.408636        92.7537 
 454   0.0000       3.415457        92.9393 
 455   0.0000       3.431342        93.3716 
 456   0.0000       3.440729        93.6270 
 457   0.0000       3.450126        93.8827 
 458   0.0000       3.457017        94.0702 
 459   0.0000       3.470060        94.4251 
 460   0.0000       3.475584        94.5754 
 461   0.0000       3.480523        94.7098 
 462   0.0000       3.492584        95.0380 
 463   0.0000       3.504571        95.3642 
 464   0.0000       3.518582        95.7455 
 465   0.0000       3.530024        96.0568 
 466   0.0000       3.541995        96.3826 
 467   0.0000       3.552141        96.6587 
 468   0.0000       3.568173        97.0949 
 469   0.0000       3.577543        97.3499 
 470   0.0000       3.579751        97.4100 
 471   0.0000       3.594257        97.8047 
 472   0.0000       3.604259        98.0769 
 473   0.0000       3.617207        98.4292 
 474   0.0000       3.622001        98.5597 
 475   0.0000       3.641330        99.0856 
 476   0.0000       3.658673        99.5576 
 477   0.0000       3.679568       100.1261 
 478   0.0000       3.691885       100.4613 
 479   0.0000       3.695643       100.5636 
 480   0.0000       3.716326       101.1264 
 481   0.0000       3.736753       101.6822 
 482   0.0000       3.741056       101.7993 
 483   0.0000       3.744390       101.8900 
 484   0.0000       3.766791       102.4996 
 485   0.0000       3.779168       102.8364 
 486   0.0000       3.812024       103.7305 
 487   0.0000       3.819741       103.9404 
 488   0.0000       3.828848       104.1883 
 489   0.0000       3.845695       104.6467 
 490   0.0000       3.891152       105.8836 
 491   0.0000       3.912874       106.4747 
 492   0.0000       3.924382       106.7879 
 493   0.0000       3.949036       107.4587 
 494   0.0000       3.958486       107.7159 
 495   0.0000       3.993875       108.6789 
 496   0.0000       4.015391       109.2643 
 497   0.0000       4.023336       109.4805 
 498   0.0000       4.024118       109.5018 
 499   0.0000       4.048378       110.1620 
 500   0.0000       4.069206       110.7287 
 501   0.0000       4.079228       111.0014 
 502   0.0000       4.084543       111.1461 
 503   0.0000       4.109885       111.8357 
 504   0.0000       4.120192       112.1161 
 505   0.0000       4.139630       112.6451 
 506   0.0000       4.155240       113.0698 
 507   0.0000       4.175003       113.6076 
 508   0.0000       4.193991       114.1243 
 509   0.0000       4.199118       114.2638 
 510   0.0000       4.214414       114.6800 
 511   0.0000       4.230327       115.1131 
 512   0.0000       4.261113       115.9508 
 513   0.0000       4.292602       116.8076 
 514   0.0000       4.327099       117.7464 
 515   0.0000       4.334431       117.9459 
 516   0.0000       4.364658       118.7684 
 517   0.0000       4.375626       119.0668 
 518   0.0000       4.415596       120.1545 
 519   0.0000       4.454901       121.2240 
 520   0.0000       4.492760       122.2542 
 521   0.0000       4.549786       123.8060 
 522   0.0000       4.576441       124.5313 
 523   0.0000       4.588588       124.8618 
 524   0.0000       4.601887       125.2237 
 525   0.0000       4.617690       125.6537 
 526   0.0000       4.658575       126.7663 
 527   0.0000       4.701636       127.9380 
 528   0.0000       4.719223       128.4166 
 529   0.0000       4.728075       128.6575 
 530   0.0000       4.736588       128.8891 
 531   0.0000       4.785875       130.2303 
 532   0.0000       4.797137       130.5367 
 533   0.0000       4.807571       130.8207 
 534   0.0000       4.836748       131.6146 
 535   0.0000       4.861231       132.2808 
 536   0.0000       4.878620       132.7540 
 537   0.0000       4.882148       132.8500 
 538   0.0000       4.902510       133.4041 
 539   0.0000       4.958740       134.9342 
 540   0.0000       4.962635       135.0402 
 541   0.0000       4.985814       135.6709 
 542   0.0000       4.989264       135.7648 
 543   0.0000       5.024043       136.7112 
 544   0.0000       5.080346       138.2432 
 545   0.0000       5.113959       139.1579 
 546   0.0000       5.147698       140.0760 
 547   0.0000       5.175938       140.8444 
 548   0.0000       5.225195       142.1848 
 549   0.0000       5.240407       142.5987 
 550   0.0000       5.266367       143.3051 
 551   0.0000       5.339379       145.2919 
 552   0.0000       5.416585       147.3928 
 553   0.0000       5.444968       148.1651 
 554   0.0000       5.452639       148.3739 
 555   0.0000       5.512523       150.0034 
 556   0.0000       5.526690       150.3889 
 557   0.0000       5.550146       151.0271 
 558   0.0000       5.635449       153.3484 
 559   0.0000       5.690975       154.8593 
 560   0.0000       5.842449       158.9811 
 561   0.0000       5.990480       163.0092 
 562   0.0000       6.200159       168.7149 
 563   0.0000       6.206226       168.8800 
 564   0.0000       6.281231       170.9210 
 565   0.0000       6.638234       180.6355 
 566   0.0000       6.751103       183.7069 
 567   0.0000       6.808873       185.2788 
 568   0.0000       6.825712       185.7371 
 569   0.0000       6.904023       187.8680 
 570   0.0000       6.919678       188.2940 
 571   0.0000       7.096967       193.1183 
 572   0.0000       7.167267       195.0313 
 573   0.0000       7.241497       197.0512 
 574   0.0000       7.410901       201.6609 
 575   0.0000       7.567595       205.9247 
 576   0.0000       7.851517       213.6507 
 577   0.0000       8.510563       231.5842 
 578   0.0000       8.561703       232.9758 
 579   0.0000       8.835617       240.4294 
 580   0.0000       9.006636       245.0830 
 581   0.0000       9.216190       250.7853 
 582   0.0000      22.651799       616.3868 
 583   0.0000      22.701948       617.7514 
 584   0.0000      22.738899       618.7569 
 585   0.0000      22.781579       619.9183 
 586   0.0000      22.820964       620.9900 
 587   0.0000      22.875509       622.4743 
 588   0.0000      22.901196       623.1732 
 589   0.0000      23.439458       637.8201 
 590   0.0000      23.510048       639.7409 
 591   0.0000      32.490560       884.1131 
 592   0.0000      44.370243      1207.3757 
 593   0.0000      57.767876      1571.9438 

                    ********************************
                    * MULLIKEN POPULATION ANALYSIS *
                    ********************************

-----------------------
MULLIKEN ATOMIC CHARGES
-----------------------
   0 C :   -0.397148
   1 C :   -0.213212
   2 C :   -0.336831
   3 H :    0.324340
   4 H :    0.107054
   5 C :    0.631306
   6 C :    0.680341
   7 C :   -1.467456
   8 N :   -0.588303
   9 H :    0.142479
  10 H :    0.129250
  11 H :    0.918027
  12 H :    0.224357
  13 O :   -0.624441
  14 F :   -0.298341
  15 C :   -0.192580
  16 C :   -0.303127
  17 H :    0.081237
  18 H :    0.241260
  19 C :   -0.520907
  20 H :    0.285490
  21 H :    0.076930
  22 H :    0.329748
  23 H :    0.162863
  24 H :    0.103374
  25 H :    0.207765
  26 H :    0.173025
  27 H :    0.123502
Sum of atomic charges:   -0.0000000

--------------------------------
MULLIKEN REDUCED ORBITAL CHARGES
--------------------------------
  0 C s       :     3.300219  s :     3.300219
      pz      :     0.957900  p :     2.900391
      px      :     1.004583
      py      :     0.937909
      dz2     :     0.047357  d :     0.190319
      dxz     :     0.000123
      dyz     :     0.032033
      dx2y2   :     0.012046
      dxy     :     0.098759
      f0      :     0.001128  f :     0.006220
      f+1     :     0.000780
      f-1     :     0.001341
      f+2     :     0.000796
      f-2     :     0.001017
      f+3     :     0.000642
      f-3     :     0.000516
  1 C s       :     3.084371  s :     3.084371
      pz      :     0.970811  p :     3.020595
      px      :     1.034369
      py      :     1.015414
      dz2     :     0.030252  d :     0.101805
      dxz     :     0.015064
      dyz     :     0.032686
      dx2y2   :     0.009647
      dxy     :     0.014156
      f0      :     0.001162  f :     0.006441
      f+1     :     0.001340
      f-1     :     0.000982
      f+2     :     0.000816
      f-2     :     0.000677
      f+3     :     0.000463
      f-3     :     0.001001
  2 C s       :     3.162073  s :     3.162073
      pz      :     1.060589  p :     3.076900
      px      :     1.070263
      py      :     0.946048
      dz2     :     0.028658  d :     0.091738
      dxz     :     0.024384
      dyz     :     0.046555
      dx2y2   :    -0.018679
      dxy     :     0.010820
      f0      :     0.001153  f :     0.006120
      f+1     :     0.000863
      f-1     :     0.001220
      f+2     :     0.000771
      f-2     :     0.000799
      f+3     :     0.000672
      f-3     :     0.000642
  3 H s       :     0.667404  s :     0.667404
      pz      :    -0.003543  p :     0.008255
      px      :     0.002783
      py      :     0.009016
  4 H s       :     0.867588  s :     0.867588
      pz      :     0.022429  p :     0.025359
      px      :     0.018710
      py      :    -0.015780
  5 C s       :     3.242539  s :     3.242539
      pz      :     0.589220  p :     1.799083
      px      :     0.596154
      py      :     0.613710
      dz2     :     0.059137  d :     0.299000
      dxz     :     0.035832
      dyz     :     0.097735
      dx2y2   :     0.024909
      dxy     :     0.081387
      f0      :     0.003135  f :     0.028071
      f+1     :     0.003737
      f-1     :     0.003078
      f+2     :     0.004888
      f-2     :     0.004112
      f+3     :     0.004304
      f-3     :     0.004817
  6 C s       :     3.237095  s :     3.237095
      pz      :     0.656486  p :     1.974004
      px      :     0.570668
      py      :     0.746850
      dz2     :     0.053438  d :     0.094084
      dxz     :     0.149438
      dyz     :    -0.044599
      dx2y2   :    -0.015740
      dxy     :    -0.048454
      f0      :     0.003192  f :     0.014477
      f+1     :     0.001593
      f-1     :     0.001762
      f+2     :     0.001986
      f-2     :     0.001552
      f+3     :     0.002275
      f-3     :     0.002118
  7 C s       :     3.682119  s :     3.682119
      pz      :     1.039429  p :     3.746612
      px      :     1.252918
      py      :     1.454265
      dz2     :     0.031902  d :     0.033384
      dxz     :    -0.007695
      dyz     :     0.003716
      dx2y2   :     0.031214
      dxy     :    -0.025753
      f0      :     0.001037  f :     0.005342
      f+1     :     0.000795
      f-1     :     0.001047
      f+2     :     0.000510
      f-2     :     0.000827
      f+3     :     0.000727
      f-3     :     0.000397
  8 N s       :     3.609040  s :     3.609040
      pz      :     1.095285  p :     3.921167
      px      :     1.146719
      py      :     1.679163
      dz2     :    -0.002603  d :     0.054490
      dxz     :     0.021540
      dyz     :     0.009928
      dx2y2   :     0.016052
      dxy     :     0.009574
      f0      :     0.000386  f :     0.003606
      f+1     :     0.000671
      f-1     :     0.000306
      f+2     :     0.000538
      f-2     :     0.000306
      f+3     :     0.000694
      f-3     :     0.000704
  9 H s       :     0.796973  s :     0.796973
      pz      :     0.005319  p :     0.060548
      px      :     0.013964
      py      :     0.041264
 10 H s       :     0.803838  s :     0.803838
      pz      :     0.012528  p :     0.066911
      px      :     0.009480
      py      :     0.044903
 11 H s       :     0.298242  s :     0.298242
      pz      :    -0.046417  p :    -0.216269
      px      :    -0.064241
      py      :    -0.105611
 12 H s       :     0.702325  s :     0.702325
      pz      :     0.014572  p :     0.073318
      px      :     0.021398
      py      :     0.037348
 13 O s       :     4.089673  s :     4.089673
      pz      :     1.607812  p :     4.499359
      px      :     1.557178
      py      :     1.334369
      dz2     :     0.004724  d :     0.033736
      dxz     :     0.002010
      dyz     :     0.010600
      dx2y2   :     0.006421
      dxy     :     0.009981
      f0      :     0.000199  f :     0.001673
      f+1     :     0.000056
      f-1     :     0.000268
      f+2     :     0.000250
      f-2     :     0.000124
      f+3     :     0.000411
      f-3     :     0.000364
 14 F s       :     4.102106  s :     4.102106
      pz      :     1.663453  p :     5.175162
      px      :     1.630079
      py      :     1.881630
      dz2     :     0.007547  d :     0.020138
      dxz     :     0.003344
      dyz     :     0.002279
      dx2y2   :     0.004532
      dxy     :     0.002435
      f0      :     0.000101  f :     0.000935
      f+1     :     0.000215
      f-1     :     0.000063
      f+2     :     0.000191
      f-2     :     0.000190
      f+3     :     0.000086
      f-3     :     0.000088
 15 C s       :     3.030426  s :     3.030426
      pz      :     1.111068  p :     3.064716
      px      :     1.025776
      py      :     0.927872
      dz2     :     0.013100  d :     0.091040
      dxz     :    -0.021417
      dyz     :     0.028071
      dx2y2   :     0.068520
      dxy     :     0.002767
      f0      :     0.000601  f :     0.006398
      f+1     :     0.000586
      f-1     :     0.001471
      f+2     :     0.000548
      f-2     :     0.001075
      f+3     :     0.000895
      f-3     :     0.001221
 16 C s       :     3.330623  s :     3.330623
      pz      :     1.070455  p :     2.844660
      px      :     0.907637
      py      :     0.866568
      dz2     :    -0.001310  d :     0.121515
      dxz     :    -0.044603
      dyz     :     0.108556
      dx2y2   :     0.020644
      dxy     :     0.038228
      f0      :     0.000920  f :     0.006328
      f+1     :     0.000580
      f-1     :     0.000641
      f+2     :     0.000903
      f-2     :     0.000594
      f+3     :     0.001306
      f-3     :     0.001384
 17 H s       :     0.857433  s :     0.857433
      pz      :     0.034709  p :     0.061330
      px      :     0.004482
      py      :     0.022139
 18 H s       :     0.730988  s :     0.730988
      pz      :    -0.014161  p :     0.027752
      px      :     0.025547
      py      :     0.016366
 19 C s       :     3.335977  s :     3.335977
      pz      :     1.006799  p :     2.995639
      px      :     0.926225
      py      :     1.062615
      dz2     :     0.056200  d :     0.182954
      dxz     :     0.017612
      dyz     :     0.009295
      dx2y2   :     0.053449
      dxy     :     0.046398
      f0      :     0.001071  f :     0.006336
      f+1     :     0.000836
      f-1     :     0.000431
      f+2     :     0.000980
      f-2     :     0.000550
      f+3     :     0.001188
      f-3     :     0.001280
 20 H s       :     0.584771  s :     0.584771
      pz      :     0.070542  p :     0.129739
      px      :     0.059001
      py      :     0.000196
 21 H s       :     0.927310  s :     0.927310
      pz      :    -0.001163  p :    -0.004240
      px      :    -0.011788
      py      :     0.008711
 22 H s       :     0.618349  s :     0.618349
      pz      :    -0.007565  p :     0.051903
      px      :     0.017678
      py      :     0.041789
 23 H s       :     0.840140  s :     0.840140
      pz      :     0.012426  p :    -0.003003
      px      :     0.000037
      py      :    -0.015466
 24 H s       :     0.872538  s :     0.872538
      pz      :     0.022601  p :     0.024088
      px      :    -0.015669
      py      :     0.017155
 25 H s       :     0.780817  s :     0.780817
      pz      :    -0.003657  p :     0.011419
      px      :     0.019932
      py      :    -0.004856
 26 H s       :     0.763724  s :     0.763724
      pz      :     0.020823  p :     0.063251
      px      :     0.047306
      py      :    -0.004877
 27 H s       :     0.859637  s :     0.859637
      pz      :    -0.000428  p :     0.016861
      px      :    -0.004564
      py      :     0.021853


                     *******************************
                     * LOEWDIN POPULATION ANALYSIS *
                     *******************************

----------------------
LOEWDIN ATOMIC CHARGES
----------------------
   0 C :   -0.132808
   1 C :   -0.178426
   2 C :   -0.097386
   3 H :    0.112114
   4 H :    0.121880
   5 C :   -0.475199
   6 C :   -0.469066
   7 C :    0.010469
   8 N :    0.108001
   9 H :    0.097660
  10 H :    0.105812
  11 H :   -0.021376
  12 H :    0.034690
  13 O :    0.061822
  14 F :    0.236950
  15 C :   -0.187229
  16 C :   -0.189523
  17 H :    0.106806
  18 H :    0.096779
  19 C :   -0.200141
  20 H :    0.100070
  21 H :    0.111638
  22 H :    0.092780
  23 H :    0.114307
  24 H :    0.109306
  25 H :    0.109508
  26 H :    0.107086
  27 H :    0.113474

-------------------------------
LOEWDIN REDUCED ORBITAL CHARGES
-------------------------------
  0 C s       :     2.659970  s :     2.659970
      pz      :     0.894176  p :     2.705029
      px      :     0.905635
      py      :     0.905219
      dz2     :     0.192765  d :     0.727564
      dxz     :     0.114727
      dyz     :     0.184962
      dx2y2   :     0.099641
      dxy     :     0.135470
      f0      :     0.007709  f :     0.040246
      f+1     :     0.006203
      f-1     :     0.007366
      f+2     :     0.005075
      f-2     :     0.006448
      f+3     :     0.003916
      f-3     :     0.003529
  1 C s       :     2.675042  s :     2.675042
      pz      :     0.888891  p :     2.736384
      px      :     0.923578
      py      :     0.923915
      dz2     :     0.180027  d :     0.727265
      dxz     :     0.129476
      dyz     :     0.174646
      dx2y2   :     0.135932
      dxy     :     0.107184
      f0      :     0.006745  f :     0.039735
      f+1     :     0.008359
      f-1     :     0.005440
      f+2     :     0.006291
      f-2     :     0.004299
      f+3     :     0.002834
      f-3     :     0.005767
  2 C s       :     2.672327  s :     2.672327
      pz      :     0.905142  p :     2.713189
      px      :     0.915163
      py      :     0.892885
      dz2     :     0.155958  d :     0.674207
      dxz     :     0.160738
      dyz     :     0.154505
      dx2y2   :     0.081478
      dxy     :     0.121527
      f0      :     0.006816  f :     0.037664
      f+1     :     0.005023
      f-1     :     0.006958
      f+2     :     0.006265
      f-2     :     0.004856
      f+3     :     0.004220
      f-3     :     0.003526
  3 H s       :     0.677872  s :     0.677872
      pz      :     0.054165  p :     0.210014
      px      :     0.076282
      py      :     0.079567
  4 H s       :     0.677489  s :     0.677489
      pz      :     0.062695  p :     0.200631
      px      :     0.083112
      py      :     0.054824
  5 C s       :     2.628232  s :     2.628232
      pz      :     0.702799  p :     2.305697
      px      :     0.709767
      py      :     0.893131
      dz2     :     0.229397  d :     1.360285
      dxz     :     0.204272
      dyz     :     0.304957
      dx2y2   :     0.294754
      dxy     :     0.326905
      f0      :     0.021925  f :     0.180985
      f+1     :     0.023442
      f-1     :     0.019619
      f+2     :     0.030430
      f-2     :     0.027354
      f+3     :     0.027976
      f-3     :     0.030239
  6 C s       :     2.606986  s :     2.606986
      pz      :     0.959673  p :     2.575519
      px      :     0.875609
      py      :     0.740237
      dz2     :     0.274407  d :     1.193751
      dxz     :     0.290832
      dyz     :     0.184851
      dx2y2   :     0.197457
      dxy     :     0.246204
      f0      :     0.020069  f :     0.092811
      f+1     :     0.013825
      f-1     :     0.009103
      f+2     :     0.014679
      f-2     :     0.010667
      f+3     :     0.012881
      f-3     :     0.011588
  7 C s       :     2.699063  s :     2.699063
      pz      :     0.961189  p :     2.779207
      px      :     0.956113
      py      :     0.861905
      dz2     :     0.158634  d :     0.475846
      dxz     :     0.102811
      dyz     :     0.067676
      dx2y2   :     0.090183
      dxy     :     0.056542
      f0      :     0.006799  f :     0.035415
      f+1     :     0.008697
      f-1     :     0.004710
      f+2     :     0.004965
      f-2     :     0.005704
      f+3     :     0.003504
      f-3     :     0.001037
  8 N s       :     2.906005  s :     2.906005
      pz      :     1.062924  p :     3.564382
      px      :     1.149581
      py      :     1.351876
      dz2     :     0.044970  d :     0.409649
      dxz     :     0.165992
      dyz     :     0.029304
      dx2y2   :     0.077911
      dxy     :     0.091472
      f0      :     0.001909  f :     0.011963
      f+1     :     0.001826
      f-1     :     0.000768
      f+2     :     0.001629
      f-2     :     0.000933
      f+3     :     0.002404
      f-3     :     0.002492
  9 H s       :     0.627720  s :     0.627720
      pz      :     0.107887  p :     0.274620
      px      :     0.076554
      py      :     0.090179
 10 H s       :     0.631959  s :     0.631959
      pz      :     0.104112  p :     0.262229
      px      :     0.066594
      py      :     0.091523
 11 H s       :     0.642116  s :     0.642116
      pz      :     0.080243  p :     0.379260
      px      :     0.196401
      py      :     0.102616
 12 H s       :     0.714297  s :     0.714297
      pz      :     0.089050  p :     0.251012
      px      :     0.071266
      py      :     0.090696
 13 O s       :     3.337589  s :     3.337589
      pz      :     1.425466  p :     4.297830
      px      :     1.417058
      py      :     1.455306
      dz2     :     0.055883  d :     0.297445
      dxz     :     0.017292
      dyz     :     0.052166
      dx2y2   :     0.093533
      dxy     :     0.078571
      f0      :     0.000564  f :     0.005314
      f+1     :     0.000159
      f-1     :     0.000860
      f+2     :     0.000671
      f-2     :     0.000447
      f+3     :     0.001251
      f-3     :     0.001362
 14 F s       :     3.486845  s :     3.486845
      pz      :     1.644548  p :     5.028931
      px      :     1.631250
      py      :     1.753132
      dz2     :     0.046529  d :     0.244939
      dxz     :     0.065537
      dyz     :     0.042523
      dx2y2   :     0.037646
      dxy     :     0.052704
      f0      :     0.000217  f :     0.002335
      f+1     :     0.000507
      f-1     :     0.000156
      f+2     :     0.000486
      f-2     :     0.000529
      f+3     :     0.000218
      f-3     :     0.000223
 15 C s       :     2.676049  s :     2.676049
      pz      :     0.909364  p :     2.728166
      px      :     0.906442
      py      :     0.912361
      dz2     :     0.167177  d :     0.743275
      dxz     :     0.081320
      dyz     :     0.159450
      dx2y2   :     0.182707
      dxy     :     0.152621
      f0      :     0.003736  f :     0.039738
      f+1     :     0.004545
      f-1     :     0.007617
      f+2     :     0.004258
      f-2     :     0.006833
      f+3     :     0.005284
      f-3     :     0.007466
 16 C s       :     2.668007  s :     2.668007
      pz      :     0.903083  p :     2.719196
      px      :     0.906225
      py      :     0.909888
      dz2     :     0.118278  d :     0.761593
      dxz     :     0.139392
      dyz     :     0.134802
      dx2y2   :     0.193573
      dxy     :     0.175547
      f0      :     0.005332  f :     0.040727
      f+1     :     0.004444
      f-1     :     0.003219
      f+2     :     0.006723
      f-2     :     0.005139
      f+3     :     0.007391
      f-3     :     0.008479
 17 H s       :     0.686713  s :     0.686713
      pz      :     0.089328  p :     0.206482
      px      :     0.061325
      py      :     0.055828
 18 H s       :     0.688899  s :     0.688899
      pz      :     0.059498  p :     0.214322
      px      :     0.098422
      py      :     0.056401
 19 C s       :     2.667529  s :     2.667529
      pz      :     0.906293  p :     2.727622
      px      :     0.902524
      py      :     0.918804
      dz2     :     0.167754  d :     0.764793
      dxz     :     0.151182
      dyz     :     0.079144
      dx2y2   :     0.195480
      dxy     :     0.171232
      f0      :     0.005743  f :     0.040198
      f+1     :     0.005304
      f-1     :     0.002509
      f+2     :     0.007120
      f-2     :     0.005243
      f+3     :     0.006507
      f-3     :     0.007772
 20 H s       :     0.658021  s :     0.658021
      pz      :     0.114611  p :     0.241909
      px      :     0.063900
      py      :     0.063399
 21 H s       :     0.691163  s :     0.691163
      pz      :     0.064605  p :     0.197199
      px      :     0.051369
      py      :     0.081226
 22 H s       :     0.657332  s :     0.657332
      pz      :     0.084452  p :     0.249888
      px      :     0.063653
      py      :     0.101782
 23 H s       :     0.687552  s :     0.687552
      pz      :     0.094246  p :     0.198141
      px      :     0.052409
      py      :     0.051486
 24 H s       :     0.689136  s :     0.689136
      pz      :     0.062419  p :     0.201558
      px      :     0.052361
      py      :     0.086779
 25 H s       :     0.685891  s :     0.685891
      pz      :     0.050756  p :     0.204601
      px      :     0.088904
      py      :     0.064940
 26 H s       :     0.662503  s :     0.662503
      pz      :     0.060709  p :     0.230410
      px      :     0.107724
      py      :     0.061978
 27 H s       :     0.686434  s :     0.686434
      pz      :     0.058114  p :     0.200092
      px      :     0.067834
      py      :     0.074144


                      *****************************
                      * MAYER POPULATION ANALYSIS *
                      *****************************

  NA   - Mulliken gross atomic population
  ZA   - Total nuclear charge
  QA   - Mulliken gross atomic charge
  VA   - Mayer's total valence
  BVA  - Mayer's bonded valence
  FA   - Mayer's free valence

  ATOM       NA         ZA         QA         VA         BVA        FA
  0 C      6.3971     6.0000    -0.3971     3.9862     3.9862     0.0000
  1 C      6.2132     6.0000    -0.2132     4.3435     4.3435     0.0000
  2 C      6.3368     6.0000    -0.3368     4.1483     4.1483     0.0000
  3 H      0.6757     1.0000     0.3243     0.7280     0.7280     0.0000
  4 H      0.8929     1.0000     0.1071     1.0086     1.0086     0.0000
  5 C      5.3687     6.0000     0.6313     3.7969     3.7969    -0.0000
  6 C      5.3197     6.0000     0.6803     3.0446     3.0446    -0.0000
  7 C      7.4675     6.0000    -1.4675     3.2573     3.2573    -0.0000
  8 N      7.5883     7.0000    -0.5883     3.0906     3.0906    -0.0000
  9 H      0.8575     1.0000     0.1425     1.0312     1.0312    -0.0000
 10 H      0.8707     1.0000     0.1293     1.0593     1.0593    -0.0000
 11 H      0.0820     1.0000     0.9180     0.0408     0.0408     0.0000
 12 H      0.7756     1.0000     0.2244     1.1352     1.1352    -0.0000
 13 O      8.6244     8.0000    -0.6244     1.6016     1.6016     0.0000
 14 F      9.2983     9.0000    -0.2983     1.0774     1.0774    -0.0000
 15 C      6.1926     6.0000    -0.1926     4.3484     4.3484     0.0000
 16 C      6.3031     6.0000    -0.3031     3.9259     3.9259    -0.0000
 17 H      0.9188     1.0000     0.0812     1.0284     1.0284     0.0000
 18 H      0.7587     1.0000     0.2413     0.7928     0.7928    -0.0000
 19 C      6.5209     6.0000    -0.5209     4.1225     4.1225     0.0000
 20 H      0.7145     1.0000     0.2855     1.0273     1.0273    -0.0000
 21 H      0.9231     1.0000     0.0769     0.9313     0.9313     0.0000
 22 H      0.6703     1.0000     0.3297     0.8132     0.8132     0.0000
 23 H      0.8371     1.0000     0.1629     0.9102     0.9102    -0.0000
 24 H      0.8966     1.0000     0.1034     0.9892     0.9892     0.0000
 25 H      0.7922     1.0000     0.2078     0.8355     0.8355     0.0000
 26 H      0.8270     1.0000     0.1730     1.0404     1.0404     0.0000
 27 H      0.8765     1.0000     0.1235     0.8719     0.8719    -0.0000

  Mayer bond orders larger than 0.100000
B(  0-C ,  6-C ) :   0.9083 B(  0-C ,  8-N ) :   0.1308 B(  0-C , 15-C ) :   1.0041 
B(  0-C , 19-C ) :   0.1158 B(  0-C , 26-H ) :   0.8916 B(  0-C , 27-H ) :   0.9357 
B(  1-C ,  2-C ) :   1.0059 B(  1-C , 19-C ) :   1.3066 B(  1-C , 22-H ) :   0.1135 
B(  1-C , 24-H ) :   0.9128 B(  1-C , 25-H ) :   0.8543 B(  2-C ,  3-H ) :   0.8403 
B(  2-C ,  4-H ) :   0.8829 B(  2-C ,  5-C ) :   1.0865 B(  2-C , 16-C ) :   0.1224 
B(  5-C , 13-O ) :   1.6162 B(  5-C , 14-F ) :   0.8047 B(  6-C ,  7-C ) :   1.5208 
B(  6-C ,  8-N ) :   0.6680 B(  6-C , 11-H ) :  -0.1924 B(  6-C , 12-H ) :  -0.1141 
B(  6-C , 16-C ) :   0.1153 B(  7-C , 11-H ) :   0.4478 B(  7-C , 12-H ) :   1.1313 
B(  8-N ,  9-H ) :   1.0887 B(  8-N , 10-H ) :   1.0472 B( 11-H , 13-O ) :  -0.2765 
B( 13-O , 14-F ) :   0.1205 B( 15-C , 16-C ) :   1.2394 B( 15-C , 17-H ) :   0.9139 
B( 15-C , 18-H ) :   0.7847 B( 15-C , 19-C ) :   0.2505 B( 16-C , 19-C ) :   0.6887 
B( 16-C , 20-H ) :   0.8330 B( 16-C , 21-H ) :   0.9340 B( 19-C , 22-H ) :   0.8351 
B( 19-C , 23-H ) :   0.8492 

-------
TIMINGS
-------

Total SCF time: 0 days 0 hours 1 min 53 sec 

Total time                  ....     113.831 sec
Sum of individual times     ....     112.835 sec  ( 99.1%)

Fock matrix formation       ....     106.926 sec  ( 93.9%)
  Split-RI-J                ....      18.247 sec  ( 17.1% of F)
  XC integration            ....      88.353 sec  ( 82.6% of F)
    Basis function eval.    ....       8.835 sec  ( 10.0% of XC)
    Density eval.           ....      36.322 sec  ( 41.1% of XC)
    XC-Functional eval.     ....       1.378 sec  (  1.6% of XC)
    XC-Potential eval.      ....      40.485 sec  ( 45.8% of XC)
Diagonalization             ....       1.085 sec  (  1.0%)
Density matrix formation    ....       0.071 sec  (  0.1%)
Population analysis         ....       0.110 sec  (  0.1%)
Initial guess               ....       1.531 sec  (  1.3%)
Orbital Transformation      ....       0.000 sec  (  0.0%)
Orbital Orthonormalization  ....       0.000 sec  (  0.0%)
DIIS solution               ....       0.611 sec  (  0.5%)
SOSCF solution              ....       0.900 sec  (  0.8%)
Grid generation             ....       1.601 sec  (  1.4%)

Maximum memory used throughout the entire SCF-calculation: 91.7 MB


-------------------------------------------------------------------------------
                          DFT DISPERSION CORRECTION                            
                                                                               
                              DFTD3 V3.1  Rev 1                                
                          USING Becke-Johnson damping                          
-------------------------------------------------------------------------------
The TPSS functional is recognized
Active option DFTDOPT                   ...         4   

molecular C6(AA) [au] = 6199.865696 


            DFT-D V3
 parameters
 s6 scaling factor         :     1.0000 
 a1 scaling factor         :     0.4535 
 s8 scaling factor         :     1.9435 
 a2 scaling factor         :     4.4752 
 ad hoc parameters k1-k3   :    16.0000     1.3333    -4.0000 

 Edisp/kcal,au: -24.588631215530  -0.039184473875 
 E6   /kcal   : -12.827395776 
 E8   /kcal   : -11.761235439 
 % E8         :  47.832005516 

-------------------------   ----------------
Dispersion correction           -0.039184474
-------------------------   ----------------


-------------------------   --------------------
FINAL SINGLE POINT ENERGY      -582.683784561488
-------------------------   --------------------


                            ***************************************
                            *     ORCA property calculations      *
                            ***************************************

                                    ---------------------
                                    Active property flags
                                    ---------------------
   (+) Dipole Moment


------------------------------------------------------------------------------
                       ORCA ELECTRIC PROPERTIES CALCULATION
------------------------------------------------------------------------------

Dipole Moment Calculation                       ... on
Quadrupole Moment Calculation                   ... off
Polarizability Calculation                      ... off
GBWName                                         ... 28Oct_TZVPD_TPSS_D3_wb97.gbw
Electron density file                           ... 28Oct_TZVPD_TPSS_D3_wb97.scfp
The origin for moment calculation is the CENTER OF MASS  = ( 2.523521, -2.077617 -6.893167)

-------------
DIPOLE MOMENT
-------------
                                X             Y             Z
Electronic contribution:     -1.73407       0.85320     -12.12118
Nuclear contribution   :      1.88979       0.56282      12.66056
                        -----------------------------------------
Total Dipole Moment    :      0.15571       1.41602       0.53938
                        -----------------------------------------
Magnitude (a.u.)       :      1.52325
Magnitude (Debye)      :      3.87179



--------------------
Rotational spectrum 
--------------------
 
Rotational constants in cm-1:     0.040271     0.025954     0.018866 
Rotational constants in MHz :  1207.302496   778.083475   565.600538 

 Dipole components along the rotational axes: 
x,y,z [a.u.] :     0.546681     0.625779    -1.276646 
x,y,z [Debye]:     1.389554     1.590603    -3.244977 

 

Timings for individual modules:

Sum of individual times         ...      115.403 sec (=   1.923 min)
GTO integral calculation        ...        1.168 sec (=   0.019 min)   1.0 %
SCF iterations                  ...      114.235 sec (=   1.904 min)  99.0 %
                             ****ORCA TERMINATED NORMALLY****
TOTAL RUN TIME: 0 days 0 hours 1 minutes 56 seconds 46 msec
