
                                        *****************
                                        * O   R   C   A *
                                        *****************

                                            #,                                       
                                            ###                                      
                                            ####                                     
                                            #####                                    
                                            ######                                   
                                           ########,                                 
                                     ,,################,,,,,                         
                               ,,#################################,,                 
                          ,,##########################################,,             
                       ,#########################################, ''#####,          
                    ,#############################################,,   '####,        
                  ,##################################################,,,,####,       
                ,###########''''           ''''###############################       
              ,#####''   ,,,,##########,,,,          '''####'''          '####       
            ,##' ,,,,###########################,,,                        '##       
           ' ,,###''''                  '''############,,,                           
         ,,##''                                '''############,,,,        ,,,,,,###''
      ,#''                                            '''#######################'''  
     '                                                          ''''####''''         
             ,#######,   #######,   ,#######,      ##                                
            ,#'     '#,  ##    ##  ,#'     '#,    #''#        ######   ,####,        
            ##       ##  ##   ,#'  ##            #'  '#       #        #'  '#        
            ##       ##  #######   ##           ,######,      #####,   #    #        
            '#,     ,#'  ##    ##  '#,     ,#' ,#      #,         ##   #,  ,#        
             '#######'   ##     ##  '#######'  #'      '#     #####' # '####'        



                  #######################################################
                  #                        -***-                        #
                  #          Department of theory and spectroscopy      #
                  #    Directorship and core code : Frank Neese         #
                  #        Max Planck Institute fuer Kohlenforschung    #
                  #                Kaiser Wilhelm Platz 1               #
                  #                 D-45470 Muelheim/Ruhr               #
                  #                      Germany                        #
                  #                                                     #
                  #                  All rights reserved                #
                  #                        -***-                        #
                  #######################################################


                         Program Version 5.0.0 -  RELEASE  -
                                (SVN: $Rev: 19529$)
                ($Date: 2021-06-28 11:36:33 +0200 (Mo, 28 Jun 2021) $)


 With contributions from (in alphabetic order):
   Daniel Aravena         : Magnetic Suceptibility
   Michael Atanasov       : Ab Initio Ligand Field Theory (pilot matlab implementation)
   Alexander A. Auer      : GIAO ZORA, VPT2 properties, NMR spectrum
   Ute Becker             : Parallelization
   Giovanni Bistoni       : ED, misc. LED, open-shell LED, HFLD
   Martin Brehm           : Molecular dynamics
   Dmytro Bykov           : SCF Hessian
   Vijay G. Chilkuri      : MRCI spin determinant printing, contributions to CSF-ICE
   Dipayan Datta          : RHF DLPNO-CCSD density
   Achintya Kumar Dutta   : EOM-CC, STEOM-CC
   Dmitry Ganyushin       : Spin-Orbit,Spin-Spin,Magnetic field MRCI
   Miquel Garcia          : C-PCM Hessian, Gaussian charge scheme
   Yang Guo               : DLPNO-NEVPT2, F12-NEVPT2, CIM, IAO-localization
   Andreas Hansen         : Spin unrestricted coupled pair/coupled cluster methods
   Benjamin Helmich-Paris : MC-RPA, TRAH-SCF, COSX integrals
   Lee Huntington         : MR-EOM, pCC
   Robert Izsak           : Overlap fitted RIJCOSX, COSX-SCS-MP3, EOM
   Marcus Kettner         : VPT2
   Christian Kollmar      : KDIIS, OOCD, Brueckner-CCSD(T), CCSD density, CASPT2, CASPT2-K
   Simone Kossmann        : Meta GGA functionals, TD-DFT gradient, OOMP2, MP2 Hessian
   Martin Krupicka        : Initial AUTO-CI
   Lucas Lang             : DCDCAS
   Marvin Lechner         : AUTO-CI (C++ implementation), FIC-MRCC
   Dagmar Lenk            : GEPOL surface, SMD
   Dimitrios Liakos       : Extrapolation schemes; Compound Job, initial MDCI parallelization
   Dimitrios Manganas     : Further ROCIS development; embedding schemes
   Dimitrios Pantazis     : SARC Basis sets
   Anastasios Papadopoulos: AUTO-CI, single reference methods and gradients
   Taras Petrenko         : DFT Hessian,TD-DFT gradient, ASA, ECA, R-Raman, ABS, FL, XAS/XES, NRVS
   Peter Pinski           : DLPNO-MP2, DLPNO-MP2 Gradient
   Christoph Reimann      : Effective Core Potentials
   Marius Retegan         : Local ZFS, SOC
   Christoph Riplinger    : Optimizer, TS searches, QM/MM, DLPNO-CCSD(T), (RO)-DLPNO pert. Triples
   Tobias Risthaus        : Range-separated hybrids, TD-DFT gradient, RPA, STAB
   Michael Roemelt        : Original ROCIS implementation
   Masaaki Saitow         : Open-shell DLPNO-CCSD energy and density
   Barbara Sandhoefer     : DKH picture change effects
   Avijit Sen             : IP-ROCIS
   Kantharuban Sivalingam : CASSCF convergence, NEVPT2, FIC-MRCI
   Bernardo de Souza      : ESD, SOC TD-DFT
   Georgi Stoychev        : AutoAux, RI-MP2 NMR
   Willem Van den Heuvel  : Paramagnetic NMR
   Boris Wezisla          : Elementary symmetry handling
   Frank Wennmohs         : Technical directorship


 We gratefully acknowledge several colleagues who have allowed us to
 interface, adapt or use parts of their codes:
   Stefan Grimme, W. Hujo, H. Kruse, P. Pracht,  : VdW corrections, initial TS optimization,
                  C. Bannwarth, S. Ehlert          DFT functionals, gCP, sTDA/sTD-DF
   Ed Valeev, F. Pavosevic, A. Kumar             : LibInt (2-el integral package), F12 methods
   Garnet Chan, S. Sharma, J. Yang, R. Olivares  : DMRG
   Ulf Ekstrom                                   : XCFun DFT Library
   Mihaly Kallay                                 : mrcc  (arbitrary order and MRCC methods)
   Jiri Pittner, Ondrej Demel                    : Mk-CCSD
   Frank Weinhold                                : gennbo (NPA and NBO analysis)
   Christopher J. Cramer and Donald G. Truhlar   : smd solvation model
   Lars Goerigk                                  : TD-DFT with DH, B97 family of functionals
   V. Asgeirsson, H. Jonsson                     : NEB implementation
   FAccTs GmbH                                   : IRC, NEB, NEB-TS, DLPNO-Multilevel, CI-OPT
                                                   MM, QMMM, 2- and 3-layer-ONIOM, Crystal-QMMM,
                                                   LR-CPCM, SF, NACMEs, symmetry and pop. for TD-DFT,
                                                   nearIR, NL-DFT gradient (VV10), updates on ESD,
                                                   ML-optimized integration grids
   S Lehtola, MJT Oliveira, MAL Marques          : LibXC Library
   Liviu Ungur et al                             : ANISO software


 Your calculation uses the libint2 library for the computation of 2-el integrals
 For citations please refer to: http://libint.valeyev.net

 Your ORCA version has been built with support for libXC version: 5.1.0
 For citations please refer to: https://tddft.org/programs/libxc/

 This ORCA versions uses:
   CBLAS   interface :  Fast vector & matrix operations
   LAPACKE interface :  Fast linear algebra routines
   SCALAPACK package :  Parallel linear algebra routines
   Shared memory     :  Shared parallel matrices
   BLAS/LAPACK       :  OpenBLAS 0.3.15  USE64BITINT DYNAMIC_ARCH NO_AFFINITY Haswell SINGLE_THREADED
        Core in use  :  Haswell
   Copyright (c) 2011-2014, The OpenBLAS Project


Your calculation utilizes the atom-pairwise dispersion correction
with the Becke-Johnson damping scheme (D3BJ)
Cite in your paper:
S.Grimme, S.Ehrlich, L.Goerigk, J Comput Chem, (2011), 32, 1456–1465 
S.Grimme, J.Antony, S.Ehrlich and H.Krieg, J.Chem.Phys., 132, (2010), 154104 
   

================================================================================

----- Orbital basis set information -----
Your calculation utilizes the basis: def2-TZVP
   F. Weigend and R. Ahlrichs, Phys. Chem. Chem. Phys. 7, 3297 (2005).

----- AuxJ basis set information -----
Your calculation utilizes the auxiliary basis: def2/J
   F. Weigend, Phys. Chem. Chem. Phys. 8, 1057 (2006).

================================================================================
                                        WARNINGS
                       Please study these warnings very carefully!
================================================================================


INFO   : the flag for use of the SHARK integral package has been found!

================================================================================
                                       INPUT FILE
================================================================================
NAME = TZVP_PBE0_A_wt_dlpno_pos.com
|  1> !PBE0 D3BJ RIJCOSX def2-TZVP def2/J TightSCF
|  2> *xyz 1 1
|  3> C          4.36645       -0.13321       -1.41606
|  4> C          4.50829       -0.93187       -2.72425
|  5> C          3.05650       -0.32080       -0.70738
|  6> N          2.38983        0.71129       -0.24391
|  7> N          2.51600       -1.50772       -0.55023
|  8> H          2.96768       -2.32291       -0.95631
|  9> H          1.54987       -1.49063       -0.24988
| 10> H          2.74307        1.64947       -0.41280
| 11> H          1.44036        0.50278        0.03703
| 12> H          4.48784        0.93300       -1.61157
| 13> H          5.16967       -0.41443       -0.72982
| 14> H          5.46700       -0.73824       -3.15818
| 15> H          3.74074       -0.63528       -3.40821
| 16> H          4.41574       -1.97727       -2.51573
| 17> *
| 18> 
| 19> %MaxCore 64000
| 20> 
| 21> %pal nprocs 4
| 22> end  
| 23> 
| 24> %scf
| 25>   MaxIter 150
| 26> end
| 27> 
| 28> 
| 29>                          ****END OF INPUT****
================================================================================

                       ****************************
                       * Single Point Calculation *
                       ****************************

---------------------------------
CARTESIAN COORDINATES (ANGSTROEM)
---------------------------------
  C      4.366450   -0.133210   -1.416060
  C      4.508290   -0.931870   -2.724250
  C      3.056500   -0.320800   -0.707380
  N      2.389830    0.711290   -0.243910
  N      2.516000   -1.507720   -0.550230
  H      2.967680   -2.322910   -0.956310
  H      1.549870   -1.490630   -0.249880
  H      2.743070    1.649470   -0.412800
  H      1.440360    0.502780    0.037030
  H      4.487840    0.933000   -1.611570
  H      5.169670   -0.414430   -0.729820
  H      5.467000   -0.738240   -3.158180
  H      3.740740   -0.635280   -3.408210
  H      4.415740   -1.977270   -2.515730

----------------------------
CARTESIAN COORDINATES (A.U.)
----------------------------
  NO LB      ZA    FRAG     MASS         X           Y           Z
   0 C     6.0000    0    12.011    8.251395   -0.251730   -2.675966
   1 C     6.0000    0    12.011    8.519433   -1.760979   -5.148086
   2 C     6.0000    0    12.011    5.775948   -0.606224   -1.336754
   3 N     7.0000    0    14.007    4.516124    1.344143   -0.460923
   4 N     7.0000    0    14.007    4.754551   -2.849178   -1.039784
   5 H     1.0000    0     1.008    5.608102   -4.389664   -1.807164
   6 H     1.0000    0     1.008    2.928830   -2.816882   -0.472205
   7 H     1.0000    0     1.008    5.183651    3.117047   -0.780079
   8 H     1.0000    0     1.008    2.721886    0.950117    0.069977
   9 H     1.0000    0     1.008    8.480789    1.763114   -3.045426
  10 H     1.0000    0     1.008    9.769261   -0.783159   -1.379160
  11 H     1.0000    0     1.008   10.331133   -1.395071   -5.968095
  12 H     1.0000    0     1.008    7.068974   -1.200505   -6.440584
  13 H     1.0000    0     1.008    8.344539   -3.736499   -4.754041

--------------------------------
INTERNAL COORDINATES (ANGSTROEM)
--------------------------------
 C      0   0   0     0.000000000000     0.00000000     0.00000000
 C      1   0   0     1.539265232928     0.00000000     0.00000000
 C      1   2   0     1.501128359935   114.63267394     0.00000000
 N      3   1   2     1.313188142613   120.75855316   226.12761581
 N      3   1   2     1.313626833960   121.90040797    44.59980591
 H      5   3   1     1.016587686774   119.59992619   356.93386062
 H      5   3   1     1.011884068211   114.39974781   193.13877807
 H      4   3   1     1.016604171790   119.35879441     3.31232697
 H      4   3   1     1.011877949458   114.35559111   167.65058872
 H      1   2   3     1.090762786448   110.15675921   238.36983159
 H      1   2   3     1.093239403973   109.40897091   121.75146148
 H      2   1   3     1.070005927974   109.47100427   180.00044577
 H      2   1   3     1.069999958972   109.47126463    60.00036001
 H      2   1   3     1.070003389200   109.47128537   300.00008246

---------------------------
INTERNAL COORDINATES (A.U.)
---------------------------
 C      0   0   0     0.000000000000     0.00000000     0.00000000
 C      1   0   0     2.908789737700     0.00000000     0.00000000
 C      1   2   0     2.836721492139   114.63267394     0.00000000
 N      3   1   2     2.481565951852   120.75855316   226.12761581
 N      3   1   2     2.482394958355   121.90040797    44.59980591
 H      5   3   1     1.921072319119   119.59992619   356.93386062
 H      5   3   1     1.912183768198   114.39974781   193.13877807
 H      4   3   1     1.921103471284   119.35879441     3.31232697
 H      4   3   1     1.912172205430   114.35559111   167.65058872
 H      1   2   3     2.061242943460   110.15675921   238.36983159
 H      1   2   3     2.065923072321   109.40897091   121.75146148
 H      2   1   3     2.022018165544   109.47100427   180.00044577
 H      2   1   3     2.022006885764   109.47126463    60.00036001
 H      2   1   3     2.022013367956   109.47128537   300.00008246

---------------------
BASIS SET INFORMATION
---------------------
There are 3 groups of distinct atoms

 Group   1 Type C   : 11s6p2d1f contracted to 5s3p2d1f pattern {62111/411/11/1}
 Group   2 Type N   : 11s6p2d1f contracted to 5s3p2d1f pattern {62111/411/11/1}
 Group   3 Type H   : 5s1p contracted to 3s1p pattern {311/1}

Atom   0C    basis set group =>   1
Atom   1C    basis set group =>   1
Atom   2C    basis set group =>   1
Atom   3N    basis set group =>   2
Atom   4N    basis set group =>   2
Atom   5H    basis set group =>   3
Atom   6H    basis set group =>   3
Atom   7H    basis set group =>   3
Atom   8H    basis set group =>   3
Atom   9H    basis set group =>   3
Atom  10H    basis set group =>   3
Atom  11H    basis set group =>   3
Atom  12H    basis set group =>   3
Atom  13H    basis set group =>   3
---------------------------------
AUXILIARY/J BASIS SET INFORMATION
---------------------------------
There are 3 groups of distinct atoms

 Group   1 Type C   : 12s5p4d2f1g contracted to 6s4p3d1f1g pattern {711111/2111/211/2/1}
 Group   2 Type N   : 12s5p4d2f1g contracted to 6s4p3d1f1g pattern {711111/2111/211/2/1}
 Group   3 Type H   : 5s2p1d contracted to 3s1p1d pattern {311/2/1}

Atom   0C    basis set group =>   1
Atom   1C    basis set group =>   1
Atom   2C    basis set group =>   1
Atom   3N    basis set group =>   2
Atom   4N    basis set group =>   2
Atom   5H    basis set group =>   3
Atom   6H    basis set group =>   3
Atom   7H    basis set group =>   3
Atom   8H    basis set group =>   3
Atom   9H    basis set group =>   3
Atom  10H    basis set group =>   3
Atom  11H    basis set group =>   3
Atom  12H    basis set group =>   3
Atom  13H    basis set group =>   3


           ************************************************************
           *        Program running with 4 parallel MPI-processes     *
           *              working on a common directory               *
           ************************************************************
------------------------------------------------------------------------------
                           ORCA GTO INTEGRAL CALCULATION
                           -- RI-GTO INTEGRALS CHOSEN --
------------------------------------------------------------------------------
------------------------------------------------------------------------------
                   ___                                                        
                  /   \      - P O W E R E D   B Y -                         
                 /     \                                                     
                 |  |  |   _    _      __       _____    __    __             
                 |  |  |  | |  | |    /  \     |  _  \  |  |  /  |          
                  \  \/   | |  | |   /    \    | | | |  |  | /  /          
                 / \  \   | |__| |  /  /\  \   | |_| |  |  |/  /          
                |  |  |   |  __  | /  /__\  \  |    /   |      \           
                |  |  |   | |  | | |   __   |  |    \   |  |\   \          
                \     /   | |  | | |  |  |  |  | |\  \  |  | \   \       
                 \___/    |_|  |_| |__|  |__|  |_| \__\ |__|  \__/        
                                                                              
                      - O R C A' S   B I G   F R I E N D -                    
                                      &                                       
                       - I N T E G R A L  F E E D E R -                       
                                                                              
 v1 FN, 2020, v2 2021                                                         
------------------------------------------------------------------------------


Reading SHARK input file TZVP_PBE0_A_wt_dlpno_pos.SHARKINP.tmp ... ok
----------------------
SHARK INTEGRAL PACKAGE
----------------------

Number of atoms                             ...     14
Number of basis functions                   ...    209
Number of shells                            ...     91
Maximum angular momentum                    ...      3
Integral batch strategy                     ... SHARK/LIBINT Hybrid
RI-J (if used) integral strategy            ... SPLIT-RIJ (Revised 2003 algorithm where possible)
Printlevel                                  ...      1
Contraction scheme used                     ... SEGMENTED contraction
Coulomb Range Separation                    ... NOT USED
Exchange Range Separation                   ... NOT USED
Finite Nucleus Model                        ... NOT USED
Auxiliary Coulomb fitting basis             ... AVAILABLE
   # of basis functions in Aux-J            ...    344
   # of shells in Aux-J                     ...    120
   Maximum angular momentum in Aux-J        ...      4
Auxiliary J/K fitting basis                 ... NOT available
Auxiliary Correlation fitting basis         ... NOT available
Auxiliary 'external' fitting basis          ... NOT available
Integral threshold                          ...     2.500000e-11
Primitive cut-off                           ...     2.500000e-12
Primitive pair pre-selection threshold      ...     2.500000e-12

Calculating pre-screening integrals         ... done (  0.1 sec) Dimension = 91
Organizing shell pair data                  ... done (  0.0 sec)
Shell pair information
Total number of shell pairs                 ...      4186
Shell pairs after pre-screening             ...      4025
Total number of primitive shell pairs       ...     12072
Primitive shell pairs kept                  ...      9247
          la=0 lb=0:   1290 shell pairs
          la=1 lb=0:   1206 shell pairs
          la=1 lb=1:    296 shell pairs
          la=2 lb=0:    504 shell pairs
          la=2 lb=1:    238 shell pairs
          la=2 lb=2:     55 shell pairs
          la=3 lb=0:    252 shell pairs
          la=3 lb=1:    119 shell pairs
          la=3 lb=2:     50 shell pairs
          la=3 lb=3:     15 shell pairs

Calculating one electron integrals          ... done (  0.0 sec)
Calculating RI/J V-Matrix + Cholesky decomp.... done (  0.0 sec)
Calculating Nuclear repulsion               ... done (  0.0 sec) ENN=    189.987867639951 Eh

SHARK setup successfully completed in   0.2 seconds

Maximum memory used throughout the entire GTOINT-calculation: 13.9 MB


           ************************************************************
           *        Program running with 4 parallel MPI-processes     *
           *              working on a common directory               *
           ************************************************************
-------------------------------------------------------------------------------
                                 ORCA SCF
-------------------------------------------------------------------------------

------------
SCF SETTINGS
------------
Hamiltonian:
 Density Functional     Method          .... DFT(GTOs)
 Exchange Functional    Exchange        .... PBE
   PBE kappa parameter   XKappa         ....  0.804000
   PBE mue parameter    XMuePBE         ....  0.219520
 Correlation Functional Correlation     .... PBE
   PBE beta parameter  CBetaPBE         ....  0.066725
 LDA part of GGA corr.  LDAOpt          .... PW91-LDA
 Gradients option       PostSCFGGA      .... off
 Hybrid DFT is turned on
   Fraction HF Exchange ScalHFX         ....  0.250000
   Scaling of DF-GGA-X  ScalDFX         ....  0.750000
   Scaling of DF-GGA-C  ScalDFC         ....  1.000000
   Scaling of DF-LDA-C  ScalLDAC        ....  1.000000
   Perturbative correction              ....  0.000000
   Density functional embedding theory  .... OFF
   NL short-range parameter             ....  6.900000
 RI-approximation to the Coulomb term is turned on
   Number of AuxJ basis functions       .... 344
   RIJ-COSX (HFX calculated with COS-X)).... on


General Settings:
 Integral files         IntName         .... TZVP_PBE0_A_wt_dlpno_pos
 Hartree-Fock type      HFTyp           .... RHF
 Total Charge           Charge          ....    1
 Multiplicity           Mult            ....    1
 Number of Electrons    NEL             ....   40
 Basis Dimension        Dim             ....  209
 Nuclear Repulsion      ENuc            ....    189.9878676400 Eh

Convergence Acceleration:
 DIIS                   CNVDIIS         .... on
   Start iteration      DIISMaxIt       ....    12
   Startup error        DIISStart       ....  0.200000
   # of expansion vecs  DIISMaxEq       ....     5
   Bias factor          DIISBfac        ....   1.050
   Max. coefficient     DIISMaxC        ....  10.000
 Trust-Rad. Augm. Hess. CNVTRAH         .... auto
   Auto Start mean grad. ratio tolernc. ....  1.125000
   Auto Start start iteration           ....    20
   Auto Start num. interpolation iter.  ....    10
   Max. Number of Micro iterations      ....    16
   Max. Number of Macro iterations      .... Maxiter - #DIIS iter
   Number of Davidson start vectors     ....     2
   Converg. threshold I  (grad. norm)   ....   1.000e-05
   Converg. threshold II (energy diff.) ....   1.000e-08
   Grad. Scal. Fac. for Micro threshold ....   0.100
   Minimum threshold for Micro iter.    ....   0.010
   NR start threshold (gradient norm)   ....   0.001
   Initial trust radius                 ....   0.400
   Minimum AH scaling param. (alpha)    ....   1.000
   Maximum AH scaling param. (alpha)    .... 1000.000
   Orbital update algorithm             .... Taylor
   White noise on init. David. guess    .... on
   Maximum white noise                  ....   0.010
   Quad. conv. algorithm                .... NR
 SOSCF                  CNVSOSCF        .... on
   Start iteration      SOSCFMaxIt      ....   150
   Startup grad/error   SOSCFStart      ....  0.003300
 Level Shifting         CNVShift        .... on
   Level shift para.    LevelShift      ....    0.2500
   Turn off err/grad.   ShiftErr        ....    0.0010
 Zerner damping         CNVZerner       .... off
 Static damping         CNVDamp         .... on
   Fraction old density DampFac         ....    0.7000
   Max. Damping (<1)    DampMax         ....    0.9800
   Min. Damping (>=0)   DampMin         ....    0.0000
   Turn off err/grad.   DampErr         ....    0.1000
 Fernandez-Rico         CNVRico         .... off

SCF Procedure:
 Maximum # iterations   MaxIter         ....   150
 SCF integral mode      SCFMode         .... Direct
   Integral package                     .... SHARK and LIBINT hybrid scheme
 Reset frequency        DirectResetFreq ....    20
 Integral Threshold     Thresh          ....  2.500e-11 Eh
 Primitive CutOff       TCut            ....  2.500e-12 Eh

Convergence Tolerance:
 Convergence Check Mode ConvCheckMode   .... Total+1el-Energy
 Convergence forced     ConvForced      .... 0
 Energy Change          TolE            ....  1.000e-08 Eh
 1-El. energy change                    ....  1.000e-05 Eh
 Orbital Gradient       TolG            ....  1.000e-05
 Orbital Rotation angle TolX            ....  1.000e-05
 DIIS Error             TolErr          ....  5.000e-07


Diagonalization of the overlap matrix:
Smallest eigenvalue                        ... 1.961e-04
Time for diagonalization                   ...    0.007 sec
Threshold for overlap eigenvalues          ... 1.000e-08
Number of eigenvalues below threshold      ... 0
Time for construction of square roots      ...    0.007 sec
Total time needed                          ...    0.014 sec

Time for model grid setup =    0.081 sec

------------------------------
INITIAL GUESS: MODEL POTENTIAL
------------------------------
Loading Hartree-Fock densities                     ... done
Calculating cut-offs                               ... done
Initializing the effective Hamiltonian             ... done
Setting up the integral package (SHARK)            ... done
Starting the Coulomb interaction                   ... done (   0.1 sec)
Reading the grid                                   ... done
Mapping shells                                     ... done
Starting the XC term evaluation                    ... done (   0.1 sec)
  promolecular density results
     # of electrons  =     40.996621643
     EX              =    -31.143978905
     EC              =     -1.342388898
     EX+EC           =    -32.486367803
Transforming the Hamiltonian                       ... done (   0.0 sec)
Diagonalizing the Hamiltonian                      ... done (   0.0 sec)
Back transforming the eigenvectors                 ... done (   0.0 sec)
Now organizing SCF variables                       ... done
                      ------------------
                      INITIAL GUESS DONE (   0.2 sec)
                      ------------------
-------------------
DFT GRID GENERATION
-------------------

General Integration Accuracy     IntAcc      ... 4.388
Radial Grid Type                 RadialGrid  ... OptM3 with GC (2021)
Angular Grid (max. ang.)         AngularGrid ... 4 (Lebedev-302)
Angular grid pruning method      GridPruning ... 4 (adaptive)
Weight generation scheme         WeightScheme... Becke
Basis function cutoff            BFCut       ... 1.0000e-11
Integration weight cutoff        WCut        ... 1.0000e-14
Angular grids for H and He will be reduced by one unit
Partially contracted basis set               ... off
Rotationally invariant grid construction     ... off

Total number of grid points                  ...    59231
Total number of batches                      ...      933
Average number of points per batch           ...       63
Average number of grid points per atom       ...     4231
Time for grid setup =    0.413 sec

--------------------
COSX GRID GENERATION
--------------------

GRIDX 1
-------
General Integration Accuracy     IntAcc      ... 3.816
Radial Grid Type                 RadialGrid  ... OptM3 with GC (2021)
Angular Grid (max. ang.)         AngularGrid ... 1 (Lebedev-50)
Angular grid pruning method      GridPruning ... 4 (adaptive)
Weight generation scheme         WeightScheme... Becke
Basis function cutoff            BFCut       ... 1.0000e-11
Integration weight cutoff        WCut        ... 1.0000e-14
Angular grids for H and He will be reduced by one unit
Partially contracted basis set               ... on
Rotationally invariant grid construction     ... off

Total number of grid points                  ...     7629
Total number of batches                      ...      128
Average number of points per batch           ...       59
Average number of grid points per atom       ...      545
UseSFitting                                  ... on

GRIDX 2
-------
General Integration Accuracy     IntAcc      ... 4.020
Radial Grid Type                 RadialGrid  ... OptM3 with GC (2021)
Angular Grid (max. ang.)         AngularGrid ... 2 (Lebedev-110)
Angular grid pruning method      GridPruning ... 4 (adaptive)
Weight generation scheme         WeightScheme... Becke
Basis function cutoff            BFCut       ... 1.0000e-11
Integration weight cutoff        WCut        ... 1.0000e-14
Angular grids for H and He will be reduced by one unit
Partially contracted basis set               ... on
Rotationally invariant grid construction     ... off

Total number of grid points                  ...    15953
Total number of batches                      ...      256
Average number of points per batch           ...       62
Average number of grid points per atom       ...     1140
UseSFitting                                  ... on

GRIDX 3
-------
General Integration Accuracy     IntAcc      ... 4.338
Radial Grid Type                 RadialGrid  ... OptM3 with GC (2021)
Angular Grid (max. ang.)         AngularGrid ... 3 (Lebedev-194)
Angular grid pruning method      GridPruning ... 4 (adaptive)
Weight generation scheme         WeightScheme... Becke
Basis function cutoff            BFCut       ... 1.0000e-11
Integration weight cutoff        WCut        ... 1.0000e-14
Angular grids for H and He will be reduced by one unit
Partially contracted basis set               ... on
Rotationally invariant grid construction     ... off

Total number of grid points                  ...    34939
Total number of batches                      ...      554
Average number of points per batch           ...       63
Average number of grid points per atom       ...     2496
UseSFitting                                  ... on

Time for X-Grid setup             =    0.367 sec

--------------
SCF ITERATIONS
--------------
ITER       Energy         Delta-E        Max-DP      RMS-DP      [F,P]     Damp
               ***  Starting incremental Fock matrix formation  ***
  0   -228.6750723024   0.000000000000 0.03485883  0.00090714  0.1914198 0.7000
  1   -228.7501343835  -0.075062081115 0.02141624  0.00064821  0.0948863 0.7000
                               ***Turning on DIIS***
  2   -228.7812347086  -0.031100325147 0.03242093  0.00112570  0.0360390 0.0000
  3   -228.8268579328  -0.045623224193 0.01437778  0.00042284  0.0509690 0.0000
  4   -228.8382137891  -0.011355856300 0.00338837  0.00012384  0.0099188 0.0000
                      *** Initiating the SOSCF procedure ***
                           *** Shutting down DIIS ***
                      *** Re-Reading the Fockian *** 
                      *** Removing any level shift *** 
ITER      Energy       Delta-E        Grad      Rot      Max-DP    RMS-DP
  5   -228.83862033  -0.0004065399  0.001089  0.001089  0.001079  0.000043
               *** Restarting incremental Fock matrix formation ***
  6   -228.83869126  -0.0000709327  0.000186  0.000453  0.000726  0.000026
  7   -228.83869283  -0.0000015726  0.000179  0.000306  0.000230  0.000008
  8   -228.83869366  -0.0000008229  0.000068  0.000137  0.000107  0.000004
  9   -228.83869370  -0.0000000476  0.000026  0.000030  0.000043  0.000001
 10   -228.83869372  -0.0000000177  0.000008  0.000017  0.000025  0.000001
 11   -228.83869372  -0.0000000018  0.000005  0.000012  0.000011  0.000000
 12   -228.83869372   0.0000000012  0.000005  0.000006  0.000005  0.000000
                  ***Gradient check signals convergence***
              ***Rediagonalizing the Fockian in SOSCF/NRSCF***

               *****************************************************
               *                     SUCCESS                       *
               *           SCF CONVERGED AFTER  13 CYCLES          *
               *****************************************************

Old exchange energy                            =     -7.948672439 Eh
New exchange energy                            =     -7.948655206 Eh
Exchange energy change after final integration =      0.000017233 Eh
Total energy after final integration           =   -228.838676496 Eh
Final COS-X integration done in                =     2.626 sec

----------------
TOTAL SCF ENERGY
----------------

Total Energy       :         -228.83867650 Eh           -6227.01696 eV

Components:
Nuclear Repulsion  :          189.98786764 Eh            5169.83271 eV
Electronic Energy  :         -418.82654414 Eh          -11396.84967 eV
One Electron Energy:         -675.61634970 Eh          -18384.45552 eV
Two Electron Energy:          256.78980556 Eh            6987.60585 eV
Max COSX asymmetry :            0.00000090 Eh               0.00002 eV

Virial components:
Potential Energy   :         -456.63803551 Eh          -12425.75266 eV
Kinetic Energy     :          227.79935902 Eh            6198.73570 eV
Virial Ratio       :            2.00456242


DFT components:
N(Alpha)           :       20.000026513848 electrons
N(Beta)            :       20.000026513848 electrons
N(Total)           :       40.000053027696 electrons
E(X)               :      -23.754678959006 Eh       
E(C)               :       -1.318556290955 Eh       
E(XC)              :      -25.073235249961 Eh       
DFET-embed. en.    :        0.000000000000 Eh       

---------------
SCF CONVERGENCE
---------------

  Last Energy change         ...   -5.3741e-09  Tolerance :   1.0000e-08
  Last MAX-Density change    ...    8.8818e-16  Tolerance :   1.0000e-07
  Last RMS-Density change    ...    1.8182e-17  Tolerance :   5.0000e-09
  Last Orbital Gradient      ...    4.5589e-07  Tolerance :   1.0000e-05
  Last Orbital Rotation      ...    8.7825e-07  Tolerance :   1.0000e-05

             **** THE GBW FILE WAS UPDATED (TZVP_PBE0_A_wt_dlpno_pos.gbw) ****
             **** DENSITY TZVP_PBE0_A_wt_dlpno_pos.scfp WAS UPDATED ****
             **** ENERGY FILE WAS UPDATED (TZVP_PBE0_A_wt_dlpno_pos.en.tmp) ****
             **** THE GBW FILE WAS UPDATED (TZVP_PBE0_A_wt_dlpno_pos.gbw) ****
             **** DENSITY TZVP_PBE0_A_wt_dlpno_pos.scfp WAS UPDATED ****
----------------
ORBITAL ENERGIES
----------------

  NO   OCC          E(Eh)            E(eV) 
   0   2.0000     -14.629655      -398.0931 
   1   2.0000     -14.628244      -398.0548 
   2   2.0000     -10.542532      -286.8769 
   3   2.0000     -10.423680      -283.6428 
   4   2.0000     -10.378728      -282.4195 
   5   2.0000      -1.240353       -33.7517 
   6   2.0000      -1.132952       -30.8292 
   7   2.0000      -0.994322       -27.0569 
   8   2.0000      -0.881330       -23.9822 
   9   2.0000      -0.837211       -22.7817 
  10   2.0000      -0.785925       -21.3861 
  11   2.0000      -0.772725       -21.0269 
  12   2.0000      -0.718619       -19.5546 
  13   2.0000      -0.675020       -18.3682 
  14   2.0000      -0.642175       -17.4745 
  15   2.0000      -0.615851       -16.7582 
  16   2.0000      -0.568172       -15.4608 
  17   2.0000      -0.553909       -15.0726 
  18   2.0000      -0.539578       -14.6827 
  19   2.0000      -0.506075       -13.7710 
  20   0.0000      -0.206477        -5.6185 
  21   0.0000      -0.154408        -4.2017 
  22   0.0000      -0.108560        -2.9541 
  23   0.0000      -0.105588        -2.8732 
  24   0.0000      -0.070164        -1.9093 
  25   0.0000      -0.064321        -1.7503 
  26   0.0000      -0.046366        -1.2617 
  27   0.0000      -0.030319        -0.8250 
  28   0.0000      -0.014705        -0.4001 
  29   0.0000      -0.004499        -0.1224 
  30   0.0000       0.009673         0.2632 
  31   0.0000       0.026132         0.7111 
  32   0.0000       0.037031         1.0077 
  33   0.0000       0.055440         1.5086 
  34   0.0000       0.079546         2.1646 
  35   0.0000       0.083635         2.2758 
  36   0.0000       0.103923         2.8279 
  37   0.0000       0.115655         3.1471 
  38   0.0000       0.139705         3.8016 
  39   0.0000       0.141042         3.8379 
  40   0.0000       0.148469         4.0400 
  41   0.0000       0.184118         5.0101 
  42   0.0000       0.188032         5.1166 
  43   0.0000       0.203660         5.5419 
  44   0.0000       0.235610         6.4113 
  45   0.0000       0.258641         7.0380 
  46   0.0000       0.262133         7.1330 
  47   0.0000       0.275244         7.4898 
  48   0.0000       0.282070         7.6755 
  49   0.0000       0.292168         7.9503 
  50   0.0000       0.299826         8.1587 
  51   0.0000       0.314010         8.5446 
  52   0.0000       0.325435         8.8555 
  53   0.0000       0.332322         9.0429 
  54   0.0000       0.346781         9.4364 
  55   0.0000       0.380974        10.3668 
  56   0.0000       0.396952        10.8016 
  57   0.0000       0.416290        11.3278 
  58   0.0000       0.426413        11.6033 
  59   0.0000       0.464354        12.6357 
  60   0.0000       0.485702        13.2166 
  61   0.0000       0.488354        13.2888 
  62   0.0000       0.530698        14.4410 
  63   0.0000       0.551310        15.0019 
  64   0.0000       0.572954        15.5909 
  65   0.0000       0.664156        18.0726 
  66   0.0000       0.676084        18.3972 
  67   0.0000       0.726565        19.7708 
  68   0.0000       0.749988        20.4082 
  69   0.0000       0.778530        21.1849 
  70   0.0000       0.786046        21.3894 
  71   0.0000       0.832469        22.6526 
  72   0.0000       0.857266        23.3274 
  73   0.0000       0.888000        24.1637 
  74   0.0000       0.901724        24.5372 
  75   0.0000       0.936146        25.4738 
  76   0.0000       0.950851        25.8740 
  77   0.0000       0.987298        26.8657 
  78   0.0000       1.038931        28.2707 
  79   0.0000       1.079235        29.3675 
  80   0.0000       1.091053        29.6891 
  81   0.0000       1.135413        30.8962 
  82   0.0000       1.218976        33.1700 
  83   0.0000       1.249990        34.0140 
  84   0.0000       1.266375        34.4598 
  85   0.0000       1.281637        34.8751 
  86   0.0000       1.320733        35.9390 
  87   0.0000       1.335173        36.3319 
  88   0.0000       1.347117        36.6569 
  89   0.0000       1.375767        37.4365 
  90   0.0000       1.384247        37.6673 
  91   0.0000       1.401567        38.1386 
  92   0.0000       1.435918        39.0733 
  93   0.0000       1.450080        39.4587 
  94   0.0000       1.456972        39.6462 
  95   0.0000       1.497233        40.7418 
  96   0.0000       1.505719        40.9727 
  97   0.0000       1.517899        41.3041 
  98   0.0000       1.541124        41.9361 
  99   0.0000       1.590043        43.2673 
 100   0.0000       1.619937        44.0807 
 101   0.0000       1.635546        44.5055 
 102   0.0000       1.655578        45.0506 
 103   0.0000       1.667298        45.3695 
 104   0.0000       1.687264        45.9128 
 105   0.0000       1.723448        46.8974 
 106   0.0000       1.789404        48.6922 
 107   0.0000       1.808344        49.2076 
 108   0.0000       1.836411        49.9713 
 109   0.0000       1.863044        50.6960 
 110   0.0000       1.886770        51.3416 
 111   0.0000       1.908770        51.9403 
 112   0.0000       2.010027        54.6956 
 113   0.0000       2.056068        55.9485 
 114   0.0000       2.077980        56.5447 
 115   0.0000       2.121030        57.7162 
 116   0.0000       2.122434        57.7544 
 117   0.0000       2.151885        58.5558 
 118   0.0000       2.171147        59.0799 
 119   0.0000       2.181266        59.3553 
 120   0.0000       2.214987        60.2729 
 121   0.0000       2.237005        60.8720 
 122   0.0000       2.264676        61.6250 
 123   0.0000       2.301024        62.6141 
 124   0.0000       2.304549        62.7100 
 125   0.0000       2.349809        63.9416 
 126   0.0000       2.386540        64.9411 
 127   0.0000       2.424564        65.9757 
 128   0.0000       2.446332        66.5681 
 129   0.0000       2.463594        67.0378 
 130   0.0000       2.471485        67.2525 
 131   0.0000       2.501018        68.0562 
 132   0.0000       2.518065        68.5200 
 133   0.0000       2.534631        68.9708 
 134   0.0000       2.582264        70.2670 
 135   0.0000       2.657960        72.3268 
 136   0.0000       2.687354        73.1266 
 137   0.0000       2.707734        73.6812 
 138   0.0000       2.747518        74.7638 
 139   0.0000       2.780727        75.6674 
 140   0.0000       2.807923        76.4075 
 141   0.0000       2.838972        77.2524 
 142   0.0000       2.888009        78.5867 
 143   0.0000       2.908754        79.1512 
 144   0.0000       2.932746        79.8041 
 145   0.0000       2.947731        80.2118 
 146   0.0000       2.979721        81.0823 
 147   0.0000       3.001229        81.6676 
 148   0.0000       3.023091        82.2625 
 149   0.0000       3.041175        82.7546 
 150   0.0000       3.049751        82.9880 
 151   0.0000       3.109841        84.6231 
 152   0.0000       3.124701        85.0274 
 153   0.0000       3.162450        86.0546 
 154   0.0000       3.198367        87.0320 
 155   0.0000       3.227633        87.8283 
 156   0.0000       3.267879        88.9235 
 157   0.0000       3.310735        90.0897 
 158   0.0000       3.336350        90.7867 
 159   0.0000       3.359627        91.4201 
 160   0.0000       3.375301        91.8466 
 161   0.0000       3.467245        94.3485 
 162   0.0000       3.496800        95.1528 
 163   0.0000       3.530455        96.0686 
 164   0.0000       3.560405        96.8835 
 165   0.0000       3.599742        97.9540 
 166   0.0000       3.646336        99.2218 
 167   0.0000       3.694711       100.5382 
 168   0.0000       3.731170       101.5303 
 169   0.0000       3.800956       103.4293 
 170   0.0000       3.831216       104.2527 
 171   0.0000       3.882870       105.6583 
 172   0.0000       3.951871       107.5359 
 173   0.0000       4.076287       110.9214 
 174   0.0000       4.092245       111.3556 
 175   0.0000       4.127187       112.3065 
 176   0.0000       4.197565       114.2216 
 177   0.0000       4.232159       115.1629 
 178   0.0000       4.302060       117.0650 
 179   0.0000       4.378253       119.1383 
 180   0.0000       4.401233       119.7636 
 181   0.0000       4.435105       120.6853 
 182   0.0000       4.452348       121.1545 
 183   0.0000       4.494919       122.3130 
 184   0.0000       4.556713       123.9945 
 185   0.0000       4.619920       125.7144 
 186   0.0000       4.628838       125.9571 
 187   0.0000       4.657212       126.7292 
 188   0.0000       4.693616       127.7198 
 189   0.0000       4.722822       128.5145 
 190   0.0000       4.838115       131.6518 
 191   0.0000       4.890187       133.0688 
 192   0.0000       4.907694       133.5451 
 193   0.0000       4.944984       134.5599 
 194   0.0000       4.961470       135.0085 
 195   0.0000       4.994935       135.9191 
 196   0.0000       5.107922       138.9936 
 197   0.0000       5.137474       139.7978 
 198   0.0000       5.146972       140.0562 
 199   0.0000       5.200673       141.5175 
 200   0.0000       5.327653       144.9728 
 201   0.0000       5.650523       153.7585 
 202   0.0000       5.777111       157.2032 
 203   0.0000       5.894549       160.3988 
 204   0.0000      22.297970       606.7586 
 205   0.0000      22.357164       608.3694 
 206   0.0000      23.044339       627.0683 
 207   0.0000      31.792361       865.1141 
 208   0.0000      31.972800       870.0241 

                    ********************************
                    * MULLIKEN POPULATION ANALYSIS *
                    ********************************

-----------------------
MULLIKEN ATOMIC CHARGES
-----------------------
   0 C :   -0.207586
   1 C :   -0.368724
   2 C :    0.279596
   3 N :   -0.320099
   4 N :   -0.322200
   5 H :    0.301190
   6 H :    0.274433
   7 H :    0.305727
   8 H :    0.271890
   9 H :    0.140577
  10 H :    0.187482
  11 H :    0.179653
  12 H :    0.157472
  13 H :    0.120587
Sum of atomic charges:    1.0000000

--------------------------------
MULLIKEN REDUCED ORBITAL CHARGES
--------------------------------
  0 C s       :     3.175590  s :     3.175590
      pz      :     0.975920  p :     2.939452
      px      :     0.908841
      py      :     1.054691
      dz2     :     0.020744  d :     0.087475
      dxz     :     0.033520
      dyz     :     0.008121
      dx2y2   :     0.017951
      dxy     :     0.007139
      f0      :     0.000792  f :     0.005069
      f+1     :     0.000819
      f-1     :     0.000556
      f+2     :     0.001121
      f-2     :     0.000760
      f+3     :     0.000355
      f-3     :     0.000665
  1 C s       :     3.263674  s :     3.263674
      pz      :     0.939563  p :     3.051702
      px      :     1.120442
      py      :     0.991696
      dz2     :     0.011568  d :     0.050124
      dxz     :     0.015910
      dyz     :     0.008637
      dx2y2   :     0.011228
      dxy     :     0.002781
      f0      :     0.000644  f :     0.003224
      f+1     :     0.000388
      f-1     :     0.000529
      f+2     :     0.000906
      f-2     :     0.000358
      f+3     :     0.000081
      f-3     :     0.000318
  2 C s       :     3.101456  s :     3.101456
      pz      :     0.706097  p :     2.379146
      px      :     0.904102
      py      :     0.768946
      dz2     :     0.022187  d :     0.221949
      dxz     :     0.024237
      dyz     :     0.065783
      dx2y2   :     0.058189
      dxy     :     0.051552
      f0      :     0.001673  f :     0.017853
      f+1     :     0.001935
      f-1     :     0.002322
      f+2     :     0.001920
      f-2     :     0.003056
      f+3     :     0.002293
      f-3     :     0.004655
  3 N s       :     3.441307  s :     3.441307
      pz      :     1.520483  p :     3.838264
      px      :     1.190028
      py      :     1.127752
      dz2     :     0.005783  d :     0.036933
      dxz     :     0.003630
      dyz     :     0.006361
      dx2y2   :     0.013582
      dxy     :     0.007578
      f0      :     0.000556  f :     0.003596
      f+1     :     0.000557
      f-1     :     0.000614
      f+2     :     0.000431
      f-2     :     0.000322
      f+3     :     0.000550
      f-3     :     0.000566
  4 N s       :     3.438922  s :     3.438922
      pz      :     1.529190  p :     3.843566
      px      :     1.195806
      py      :     1.118571
      dz2     :     0.003381  d :     0.036127
      dxz     :     0.002550
      dyz     :     0.009277
      dx2y2   :     0.011892
      dxy     :     0.009027
      f0      :     0.000775  f :     0.003584
      f+1     :     0.000407
      f-1     :     0.000368
      f+2     :     0.000481
      f-2     :     0.000444
      f+3     :     0.000617
      f-3     :     0.000492
  5 H s       :     0.661156  s :     0.661156
      pz      :     0.012473  p :     0.037654
      px      :     0.009042
      py      :     0.016140
  6 H s       :     0.687879  s :     0.687879
      pz      :     0.011861  p :     0.037688
      px      :     0.020588
      py      :     0.005238
  7 H s       :     0.657031  s :     0.657031
      pz      :     0.010409  p :     0.037242
      px      :     0.007645
      py      :     0.019188
  8 H s       :     0.690476  s :     0.690476
      pz      :     0.011916  p :     0.037634
      px      :     0.020338
      py      :     0.005379
  9 H s       :     0.836859  s :     0.836859
      pz      :     0.004812  p :     0.022564
      px      :     0.004457
      py      :     0.013295
 10 H s       :     0.790096  s :     0.790096
      pz      :     0.007738  p :     0.022422
      px      :     0.009719
      py      :     0.004964
 11 H s       :     0.797456  s :     0.797456
      pz      :     0.006328  p :     0.022891
      px      :     0.011834
      py      :     0.004729
 12 H s       :     0.820294  s :     0.820294
      pz      :     0.008636  p :     0.022234
      px      :     0.008575
      py      :     0.005023
 13 H s       :     0.856696  s :     0.856696
      pz      :     0.004690  p :     0.022718
      px      :     0.004874
      py      :     0.013154


                     *******************************
                     * LOEWDIN POPULATION ANALYSIS *
                     *******************************

----------------------
LOEWDIN ATOMIC CHARGES
----------------------
   0 C :   -0.219892
   1 C :   -0.264878
   2 C :   -0.298783
   3 N :    0.113577
   4 N :    0.113757
   5 H :    0.209695
   6 H :    0.201438
   7 H :    0.212036
   8 H :    0.200662
   9 H :    0.161126
  10 H :    0.176349
  11 H :    0.141597
  12 H :    0.132179
  13 H :    0.121136

-------------------------------
LOEWDIN REDUCED ORBITAL CHARGES
-------------------------------
  0 C s       :     2.774680  s :     2.774680
      pz      :     1.025574  p :     3.045297
      px      :     0.981377
      py      :     1.038346
      dz2     :     0.073618  d :     0.363631
      dxz     :     0.114642
      dyz     :     0.050295
      dx2y2   :     0.089537
      dxy     :     0.035538
      f0      :     0.006774  f :     0.036284
      f+1     :     0.005592
      f-1     :     0.003903
      f+2     :     0.005016
      f-2     :     0.006386
      f+3     :     0.003413
      f-3     :     0.005198
  1 C s       :     2.822526  s :     2.822526
      pz      :     1.022829  p :     3.172109
      px      :     1.093334
      py      :     1.055946
      dz2     :     0.055221  d :     0.245672
      dxz     :     0.071212
      dyz     :     0.045395
      dx2y2   :     0.061229
      dxy     :     0.012616
      f0      :     0.006067  f :     0.024571
      f+1     :     0.002450
      f-1     :     0.004302
      f+2     :     0.003168
      f-2     :     0.004384
      f+3     :     0.001697
      f-3     :     0.002502
  2 C s       :     2.734577  s :     2.734577
      pz      :     0.765803  p :     2.679402
      px      :     0.957813
      py      :     0.955787
      dz2     :     0.084853  d :     0.775477
      dxz     :     0.087200
      dyz     :     0.204887
      dx2y2   :     0.190880
      dxy     :     0.207657
      f0      :     0.008696  f :     0.109327
      f+1     :     0.006986
      f-1     :     0.015618
      f+2     :     0.010117
      f-2     :     0.020356
      f+3     :     0.015766
      f-3     :     0.031789
  3 N s       :     2.972901  s :     2.972901
      pz      :     1.404503  p :     3.761543
      px      :     1.186981
      py      :     1.170059
      dz2     :     0.010651  d :     0.140476
      dxz     :     0.013727
      dyz     :     0.020771
      dx2y2   :     0.061586
      dxy     :     0.033741
      f0      :     0.001340  f :     0.011504
      f+1     :     0.000917
      f-1     :     0.001603
      f+2     :     0.001109
      f-2     :     0.002088
      f+3     :     0.001655
      f-3     :     0.002792
  4 N s       :     2.969812  s :     2.969812
      pz      :     1.395037  p :     3.764946
      px      :     1.181047
      py      :     1.188862
      dz2     :     0.008169  d :     0.139990
      dxz     :     0.007936
      dyz     :     0.026567
      dx2y2   :     0.056323
      dxy     :     0.040995
      f0      :     0.001579  f :     0.011495
      f+1     :     0.000648
      f-1     :     0.001305
      f+2     :     0.001091
      f-2     :     0.001813
      f+3     :     0.002083
      f-3     :     0.002976
  5 H s       :     0.682661  s :     0.682661
      pz      :     0.035631  p :     0.107644
      px      :     0.028094
      py      :     0.043919
  6 H s       :     0.691901  s :     0.691901
      pz      :     0.032374  p :     0.106661
      px      :     0.058425
      py      :     0.015862
  7 H s       :     0.681061  s :     0.681061
      pz      :     0.029114  p :     0.106902
      px      :     0.023640
      py      :     0.054148
  8 H s       :     0.692845  s :     0.692845
      pz      :     0.031730  p :     0.106493
      px      :     0.056943
      py      :     0.017821
  9 H s       :     0.777892  s :     0.777892
      pz      :     0.013928  p :     0.060982
      px      :     0.012227
      py      :     0.034826
 10 H s       :     0.761454  s :     0.761454
      pz      :     0.021845  p :     0.062197
      px      :     0.025131
      py      :     0.015221
 11 H s       :     0.791407  s :     0.791407
      pz      :     0.017507  p :     0.066995
      px      :     0.034758
      py      :     0.014730
 12 H s       :     0.801188  s :     0.801188
      pz      :     0.023626  p :     0.066633
      px      :     0.026959
      py      :     0.016049
 13 H s       :     0.812931  s :     0.812931
      pz      :     0.014802  p :     0.065933
      px      :     0.015422
      py      :     0.035708


                      *****************************
                      * MAYER POPULATION ANALYSIS *
                      *****************************

  NA   - Mulliken gross atomic population
  ZA   - Total nuclear charge
  QA   - Mulliken gross atomic charge
  VA   - Mayer's total valence
  BVA  - Mayer's bonded valence
  FA   - Mayer's free valence

  ATOM       NA         ZA         QA         VA         BVA        FA
  0 C      6.2076     6.0000    -0.2076     3.9031     3.9031     0.0000
  1 C      6.3687     6.0000    -0.3687     3.9284     3.9284     0.0000
  2 C      5.7204     6.0000     0.2796     4.0698     4.0698    -0.0000
  3 N      7.3201     7.0000    -0.3201     3.3509     3.3509     0.0000
  4 N      7.3222     7.0000    -0.3222     3.3248     3.3248     0.0000
  5 H      0.6988     1.0000     0.3012     0.9243     0.9243     0.0000
  6 H      0.7256     1.0000     0.2744     0.9378     0.9378     0.0000
  7 H      0.6943     1.0000     0.3057     0.9181     0.9181     0.0000
  8 H      0.7281     1.0000     0.2719     0.9397     0.9397     0.0000
  9 H      0.8594     1.0000     0.1406     0.9749     0.9749     0.0000
 10 H      0.8125     1.0000     0.1875     0.9557     0.9557     0.0000
 11 H      0.8203     1.0000     0.1797     0.9721     0.9721    -0.0000
 12 H      0.8425     1.0000     0.1575     0.9645     0.9645     0.0000
 13 H      0.8794     1.0000     0.1206     0.9771     0.9771    -0.0000

  Mayer bond orders larger than 0.100000
B(  0-C ,  1-C ) :   0.9986 B(  0-C ,  2-C ) :   1.0121 B(  0-C ,  9-H ) :   0.9487 
B(  0-C , 10-H ) :   0.9186 B(  1-C , 11-H ) :   0.9561 B(  1-C , 12-H ) :   0.9613 
B(  1-C , 13-H ) :   0.9638 B(  2-C ,  3-N ) :   1.4825 B(  2-C ,  4-N ) :   1.4552 
B(  3-N ,  7-H ) :   0.8750 B(  3-N ,  8-H ) :   0.8863 B(  4-N ,  5-H ) :   0.8816 
B(  4-N ,  6-H ) :   0.8851 

-------
TIMINGS
-------

Total SCF time: 0 days 0 hours 0 min 24 sec 

Total time                  ....      24.492 sec
Sum of individual times     ....      22.216 sec  ( 90.7%)

Fock matrix formation       ....      20.886 sec  ( 85.3%)
  Split-RI-J                ....       1.657 sec  (  7.9% of F)
  Chain of spheres X        ....      15.667 sec  ( 75.0% of F)
  XC integration            ....       3.509 sec  ( 16.8% of F)
    Basis function eval.    ....       1.211 sec  ( 34.5% of XC)
    Density eval.           ....       0.872 sec  ( 24.8% of XC)
    XC-Functional eval.     ....       0.200 sec  (  5.7% of XC)
    XC-Potential eval.      ....       1.059 sec  ( 30.2% of XC)
Diagonalization             ....       0.189 sec  (  0.8%)
Density matrix formation    ....       0.006 sec  (  0.0%)
Population analysis         ....       0.010 sec  (  0.0%)
Initial guess               ....       0.169 sec  (  0.7%)
Orbital Transformation      ....       0.000 sec  (  0.0%)
Orbital Orthonormalization  ....       0.000 sec  (  0.0%)
DIIS solution               ....       0.035 sec  (  0.1%)
SOSCF solution              ....       0.060 sec  (  0.2%)
Grid generation             ....       0.861 sec  (  3.5%)

Maximum memory used throughout the entire SCF-calculation: 69.8 MB


-------------------------------------------------------------------------------
                          DFT DISPERSION CORRECTION                            
                                                                               
                              DFTD3 V3.1  Rev 1                                
                          USING Becke-Johnson damping                          
-------------------------------------------------------------------------------
The PBE0 functional is recognized
Active option DFTDOPT                   ...         4   

molecular C6(AA) [au] = 1385.842270 


            DFT-D V3
 parameters
 s6 scaling factor         :     1.0000 
 a1 scaling factor         :     0.4145 
 s8 scaling factor         :     1.2177 
 a2 scaling factor         :     4.8593 
 ad hoc parameters k1-k3   :    16.0000     1.3333    -4.0000 

 Edisp/kcal,au: -5.329103121691  -0.008492465490 
 E6   /kcal   :  -3.494195664 
 E8   /kcal   :  -1.834907457 
 % E8         :  34.431824932 

-------------------------   ----------------
Dispersion correction           -0.008492465
-------------------------   ----------------


-------------------------   --------------------
FINAL SINGLE POINT ENERGY      -228.847168961113
-------------------------   --------------------


                            ***************************************
                            *     ORCA property calculations      *
                            ***************************************

                                    ---------------------
                                    Active property flags
                                    ---------------------
   (+) Dipole Moment


------------------------------------------------------------------------------
                       ORCA ELECTRIC PROPERTIES CALCULATION
------------------------------------------------------------------------------

Dipole Moment Calculation                       ... on
Quadrupole Moment Calculation                   ... off
Polarizability Calculation                      ... off
GBWName                                         ... TZVP_PBE0_A_wt_dlpno_pos.gbw
Electron density file                           ... TZVP_PBE0_A_wt_dlpno_pos.scfp
The origin for moment calculation is the CENTER OF MASS  = ( 6.312782, -0.835576 -2.131105)

-------------
DIPOLE MOMENT
-------------
                                X             Y             Z
Electronic contribution:     -2.67209       0.63021       3.11323
Nuclear contribution   :      1.78847      -0.48174      -2.67127
                        -----------------------------------------
Total Dipole Moment    :     -0.88362       0.14847       0.44195
                        -----------------------------------------
Magnitude (a.u.)       :      0.99908
Magnitude (Debye)      :      2.53945



--------------------
Rotational spectrum 
--------------------
 
Rotational constants in cm-1:     0.286883     0.123210     0.094446 
Rotational constants in MHz :  8600.540572  3693.747366  2831.415242 

 Dipole components along the rotational axes: 
x,y,z [a.u.] :     0.948981     0.138171    -0.280180 
x,y,z [Debye]:     2.412118     0.351202    -0.712160 

 

Timings for individual modules:

Sum of individual times         ...       29.026 sec (=   0.484 min)
GTO integral calculation        ...        2.259 sec (=   0.038 min)   7.8 %
SCF iterations                  ...       26.767 sec (=   0.446 min)  92.2 %
                             ****ORCA TERMINATED NORMALLY****
TOTAL RUN TIME: 0 days 0 hours 0 minutes 29 seconds 544 msec
