
                                        *****************
                                        * O   R   C   A *
                                        *****************

                                            #,                                       
                                            ###                                      
                                            ####                                     
                                            #####                                    
                                            ######                                   
                                           ########,                                 
                                     ,,################,,,,,                         
                               ,,#################################,,                 
                          ,,##########################################,,             
                       ,#########################################, ''#####,          
                    ,#############################################,,   '####,        
                  ,##################################################,,,,####,       
                ,###########''''           ''''###############################       
              ,#####''   ,,,,##########,,,,          '''####'''          '####       
            ,##' ,,,,###########################,,,                        '##       
           ' ,,###''''                  '''############,,,                           
         ,,##''                                '''############,,,,        ,,,,,,###''
      ,#''                                            '''#######################'''  
     '                                                          ''''####''''         
             ,#######,   #######,   ,#######,      ##                                
            ,#'     '#,  ##    ##  ,#'     '#,    #''#        ######   ,####,        
            ##       ##  ##   ,#'  ##            #'  '#       #        #'  '#        
            ##       ##  #######   ##           ,######,      #####,   #    #        
            '#,     ,#'  ##    ##  '#,     ,#' ,#      #,         ##   #,  ,#        
             '#######'   ##     ##  '#######'  #'      '#     #####' # '####'        



                  #######################################################
                  #                        -***-                        #
                  #          Department of theory and spectroscopy      #
                  #    Directorship and core code : Frank Neese         #
                  #        Max Planck Institute fuer Kohlenforschung    #
                  #                Kaiser Wilhelm Platz 1               #
                  #                 D-45470 Muelheim/Ruhr               #
                  #                      Germany                        #
                  #                                                     #
                  #                  All rights reserved                #
                  #                        -***-                        #
                  #######################################################


                         Program Version 5.0.0 -  RELEASE  -
                                (SVN: $Rev: 19529$)
                ($Date: 2021-06-28 11:36:33 +0200 (Mo, 28 Jun 2021) $)


 With contributions from (in alphabetic order):
   Daniel Aravena         : Magnetic Suceptibility
   Michael Atanasov       : Ab Initio Ligand Field Theory (pilot matlab implementation)
   Alexander A. Auer      : GIAO ZORA, VPT2 properties, NMR spectrum
   Ute Becker             : Parallelization
   Giovanni Bistoni       : ED, misc. LED, open-shell LED, HFLD
   Martin Brehm           : Molecular dynamics
   Dmytro Bykov           : SCF Hessian
   Vijay G. Chilkuri      : MRCI spin determinant printing, contributions to CSF-ICE
   Dipayan Datta          : RHF DLPNO-CCSD density
   Achintya Kumar Dutta   : EOM-CC, STEOM-CC
   Dmitry Ganyushin       : Spin-Orbit,Spin-Spin,Magnetic field MRCI
   Miquel Garcia          : C-PCM Hessian, Gaussian charge scheme
   Yang Guo               : DLPNO-NEVPT2, F12-NEVPT2, CIM, IAO-localization
   Andreas Hansen         : Spin unrestricted coupled pair/coupled cluster methods
   Benjamin Helmich-Paris : MC-RPA, TRAH-SCF, COSX integrals
   Lee Huntington         : MR-EOM, pCC
   Robert Izsak           : Overlap fitted RIJCOSX, COSX-SCS-MP3, EOM
   Marcus Kettner         : VPT2
   Christian Kollmar      : KDIIS, OOCD, Brueckner-CCSD(T), CCSD density, CASPT2, CASPT2-K
   Simone Kossmann        : Meta GGA functionals, TD-DFT gradient, OOMP2, MP2 Hessian
   Martin Krupicka        : Initial AUTO-CI
   Lucas Lang             : DCDCAS
   Marvin Lechner         : AUTO-CI (C++ implementation), FIC-MRCC
   Dagmar Lenk            : GEPOL surface, SMD
   Dimitrios Liakos       : Extrapolation schemes; Compound Job, initial MDCI parallelization
   Dimitrios Manganas     : Further ROCIS development; embedding schemes
   Dimitrios Pantazis     : SARC Basis sets
   Anastasios Papadopoulos: AUTO-CI, single reference methods and gradients
   Taras Petrenko         : DFT Hessian,TD-DFT gradient, ASA, ECA, R-Raman, ABS, FL, XAS/XES, NRVS
   Peter Pinski           : DLPNO-MP2, DLPNO-MP2 Gradient
   Christoph Reimann      : Effective Core Potentials
   Marius Retegan         : Local ZFS, SOC
   Christoph Riplinger    : Optimizer, TS searches, QM/MM, DLPNO-CCSD(T), (RO)-DLPNO pert. Triples
   Tobias Risthaus        : Range-separated hybrids, TD-DFT gradient, RPA, STAB
   Michael Roemelt        : Original ROCIS implementation
   Masaaki Saitow         : Open-shell DLPNO-CCSD energy and density
   Barbara Sandhoefer     : DKH picture change effects
   Avijit Sen             : IP-ROCIS
   Kantharuban Sivalingam : CASSCF convergence, NEVPT2, FIC-MRCI
   Bernardo de Souza      : ESD, SOC TD-DFT
   Georgi Stoychev        : AutoAux, RI-MP2 NMR
   Willem Van den Heuvel  : Paramagnetic NMR
   Boris Wezisla          : Elementary symmetry handling
   Frank Wennmohs         : Technical directorship


 We gratefully acknowledge several colleagues who have allowed us to
 interface, adapt or use parts of their codes:
   Stefan Grimme, W. Hujo, H. Kruse, P. Pracht,  : VdW corrections, initial TS optimization,
                  C. Bannwarth, S. Ehlert          DFT functionals, gCP, sTDA/sTD-DF
   Ed Valeev, F. Pavosevic, A. Kumar             : LibInt (2-el integral package), F12 methods
   Garnet Chan, S. Sharma, J. Yang, R. Olivares  : DMRG
   Ulf Ekstrom                                   : XCFun DFT Library
   Mihaly Kallay                                 : mrcc  (arbitrary order and MRCC methods)
   Jiri Pittner, Ondrej Demel                    : Mk-CCSD
   Frank Weinhold                                : gennbo (NPA and NBO analysis)
   Christopher J. Cramer and Donald G. Truhlar   : smd solvation model
   Lars Goerigk                                  : TD-DFT with DH, B97 family of functionals
   V. Asgeirsson, H. Jonsson                     : NEB implementation
   FAccTs GmbH                                   : IRC, NEB, NEB-TS, DLPNO-Multilevel, CI-OPT
                                                   MM, QMMM, 2- and 3-layer-ONIOM, Crystal-QMMM,
                                                   LR-CPCM, SF, NACMEs, symmetry and pop. for TD-DFT,
                                                   nearIR, NL-DFT gradient (VV10), updates on ESD,
                                                   ML-optimized integration grids
   S Lehtola, MJT Oliveira, MAL Marques          : LibXC Library
   Liviu Ungur et al                             : ANISO software


 Your calculation uses the libint2 library for the computation of 2-el integrals
 For citations please refer to: http://libint.valeyev.net

 Your ORCA version has been built with support for libXC version: 5.1.0
 For citations please refer to: https://tddft.org/programs/libxc/

 This ORCA versions uses:
   CBLAS   interface :  Fast vector & matrix operations
   LAPACKE interface :  Fast linear algebra routines
   SCALAPACK package :  Parallel linear algebra routines
   Shared memory     :  Shared parallel matrices
   BLAS/LAPACK       :  OpenBLAS 0.3.15  USE64BITINT DYNAMIC_ARCH NO_AFFINITY Haswell SINGLE_THREADED
        Core in use  :  Haswell
   Copyright (c) 2011-2014, The OpenBLAS Project


Your calculation utilizes the atom-pairwise dispersion correction
with the Becke-Johnson damping scheme (D3BJ)
Cite in your paper:
S.Grimme, S.Ehrlich, L.Goerigk, J Comput Chem, (2011), 32, 1456–1465 
S.Grimme, J.Antony, S.Ehrlich and H.Krieg, J.Chem.Phys., 132, (2010), 154104 
   

================================================================================

----- Orbital basis set information -----
Your calculation utilizes the basis: def2-SVPD
   F. Weigend and R. Ahlrichs, Phys. Chem. Chem. Phys. 7, 3297 (2005).
   D. Rappoport and F. Furche, J. Chem. Phys. 133 134105 (2010).

----- AuxJ basis set information -----
Your calculation utilizes the auxiliary basis: def2/J
   F. Weigend, Phys. Chem. Chem. Phys. 8, 1057 (2006).

================================================================================
                                        WARNINGS
                       Please study these warnings very carefully!
================================================================================


INFO   : the flag for use of the SHARK integral package has been found!

================================================================================
                                       INPUT FILE
================================================================================
NAME = 14Feb_SVPD_PBE0_C2_wt_wb97_typ1_neg.com
|  1> !PBE0 D3BJ RIJCOSX def2-SVPD def2/J TightSCF 
|  2> *xyz 0 1
|  3> C         -0.87096        0.24804       -2.66280
|  4> C         -0.47749        0.60819       -4.10105
|  5> H          0.20677        1.45830       -4.11875
|  6> H         -1.36844        0.92942       -4.64785
|  7> C          0.18467       -0.50664       -4.91676
|  8> O         -0.15869       -1.70109       -4.65798
|  9> F          1.05594       -0.17441       -5.74037
| 10> C          0.10016       -0.67355       -1.91581
| 11> H         -1.00105        1.18104       -2.10407
| 12> H         -1.84465       -0.24659       -2.66328
| 13> H          0.22336       -1.58297       -2.46597
| 14> H         -0.29270       -0.89423       -0.94532
| 15> H          1.04759       -0.18666       -1.81480
| 16> *
| 17> 
| 18> %MaxCore 64000
| 19> 
| 20> %pal nprocs 4
| 21> end  
| 22> 
| 23> %scf
| 24>   MaxIter 150
| 25> end
| 26> 
| 27> 
| 28>                          ****END OF INPUT****
================================================================================

                       ****************************
                       * Single Point Calculation *
                       ****************************

---------------------------------
CARTESIAN COORDINATES (ANGSTROEM)
---------------------------------
  C     -0.870960    0.248040   -2.662800
  C     -0.477490    0.608190   -4.101050
  H      0.206770    1.458300   -4.118750
  H     -1.368440    0.929420   -4.647850
  C      0.184670   -0.506640   -4.916760
  O     -0.158690   -1.701090   -4.657980
  F      1.055940   -0.174410   -5.740370
  C      0.100160   -0.673550   -1.915810
  H     -1.001050    1.181040   -2.104070
  H     -1.844650   -0.246590   -2.663280
  H      0.223360   -1.582970   -2.465970
  H     -0.292700   -0.894230   -0.945320
  H      1.047590   -0.186660   -1.814800

----------------------------
CARTESIAN COORDINATES (A.U.)
----------------------------
  NO LB      ZA    FRAG     MASS         X           Y           Z
   0 C     6.0000    0    12.011   -1.645876    0.468728   -5.031963
   1 C     6.0000    0    12.011   -0.902325    1.149313   -7.749861
   2 H     1.0000    0     1.008    0.390739    2.755788   -7.783310
   3 H     1.0000    0     1.008   -2.585977    1.756349   -8.783164
   4 C     6.0000    0    12.011    0.348976   -0.957411   -9.291330
   5 O     8.0000    0    15.999   -0.299881   -3.214594   -8.802307
   6 F     9.0000    0    18.998    1.995437   -0.329587  -10.847727
   7 C     6.0000    0    12.011    0.189275   -1.272825   -3.620356
   8 H     1.0000    0     1.008   -1.891710    2.231842   -3.976116
   9 H     1.0000    0     1.008   -3.485883   -0.465988   -5.032870
  10 H     1.0000    0     1.008    0.422089   -2.991380   -4.660008
  11 H     1.0000    0     1.008   -0.553123   -1.689850   -1.786396
  12 H     1.0000    0     1.008    1.979658   -0.352736   -3.429475

--------------------------------
INTERNAL COORDINATES (ANGSTROEM)
--------------------------------
 C      0   0   0     0.000000000000     0.00000000     0.00000000
 C      1   0   0     1.533978398120     0.00000000     0.00000000
 H      2   1   0     1.091426612146   111.03194629     0.00000000
 H      2   1   3     1.093604524223   109.19524702   243.60560484
 C      2   1   3     1.531889225303   116.05717792   122.04169196
 O      5   2   1     1.269477837735   117.34060562    31.12046858
 F      5   2   1     1.244114792895   117.44393262   214.04945783
 C      1   2   3     1.533100206314   115.81653252   275.27862987
 H      1   2   3     1.095258700490   107.98492427    38.83027307
 H      1   2   3     1.092122375652   109.54878547   154.15926812
 H      8   1   2     1.069999533645   109.47065907   302.59729167
 H      8   1   2     1.069995085082   109.47141974   182.59732440
 H      8   1   2     1.069994624800   109.47143302    62.59737296

---------------------------
INTERNAL COORDINATES (A.U.)
---------------------------
 C      0   0   0     0.000000000000     0.00000000     0.00000000
 C      1   0   0     2.898799067799     0.00000000     0.00000000
 H      2   1   0     2.062497392229   111.03194629     0.00000000
 H      2   1   3     2.066613049598   109.19524702   243.60560484
 C      2   1   3     2.894851103328   116.05717792   122.04169196
 O      5   2   1     2.398965446401   117.34060562    31.12046858
 F      5   2   1     2.351036237732   117.44393262   214.04945783
 C      1   2   3     2.897139525792   115.81653252   275.27862987
 H      1   2   3     2.069738989721   107.98492427    38.83027307
 H      1   2   3     2.063812194710   109.54878547   154.15926812
 H      8   1   2     2.022006082012   109.47065907   302.59729167
 H      8   1   2     2.021997675447   109.47141974   182.59732440
 H      8   1   2     2.021996805639   109.47143302    62.59737296

---------------------
BASIS SET INFORMATION
---------------------
There are 4 groups of distinct atoms

 Group   1 Type C   : 8s4p2d contracted to 4s2p2d pattern {5111/31/11}
 Group   2 Type H   : 4s2p contracted to 2s2p pattern {31/11}
 Group   3 Type O   : 8s5p2d contracted to 4s3p2d pattern {5111/311/11}
 Group   4 Type F   : 8s5p2d contracted to 4s3p2d pattern {5111/311/11}

Atom   0C    basis set group =>   1
Atom   1C    basis set group =>   1
Atom   2H    basis set group =>   2
Atom   3H    basis set group =>   2
Atom   4C    basis set group =>   1
Atom   5O    basis set group =>   3
Atom   6F    basis set group =>   4
Atom   7C    basis set group =>   1
Atom   8H    basis set group =>   2
Atom   9H    basis set group =>   2
Atom  10H    basis set group =>   2
Atom  11H    basis set group =>   2
Atom  12H    basis set group =>   2
---------------------------------
AUXILIARY/J BASIS SET INFORMATION
---------------------------------
There are 4 groups of distinct atoms

 Group   1 Type C   : 12s5p4d2f1g contracted to 6s4p3d1f1g pattern {711111/2111/211/2/1}
 Group   2 Type H   : 5s2p1d contracted to 3s1p1d pattern {311/2/1}
 Group   3 Type O   : 12s5p4d2f1g contracted to 6s4p3d1f1g pattern {711111/2111/211/2/1}
 Group   4 Type F   : 12s5p4d2f1g contracted to 6s4p3d1f1g pattern {711111/2111/211/2/1}

Atom   0C    basis set group =>   1
Atom   1C    basis set group =>   1
Atom   2H    basis set group =>   2
Atom   3H    basis set group =>   2
Atom   4C    basis set group =>   1
Atom   5O    basis set group =>   3
Atom   6F    basis set group =>   4
Atom   7C    basis set group =>   1
Atom   8H    basis set group =>   2
Atom   9H    basis set group =>   2
Atom  10H    basis set group =>   2
Atom  11H    basis set group =>   2
Atom  12H    basis set group =>   2


           ************************************************************
           *        Program running with 4 parallel MPI-processes     *
           *              working on a common directory               *
           ************************************************************
------------------------------------------------------------------------------
                           ORCA GTO INTEGRAL CALCULATION
                           -- RI-GTO INTEGRALS CHOSEN --
------------------------------------------------------------------------------
------------------------------------------------------------------------------
                   ___                                                        
                  /   \      - P O W E R E D   B Y -                         
                 /     \                                                     
                 |  |  |   _    _      __       _____    __    __             
                 |  |  |  | |  | |    /  \     |  _  \  |  |  /  |          
                  \  \/   | |  | |   /    \    | | | |  |  | /  /          
                 / \  \   | |__| |  /  /\  \   | |_| |  |  |/  /          
                |  |  |   |  __  | /  /__\  \  |    /   |      \           
                |  |  |   | |  | | |   __   |  |    \   |  |\   \          
                \     /   | |  | | |  |  |  |  | |\  \  |  | \   \       
                 \___/    |_|  |_| |__|  |__|  |_| \__\ |__|  \__/        
                                                                              
                      - O R C A' S   B I G   F R I E N D -                    
                                      &                                       
                       - I N T E G R A L  F E E D E R -                       
                                                                              
 v1 FN, 2020, v2 2021                                                         
------------------------------------------------------------------------------


Reading SHARK input file 14Feb_SVPD_PBE0_C2_wt_wb97_typ1_neg.SHARKINP.tmp ... ok
----------------------
SHARK INTEGRAL PACKAGE
----------------------

Number of atoms                             ...     13
Number of basis functions                   ...    182
Number of shells                            ...     78
Maximum angular momentum                    ...      2
Integral batch strategy                     ... SHARK/LIBINT Hybrid
RI-J (if used) integral strategy            ... SPLIT-RIJ (Revised 2003 algorithm where possible)
Printlevel                                  ...      1
Contraction scheme used                     ... SEGMENTED contraction
Coulomb Range Separation                    ... NOT USED
Exchange Range Separation                   ... NOT USED
Finite Nucleus Model                        ... NOT USED
Auxiliary Coulomb fitting basis             ... AVAILABLE
   # of basis functions in Aux-J            ...    371
   # of shells in Aux-J                     ...    125
   Maximum angular momentum in Aux-J        ...      4
Auxiliary J/K fitting basis                 ... NOT available
Auxiliary Correlation fitting basis         ... NOT available
Auxiliary 'external' fitting basis          ... NOT available
Integral threshold                          ...     2.500000e-11
Primitive cut-off                           ...     2.500000e-12
Primitive pair pre-selection threshold      ...     2.500000e-12

Calculating pre-screening integrals         ... done (  0.0 sec) Dimension = 78
Organizing shell pair data                  ... done (  0.0 sec)
Shell pair information
Total number of shell pairs                 ...      3081
Shell pairs after pre-screening             ...      3035
Total number of primitive shell pairs       ...      8355
Primitive shell pairs kept                  ...      6925
          la=0 lb=0:    725 shell pairs
          la=1 lb=0:   1045 shell pairs
          la=1 lb=1:    403 shell pairs
          la=2 lb=0:    451 shell pairs
          la=2 lb=1:    333 shell pairs
          la=2 lb=2:     78 shell pairs

Calculating one electron integrals          ... done (  0.0 sec)
Calculating RI/J V-Matrix + Cholesky decomp.... done (  0.0 sec)
Calculating Nuclear repulsion               ... done (  0.0 sec) ENN=    243.405422787248 Eh

SHARK setup successfully completed in   0.2 seconds

Maximum memory used throughout the entire GTOINT-calculation: 8.9 MB


           ************************************************************
           *        Program running with 4 parallel MPI-processes     *
           *              working on a common directory               *
           ************************************************************
-------------------------------------------------------------------------------
                                 ORCA SCF
-------------------------------------------------------------------------------

------------
SCF SETTINGS
------------
Hamiltonian:
 Density Functional     Method          .... DFT(GTOs)
 Exchange Functional    Exchange        .... PBE
   PBE kappa parameter   XKappa         ....  0.804000
   PBE mue parameter    XMuePBE         ....  0.219520
 Correlation Functional Correlation     .... PBE
   PBE beta parameter  CBetaPBE         ....  0.066725
 LDA part of GGA corr.  LDAOpt          .... PW91-LDA
 Gradients option       PostSCFGGA      .... off
 Hybrid DFT is turned on
   Fraction HF Exchange ScalHFX         ....  0.250000
   Scaling of DF-GGA-X  ScalDFX         ....  0.750000
   Scaling of DF-GGA-C  ScalDFC         ....  1.000000
   Scaling of DF-LDA-C  ScalLDAC        ....  1.000000
   Perturbative correction              ....  0.000000
   Density functional embedding theory  .... OFF
   NL short-range parameter             ....  6.900000
 RI-approximation to the Coulomb term is turned on
   Number of AuxJ basis functions       .... 371
   RIJ-COSX (HFX calculated with COS-X)).... on


General Settings:
 Integral files         IntName         .... 14Feb_SVPD_PBE0_C2_wt_wb97_typ1_neg
 Hartree-Fock type      HFTyp           .... RHF
 Total Charge           Charge          ....    0
 Multiplicity           Mult            ....    1
 Number of Electrons    NEL             ....   48
 Basis Dimension        Dim             ....  182
 Nuclear Repulsion      ENuc            ....    243.4054227872 Eh

Convergence Acceleration:
 DIIS                   CNVDIIS         .... on
   Start iteration      DIISMaxIt       ....    12
   Startup error        DIISStart       ....  0.200000
   # of expansion vecs  DIISMaxEq       ....     5
   Bias factor          DIISBfac        ....   1.050
   Max. coefficient     DIISMaxC        ....  10.000
 Trust-Rad. Augm. Hess. CNVTRAH         .... auto
   Auto Start mean grad. ratio tolernc. ....  1.125000
   Auto Start start iteration           ....    20
   Auto Start num. interpolation iter.  ....    10
   Max. Number of Micro iterations      ....    16
   Max. Number of Macro iterations      .... Maxiter - #DIIS iter
   Number of Davidson start vectors     ....     2
   Converg. threshold I  (grad. norm)   ....   1.000e-05
   Converg. threshold II (energy diff.) ....   1.000e-08
   Grad. Scal. Fac. for Micro threshold ....   0.100
   Minimum threshold for Micro iter.    ....   0.010
   NR start threshold (gradient norm)   ....   0.001
   Initial trust radius                 ....   0.400
   Minimum AH scaling param. (alpha)    ....   1.000
   Maximum AH scaling param. (alpha)    .... 1000.000
   Orbital update algorithm             .... Taylor
   White noise on init. David. guess    .... on
   Maximum white noise                  ....   0.010
   Quad. conv. algorithm                .... NR
 SOSCF                  CNVSOSCF        .... on
   Start iteration      SOSCFMaxIt      ....   150
   Startup grad/error   SOSCFStart      ....  0.003300
 Level Shifting         CNVShift        .... on
   Level shift para.    LevelShift      ....    0.2500
   Turn off err/grad.   ShiftErr        ....    0.0010
 Zerner damping         CNVZerner       .... off
 Static damping         CNVDamp         .... on
   Fraction old density DampFac         ....    0.7000
   Max. Damping (<1)    DampMax         ....    0.9800
   Min. Damping (>=0)   DampMin         ....    0.0000
   Turn off err/grad.   DampErr         ....    0.1000
 Fernandez-Rico         CNVRico         .... off

SCF Procedure:
 Maximum # iterations   MaxIter         ....   150
 SCF integral mode      SCFMode         .... Direct
   Integral package                     .... SHARK and LIBINT hybrid scheme
 Reset frequency        DirectResetFreq ....    20
 Integral Threshold     Thresh          ....  2.500e-11 Eh
 Primitive CutOff       TCut            ....  2.500e-12 Eh

Convergence Tolerance:
 Convergence Check Mode ConvCheckMode   .... Total+1el-Energy
 Convergence forced     ConvForced      .... 0
 Energy Change          TolE            ....  1.000e-08 Eh
 1-El. energy change                    ....  1.000e-05 Eh
 Orbital Gradient       TolG            ....  1.000e-05
 Orbital Rotation angle TolX            ....  1.000e-05
 DIIS Error             TolErr          ....  5.000e-07


Diagonalization of the overlap matrix:
Smallest eigenvalue                        ... 1.439e-04
Time for diagonalization                   ...    0.009 sec
Threshold for overlap eigenvalues          ... 1.000e-08
Number of eigenvalues below threshold      ... 0
Time for construction of square roots      ...    0.006 sec
Total time needed                          ...    0.016 sec

Time for model grid setup =    0.084 sec

------------------------------
INITIAL GUESS: MODEL POTENTIAL
------------------------------
Loading Hartree-Fock densities                     ... done
Calculating cut-offs                               ... done
Initializing the effective Hamiltonian             ... done
Setting up the integral package (SHARK)            ... done
Starting the Coulomb interaction                   ... done (   0.0 sec)
Reading the grid                                   ... done
Mapping shells                                     ... done
Starting the XC term evaluation                    ... done (   0.1 sec)
  promolecular density results
     # of electrons  =     47.996608453
     EX              =    -40.668382539
     EC              =     -1.594616122
     EX+EC           =    -42.262998661
Transforming the Hamiltonian                       ... done (   0.0 sec)
Diagonalizing the Hamiltonian                      ... done (   0.0 sec)
Back transforming the eigenvectors                 ... done (   0.0 sec)
Now organizing SCF variables                       ... done
                      ------------------
                      INITIAL GUESS DONE (   0.2 sec)
                      ------------------
-------------------
DFT GRID GENERATION
-------------------

General Integration Accuracy     IntAcc      ... 4.388
Radial Grid Type                 RadialGrid  ... OptM3 with GC (2021)
Angular Grid (max. ang.)         AngularGrid ... 4 (Lebedev-302)
Angular grid pruning method      GridPruning ... 4 (adaptive)
Weight generation scheme         WeightScheme... Becke
Basis function cutoff            BFCut       ... 1.0000e-11
Integration weight cutoff        WCut        ... 1.0000e-14
Angular grids for H and He will be reduced by one unit
Partially contracted basis set               ... off
Rotationally invariant grid construction     ... off

Total number of grid points                  ...    60825
Total number of batches                      ...      957
Average number of points per batch           ...       63
Average number of grid points per atom       ...     4679
Time for grid setup =    0.392 sec

--------------------
COSX GRID GENERATION
--------------------

GRIDX 1
-------
General Integration Accuracy     IntAcc      ... 3.816
Radial Grid Type                 RadialGrid  ... OptM3 with GC (2021)
Angular Grid (max. ang.)         AngularGrid ... 1 (Lebedev-50)
Angular grid pruning method      GridPruning ... 4 (adaptive)
Weight generation scheme         WeightScheme... Becke
Basis function cutoff            BFCut       ... 1.0000e-11
Integration weight cutoff        WCut        ... 1.0000e-14
Angular grids for H and He will be reduced by one unit
Partially contracted basis set               ... on
Rotationally invariant grid construction     ... off

Total number of grid points                  ...     7624
Total number of batches                      ...      127
Average number of points per batch           ...       60
Average number of grid points per atom       ...      586
UseSFitting                                  ... on

GRIDX 2
-------
General Integration Accuracy     IntAcc      ... 4.020
Radial Grid Type                 RadialGrid  ... OptM3 with GC (2021)
Angular Grid (max. ang.)         AngularGrid ... 2 (Lebedev-110)
Angular grid pruning method      GridPruning ... 4 (adaptive)
Weight generation scheme         WeightScheme... Becke
Basis function cutoff            BFCut       ... 1.0000e-11
Integration weight cutoff        WCut        ... 1.0000e-14
Angular grids for H and He will be reduced by one unit
Partially contracted basis set               ... on
Rotationally invariant grid construction     ... off

Total number of grid points                  ...    17574
Total number of batches                      ...      281
Average number of points per batch           ...       62
Average number of grid points per atom       ...     1352
UseSFitting                                  ... on

GRIDX 3
-------
General Integration Accuracy     IntAcc      ... 4.338
Radial Grid Type                 RadialGrid  ... OptM3 with GC (2021)
Angular Grid (max. ang.)         AngularGrid ... 3 (Lebedev-194)
Angular grid pruning method      GridPruning ... 4 (adaptive)
Weight generation scheme         WeightScheme... Becke
Basis function cutoff            BFCut       ... 1.0000e-11
Integration weight cutoff        WCut        ... 1.0000e-14
Angular grids for H and He will be reduced by one unit
Partially contracted basis set               ... on
Rotationally invariant grid construction     ... off

Total number of grid points                  ...    39703
Total number of batches                      ...      627
Average number of points per batch           ...       63
Average number of grid points per atom       ...     3054
UseSFitting                                  ... on

Time for X-Grid setup             =    0.346 sec

--------------
SCF ITERATIONS
--------------
ITER       Energy         Delta-E        Max-DP      RMS-DP      [F,P]     Damp
               ***  Starting incremental Fock matrix formation  ***
  0   -330.8870731074   0.000000000000 0.11225427  0.00299487  0.2604861 0.7000
  1   -330.9966536759  -0.109580568454 0.06429882  0.00179144  0.0830007 0.7000
                               ***Turning on DIIS***
  2   -331.0315766317  -0.034922955796 0.12567088  0.00307929  0.0337937 0.0000
  3   -331.0977792234  -0.066202591736 0.03572521  0.00109903  0.0437004 0.0000
  4   -331.1084426026  -0.010663379172 0.01614738  0.00039870  0.0256273 0.0000
                      *** Initiating the SOSCF procedure ***
                           *** Shutting down DIIS ***
                      *** Re-Reading the Fockian *** 
                      *** Removing any level shift *** 
ITER      Energy       Delta-E        Grad      Rot      Max-DP    RMS-DP
  5   -331.10998083  -0.0015382303  0.000571  0.000571  0.004754  0.000135
               *** Restarting incremental Fock matrix formation ***
  6   -331.10996332   0.0000175138  0.000350  0.001029  0.004787  0.000096
  7   -331.10996012   0.0000031972  0.000822  0.000929  0.001665  0.000034
  8   -331.10996805  -0.0000079292  0.000148  0.000260  0.000797  0.000020
  9   -331.10996784   0.0000002112  0.000089  0.000088  0.000331  0.000009
 10   -331.10996848  -0.0000006354  0.000003  0.000007  0.000033  0.000001
 11   -331.10996847   0.0000000009  0.000003  0.000002  0.000010  0.000000
                  ***Gradient check signals convergence***
              ***Rediagonalizing the Fockian in SOSCF/NRSCF***

               *****************************************************
               *                     SUCCESS                       *
               *           SCF CONVERGED AFTER  12 CYCLES          *
               *****************************************************

Old exchange energy                            =    -10.348388091 Eh
New exchange energy                            =    -10.348348550 Eh
Exchange energy change after final integration =      0.000039542 Eh
Total energy after final integration           =   -331.109928935 Eh
Final COS-X integration done in                =     1.995 sec

----------------
TOTAL SCF ENERGY
----------------

Total Energy       :         -331.10992894 Eh           -9009.95922 eV

Components:
Nuclear Repulsion  :          243.40542279 Eh            6623.39828 eV
Electronic Energy  :         -574.51535172 Eh          -15633.35750 eV
One Electron Energy:         -934.29187011 Eh          -25423.37429 eV
Two Electron Energy:          359.77651839 Eh            9790.01678 eV
Max COSX asymmetry :            0.00000348 Eh               0.00009 eV

Virial components:
Potential Energy   :         -659.26007982 Eh          -17939.37879 eV
Kinetic Energy     :          328.15015089 Eh            8929.41957 eV
Virial Ratio       :            2.00901958


DFT components:
N(Alpha)           :       24.000019200082 electrons
N(Beta)            :       24.000019200082 electrons
N(Total)           :       48.000038400164 electrons
E(X)               :      -30.978325674473 Eh       
E(C)               :       -1.603706142482 Eh       
E(XC)              :      -32.582031816955 Eh       
DFET-embed. en.    :        0.000000000000 Eh       

---------------
SCF CONVERGENCE
---------------

  Last Energy change         ...   -2.6661e-09  Tolerance :   1.0000e-08
  Last MAX-Density change    ...    2.2204e-15  Tolerance :   1.0000e-07
  Last RMS-Density change    ...    3.3272e-17  Tolerance :   5.0000e-09
  Last Orbital Gradient      ...    5.1812e-07  Tolerance :   1.0000e-05
  Last Orbital Rotation      ...    6.9882e-07  Tolerance :   1.0000e-05

             **** THE GBW FILE WAS UPDATED (14Feb_SVPD_PBE0_C2_wt_wb97_typ1_neg.gbw) ****
             **** DENSITY 14Feb_SVPD_PBE0_C2_wt_wb97_typ1_neg.scfp WAS UPDATED ****
             **** ENERGY FILE WAS UPDATED (14Feb_SVPD_PBE0_C2_wt_wb97_typ1_neg.en.tmp) ****
             **** THE GBW FILE WAS UPDATED (14Feb_SVPD_PBE0_C2_wt_wb97_typ1_neg.gbw) ****
             **** DENSITY 14Feb_SVPD_PBE0_C2_wt_wb97_typ1_neg.scfp WAS UPDATED ****
----------------
ORBITAL ENERGIES
----------------

  NO   OCC          E(Eh)            E(eV) 
   0   2.0000     -24.861895      -676.5266 
   1   2.0000     -19.225953      -523.1648 
   2   2.0000     -10.418008      -283.4884 
   3   2.0000     -10.267357      -279.3890 
   4   2.0000     -10.246716      -278.8273 
   5   2.0000     -10.215645      -277.9818 
   6   2.0000      -1.349903       -36.7327 
   7   2.0000      -1.048160       -28.5219 
   8   2.0000      -0.827785       -22.5252 
   9   2.0000      -0.747268       -20.3342 
  10   2.0000      -0.685823       -18.6622 
  11   2.0000      -0.628797       -17.1104 
  12   2.0000      -0.575518       -15.6606 
  13   2.0000      -0.553032       -15.0488 
  14   2.0000      -0.525847       -14.3090 
  15   2.0000      -0.485570       -13.2130 
  16   2.0000      -0.468451       -12.7472 
  17   2.0000      -0.430395       -11.7117 
  18   2.0000      -0.414237       -11.2720 
  19   2.0000      -0.378561       -10.3012 
  20   2.0000      -0.371719       -10.1150 
  21   2.0000      -0.358639        -9.7591 
  22   2.0000      -0.353186        -9.6107 
  23   2.0000      -0.306453        -8.3390 
  24   0.0000      -0.030705        -0.8355 
  25   0.0000       0.020100         0.5470 
  26   0.0000       0.048585         1.3221 
  27   0.0000       0.056689         1.5426 
  28   0.0000       0.067396         1.8339 
  29   0.0000       0.092446         2.5156 
  30   0.0000       0.101367         2.7583 
  31   0.0000       0.108721         2.9584 
  32   0.0000       0.117712         3.2031 
  33   0.0000       0.121366         3.3025 
  34   0.0000       0.142072         3.8660 
  35   0.0000       0.151230         4.1152 
  36   0.0000       0.160044         4.3550 
  37   0.0000       0.168187         4.5766 
  38   0.0000       0.172677         4.6988 
  39   0.0000       0.179462         4.8834 
  40   0.0000       0.185285         5.0419 
  41   0.0000       0.193376         5.2620 
  42   0.0000       0.202804         5.5186 
  43   0.0000       0.221954         6.0397 
  44   0.0000       0.231100         6.2885 
  45   0.0000       0.248815         6.7706 
  46   0.0000       0.260792         7.0965 
  47   0.0000       0.269892         7.3441 
  48   0.0000       0.280090         7.6216 
  49   0.0000       0.288042         7.8380 
  50   0.0000       0.311038         8.4638 
  51   0.0000       0.312629         8.5071 
  52   0.0000       0.321841         8.7578 
  53   0.0000       0.338604         9.2139 
  54   0.0000       0.347957         9.4684 
  55   0.0000       0.353294         9.6136 
  56   0.0000       0.353977         9.6322 
  57   0.0000       0.362718         9.8701 
  58   0.0000       0.368585        10.0297 
  59   0.0000       0.377090        10.2611 
  60   0.0000       0.379342        10.3224 
  61   0.0000       0.389249        10.5920 
  62   0.0000       0.400513        10.8985 
  63   0.0000       0.403033        10.9671 
  64   0.0000       0.422069        11.4851 
  65   0.0000       0.428544        11.6613 
  66   0.0000       0.431729        11.7480 
  67   0.0000       0.449415        12.2292 
  68   0.0000       0.455015        12.3816 
  69   0.0000       0.459014        12.4904 
  70   0.0000       0.464955        12.6521 
  71   0.0000       0.473763        12.8917 
  72   0.0000       0.488039        13.2802 
  73   0.0000       0.489820        13.3287 
  74   0.0000       0.507070        13.7981 
  75   0.0000       0.512268        13.9395 
  76   0.0000       0.518591        14.1116 
  77   0.0000       0.524152        14.2629 
  78   0.0000       0.535529        14.5725 
  79   0.0000       0.551651        15.0112 
  80   0.0000       0.560923        15.2635 
  81   0.0000       0.566998        15.4288 
  82   0.0000       0.576410        15.6849 
  83   0.0000       0.583307        15.8726 
  84   0.0000       0.590603        16.0711 
  85   0.0000       0.599507        16.3134 
  86   0.0000       0.620695        16.8900 
  87   0.0000       0.644269        17.5315 
  88   0.0000       0.658502        17.9187 
  89   0.0000       0.662840        18.0368 
  90   0.0000       0.687393        18.7049 
  91   0.0000       0.693440        18.8695 
  92   0.0000       0.724231        19.7073 
  93   0.0000       0.733143        19.9498 
  94   0.0000       0.767704        20.8903 
  95   0.0000       0.781562        21.2674 
  96   0.0000       0.809347        22.0234 
  97   0.0000       0.842466        22.9247 
  98   0.0000       0.845765        23.0144 
  99   0.0000       0.873543        23.7703 
 100   0.0000       0.908286        24.7157 
 101   0.0000       0.932031        25.3619 
 102   0.0000       0.932939        25.3866 
 103   0.0000       0.972397        26.4603 
 104   0.0000       0.977652        26.6033 
 105   0.0000       0.997478        27.1428 
 106   0.0000       1.013051        27.5665 
 107   0.0000       1.029092        28.0030 
 108   0.0000       1.035365        28.1737 
 109   0.0000       1.047404        28.5013 
 110   0.0000       1.063518        28.9398 
 111   0.0000       1.085721        29.5440 
 112   0.0000       1.096562        29.8390 
 113   0.0000       1.129756        30.7422 
 114   0.0000       1.158144        31.5147 
 115   0.0000       1.178661        32.0730 
 116   0.0000       1.221390        33.2357 
 117   0.0000       1.231253        33.5041 
 118   0.0000       1.260373        34.2965 
 119   0.0000       1.314993        35.7828 
 120   0.0000       1.346017        36.6270 
 121   0.0000       1.386483        37.7281 
 122   0.0000       1.425937        38.8017 
 123   0.0000       1.526873        41.5483 
 124   0.0000       1.567342        42.6495 
 125   0.0000       1.594167        43.3795 
 126   0.0000       1.630260        44.3616 
 127   0.0000       1.635698        44.5096 
 128   0.0000       1.669662        45.4338 
 129   0.0000       1.685124        45.8545 
 130   0.0000       1.706935        46.4481 
 131   0.0000       1.727479        47.0071 
 132   0.0000       1.737537        47.2808 
 133   0.0000       1.787286        48.6345 
 134   0.0000       1.817415        49.4544 
 135   0.0000       1.823983        49.6331 
 136   0.0000       1.856249        50.5111 
 137   0.0000       1.876955        51.0745 
 138   0.0000       1.902465        51.7687 
 139   0.0000       1.926322        52.4179 
 140   0.0000       1.969615        53.5959 
 141   0.0000       1.984105        53.9902 
 142   0.0000       1.999879        54.4195 
 143   0.0000       2.040648        55.5289 
 144   0.0000       2.071178        56.3596 
 145   0.0000       2.080277        56.6072 
 146   0.0000       2.099397        57.1275 
 147   0.0000       2.122611        57.7592 
 148   0.0000       2.150472        58.5173 
 149   0.0000       2.162641        58.8485 
 150   0.0000       2.196071        59.7581 
 151   0.0000       2.255252        61.3685 
 152   0.0000       2.311088        62.8879 
 153   0.0000       2.323456        63.2244 
 154   0.0000       2.341675        63.7202 
 155   0.0000       2.365312        64.3634 
 156   0.0000       2.449036        66.6417 
 157   0.0000       2.471207        67.2450 
 158   0.0000       2.489827        67.7516 
 159   0.0000       2.555164        69.5296 
 160   0.0000       2.602159        70.8084 
 161   0.0000       2.625341        71.4392 
 162   0.0000       2.676683        72.8363 
 163   0.0000       2.736357        74.4601 
 164   0.0000       2.774145        75.4883 
 165   0.0000       2.911457        79.2248 
 166   0.0000       2.949894        80.2707 
 167   0.0000       2.971525        80.8593 
 168   0.0000       3.027017        82.3693 
 169   0.0000       3.073277        83.6281 
 170   0.0000       3.095329        84.2282 
 171   0.0000       3.127377        85.1002 
 172   0.0000       3.147842        85.6571 
 173   0.0000       3.185320        86.6770 
 174   0.0000       3.243652        88.2643 
 175   0.0000       3.251979        88.4908 
 176   0.0000       3.341032        90.9141 
 177   0.0000       3.368175        91.6527 
 178   0.0000       3.496160        95.1353 
 179   0.0000       3.553171        96.6867 
 180   0.0000       3.782383       102.9239 
 181   0.0000       4.115845       111.9978 

                    ********************************
                    * MULLIKEN POPULATION ANALYSIS *
                    ********************************

-----------------------
MULLIKEN ATOMIC CHARGES
-----------------------
   0 C :   -0.454447
   1 C :   -0.117114
   2 H :    0.146171
   3 H :    0.086340
   4 C :    0.851322
   5 O :   -0.627569
   6 F :   -0.389044
   7 C :    0.555090
   8 H :   -0.052768
   9 H :    0.048950
  10 H :   -0.055232
  11 H :    0.006416
  12 H :    0.001885
Sum of atomic charges:   -0.0000000

--------------------------------
MULLIKEN REDUCED ORBITAL CHARGES
--------------------------------
  0 C s       :     2.902103  s :     2.902103
      pz      :     0.941886  p :     2.984535
      px      :     1.048966
      py      :     0.993683
      dz2     :     0.133513  d :     0.567809
      dxz     :     0.108305
      dyz     :     0.147721
      dx2y2   :     0.116685
      dxy     :     0.061584
  1 C s       :     2.841097  s :     2.841097
      pz      :     1.014880  p :     3.043478
      px      :     1.060126
      py      :     0.968471
      dz2     :     0.059512  d :     0.232539
      dxz     :     0.062539
      dyz     :     0.071681
      dx2y2   :     0.012451
      dxy     :     0.026355
  2 H s       :     0.801178  s :     0.801178
      pz      :     0.001129  p :     0.052651
      px      :     0.007099
      py      :     0.044422
  3 H s       :     0.868082  s :     0.868082
      pz      :     0.009590  p :     0.045578
      px      :     0.040280
      py      :    -0.004292
  4 C s       :     2.821633  s :     2.821633
      pz      :     0.639287  p :     2.163888
      px      :     0.676858
      py      :     0.847744
      dz2     :     0.042151  d :     0.163156
      dxz     :     0.005433
      dyz     :     0.028382
      dx2y2   :     0.036013
      dxy     :     0.051177
  5 O s       :     3.982509  s :     3.982509
      pz      :     1.637129  p :     4.596868
      px      :     1.625207
      py      :     1.334532
      dz2     :     0.011251  d :     0.048192
      dxz     :     0.004253
      dyz     :     0.014959
      dx2y2   :     0.006094
      dxy     :     0.011635
  6 F s       :     4.030675  s :     4.030675
      pz      :     1.706254  p :     5.326664
      px      :     1.682876
      py      :     1.937534
      dz2     :     0.009452  d :     0.031705
      dxz     :     0.007676
      dyz     :     0.004866
      dx2y2   :     0.006310
      dxy     :     0.003401
  7 C s       :     2.485595  s :     2.485595
      pz      :     0.925141  p :     2.836307
      px      :     0.936248
      py      :     0.974918
      dz2     :     0.032303  d :     0.123009
      dxz     :     0.012923
      dyz     :    -0.008430
      dx2y2   :     0.067264
      dxy     :     0.018948
  8 H s       :     1.013772  s :     1.013772
      pz      :     0.002244  p :     0.038996
      px      :    -0.011785
      py      :     0.048538
  9 H s       :     0.926595  s :     0.926595
      pz      :    -0.016926  p :     0.024455
      px      :     0.051544
      py      :    -0.010163
 10 H s       :     0.942515  s :     0.942515
      pz      :     0.069847  p :     0.112718
      px      :    -0.014007
      py      :     0.056878
 11 H s       :     0.969486  s :     0.969486
      pz      :     0.030373  p :     0.024099
      px      :     0.006274
      py      :    -0.012549
 12 H s       :     0.975572  s :     0.975572
      pz      :    -0.025071  p :     0.022542
      px      :     0.032684
      py      :     0.014930


                     *******************************
                     * LOEWDIN POPULATION ANALYSIS *
                     *******************************

----------------------
LOEWDIN ATOMIC CHARGES
----------------------
   0 C :   -0.059752
   1 C :    0.039298
   2 H :    0.027447
   3 H :    0.042570
   4 C :    0.012834
   5 O :   -0.146130
   6 F :   -0.029466
   7 C :    0.126943
   8 H :    0.024730
   9 H :    0.027424
  10 H :   -0.039478
  11 H :   -0.013502
  12 H :   -0.012917

-------------------------------
LOEWDIN REDUCED ORBITAL CHARGES
-------------------------------
  0 C s       :     2.688960  s :     2.688960
      pz      :     0.865739  p :     2.702572
      px      :     0.921671
      py      :     0.915162
      dz2     :     0.158687  d :     0.668220
      dxz     :     0.125872
      dyz     :     0.160319
      dx2y2   :     0.120945
      dxy     :     0.102397
  1 C s       :     2.688388  s :     2.688388
      pz      :     0.895474  p :     2.696997
      px      :     0.914737
      py      :     0.886786
      dz2     :     0.136895  d :     0.575317
      dxz     :     0.136551
      dyz     :     0.136065
      dx2y2   :     0.063997
      dxy     :     0.101808
  2 H s       :     0.717908  s :     0.717908
      pz      :     0.063162  p :     0.254645
      px      :     0.092994
      py      :     0.098489
  3 H s       :     0.707631  s :     0.707631
      pz      :     0.075410  p :     0.249799
      px      :     0.105095
      py      :     0.069294
  4 C s       :     2.650262  s :     2.650262
      pz      :     0.685881  p :     2.291973
      px      :     0.695885
      py      :     0.910207
      dz2     :     0.177508  d :     1.044931
      dxz     :     0.151459
      dyz     :     0.232113
      dx2y2   :     0.236595
      dxy     :     0.247256
  5 O s       :     3.478203  s :     3.478203
      pz      :     1.504685  p :     4.453162
      px      :     1.488136
      py      :     1.460340
      dz2     :     0.042569  d :     0.214765
      dxz     :     0.012702
      dyz     :     0.047684
      dx2y2   :     0.065596
      dxy     :     0.046215
  6 F s       :     3.615321  s :     3.615321
      pz      :     1.688905  p :     5.195860
      px      :     1.670251
      py      :     1.836704
      dz2     :     0.040321  d :     0.218285
      dxz     :     0.063719
      dyz     :     0.038652
      dx2y2   :     0.034848
      dxy     :     0.040744
  7 C s       :     2.698284  s :     2.698284
      pz      :     0.919701  p :     2.765587
      px      :     0.917688
      py      :     0.928198
      dz2     :     0.098182  d :     0.409186
      dxz     :     0.058382
      dyz     :     0.068264
      dx2y2   :     0.104280
      dxy     :     0.080078
  8 H s       :     0.726764  s :     0.726764
      pz      :     0.074844  p :     0.248506
      px      :     0.066622
      py      :     0.107040
  9 H s       :     0.722368  s :     0.722368
      pz      :     0.060971  p :     0.250208
      px      :     0.108577
      py      :     0.080660
 10 H s       :     0.712938  s :     0.712938
      pz      :     0.134989  p :     0.326540
      px      :     0.075011
      py      :     0.116540
 11 H s       :     0.740322  s :     0.740322
      pz      :     0.119057  p :     0.273180
      px      :     0.080317
      py      :     0.073806
 12 H s       :     0.741970  s :     0.741970
      pz      :     0.071127  p :     0.270947
      px      :     0.115394
      py      :     0.084426


                      *****************************
                      * MAYER POPULATION ANALYSIS *
                      *****************************

  NA   - Mulliken gross atomic population
  ZA   - Total nuclear charge
  QA   - Mulliken gross atomic charge
  VA   - Mayer's total valence
  BVA  - Mayer's bonded valence
  FA   - Mayer's free valence

  ATOM       NA         ZA         QA         VA         BVA        FA
  0 C      6.4544     6.0000    -0.4544     5.2737     5.2737    -0.0000
  1 C      6.1171     6.0000    -0.1171     4.3567     4.3567    -0.0000
  2 H      0.8538     1.0000     0.1462     1.1262     1.1262    -0.0000
  3 H      0.9137     1.0000     0.0863     1.1070     1.1070    -0.0000
  4 C      5.1487     6.0000     0.8513     3.7065     3.7065     0.0000
  5 O      8.6276     8.0000    -0.6276     1.9306     1.9306    -0.0000
  6 F      9.3890     9.0000    -0.3890     0.8382     0.8382    -0.0000
  7 C      5.4449     6.0000     0.5551     3.9791     3.9791    -0.0000
  8 H      1.0528     1.0000    -0.0528     1.1621     1.1621     0.0000
  9 H      0.9510     1.0000     0.0490     1.0827     1.0827    -0.0000
 10 H      1.0552     1.0000    -0.0552     1.2436     1.2436     0.0000
 11 H      0.9936     1.0000     0.0064     1.0152     1.0152    -0.0000
 12 H      0.9981     1.0000     0.0019     1.0157     1.0157    -0.0000

  Mayer bond orders larger than 0.100000
B(  0-C ,  1-C ) :   1.2634 B(  0-C ,  2-H ) :   0.1063 B(  0-C ,  3-H ) :   0.1218 
B(  0-C ,  7-C ) :   1.3685 B(  0-C ,  8-H ) :   0.9515 B(  0-C ,  9-H ) :   0.8998 
B(  0-C , 10-H ) :   0.1688 B(  0-C , 11-H ) :   0.1912 B(  0-C , 12-H ) :   0.1687 
B(  1-C ,  2-H ) :   0.8490 B(  1-C ,  3-H ) :   0.8305 B(  1-C ,  4-C ) :   1.1311 
B(  1-C ,  6-F ) :   0.1006 B(  1-C ,  9-H ) :   0.1032 B(  2-H ,  4-C ) :   0.1087 
B(  4-C ,  5-O ) :   1.6905 B(  4-C ,  6-F ) :   0.6555 B(  7-C , 10-H ) :   0.8871 
B(  7-C , 11-H ) :   0.7596 B(  7-C , 12-H ) :   0.8024 

-------
TIMINGS
-------

Total SCF time: 0 days 0 hours 0 min 16 sec 

Total time                  ....      16.205 sec
Sum of individual times     ....      16.035 sec  ( 98.9%)

Fock matrix formation       ....      14.954 sec  ( 92.3%)
  Split-RI-J                ....       1.002 sec  (  6.7% of F)
  Chain of spheres X        ....      10.733 sec  ( 71.8% of F)
  XC integration            ....       3.178 sec  ( 21.2% of F)
    Basis function eval.    ....       1.080 sec  ( 34.0% of XC)
    Density eval.           ....       0.776 sec  ( 24.4% of XC)
    XC-Functional eval.     ....       0.187 sec  (  5.9% of XC)
    XC-Potential eval.      ....       1.020 sec  ( 32.1% of XC)
Diagonalization             ....       0.047 sec  (  0.3%)
Density matrix formation    ....       0.004 sec  (  0.0%)
Population analysis         ....       0.007 sec  (  0.0%)
Initial guess               ....       0.129 sec  (  0.8%)
Orbital Transformation      ....       0.000 sec  (  0.0%)
Orbital Orthonormalization  ....       0.000 sec  (  0.0%)
DIIS solution               ....       0.028 sec  (  0.2%)
SOSCF solution              ....       0.044 sec  (  0.3%)
Grid generation             ....       0.821 sec  (  5.1%)

Maximum memory used throughout the entire SCF-calculation: 52.8 MB


-------------------------------------------------------------------------------
                          DFT DISPERSION CORRECTION                            
                                                                               
                              DFTD3 V3.1  Rev 1                                
                          USING Becke-Johnson damping                          
-------------------------------------------------------------------------------
The PBE0 functional is recognized
Active option DFTDOPT                   ...         4   

molecular C6(AA) [au] = 1310.738346 


            DFT-D V3
 parameters
 s6 scaling factor         :     1.0000 
 a1 scaling factor         :     0.4145 
 s8 scaling factor         :     1.2177 
 a2 scaling factor         :     4.8593 
 ad hoc parameters k1-k3   :    16.0000     1.3333    -4.0000 

 Edisp/kcal,au: -5.032765569892  -0.008020221592 
 E6   /kcal   :  -3.253683181 
 E8   /kcal   :  -1.779082389 
 % E8         :  35.349995237 

-------------------------   ----------------
Dispersion correction           -0.008020222
-------------------------   ----------------


-------------------------   --------------------
FINAL SINGLE POINT ENERGY      -331.117949157011
-------------------------   --------------------


                            ***************************************
                            *     ORCA property calculations      *
                            ***************************************

                                    ---------------------
                                    Active property flags
                                    ---------------------
   (+) Dipole Moment


------------------------------------------------------------------------------
                       ORCA ELECTRIC PROPERTIES CALCULATION
------------------------------------------------------------------------------

Dipole Moment Calculation                       ... on
Quadrupole Moment Calculation                   ... off
Polarizability Calculation                      ... off
GBWName                                         ... 14Feb_SVPD_PBE0_C2_wt_wb97_typ1_neg.gbw
Electron density file                           ... 14Feb_SVPD_PBE0_C2_wt_wb97_typ1_neg.scfp
The origin for moment calculation is the CENTER OF MASS  = ( 0.035517, -0.708025 -7.672319)

-------------
DIPOLE MOMENT
-------------
                                X             Y             Z
Electronic contribution:      3.80369      -1.75312     -10.37385
Nuclear contribution   :     -3.92885       2.87300      10.61091
                        -----------------------------------------
Total Dipole Moment    :     -0.12516       1.11987       0.23706
                        -----------------------------------------
Magnitude (a.u.)       :      1.15151
Magnitude (Debye)      :      2.92691



--------------------
Rotational spectrum 
--------------------
 
Rotational constants in cm-1:     0.209332     0.079487     0.069375 
Rotational constants in MHz :  6275.605762  2382.960864  2079.805430 

 Dipole components along the rotational axes: 
x,y,z [a.u.] :     0.360101    -1.084057     0.145337 
x,y,z [Debye]:     0.915304    -2.755455     0.369418 

 

Timings for individual modules:

Sum of individual times         ...       16.788 sec (=   0.280 min)
GTO integral calculation        ...        0.374 sec (=   0.006 min)   2.2 %
SCF iterations                  ...       16.414 sec (=   0.274 min)  97.8 %
                             ****ORCA TERMINATED NORMALLY****
TOTAL RUN TIME: 0 days 0 hours 0 minutes 17 seconds 180 msec
