
                                        *****************
                                        * O   R   C   A *
                                        *****************

                                            #,                                       
                                            ###                                      
                                            ####                                     
                                            #####                                    
                                            ######                                   
                                           ########,                                 
                                     ,,################,,,,,                         
                               ,,#################################,,                 
                          ,,##########################################,,             
                       ,#########################################, ''#####,          
                    ,#############################################,,   '####,        
                  ,##################################################,,,,####,       
                ,###########''''           ''''###############################       
              ,#####''   ,,,,##########,,,,          '''####'''          '####       
            ,##' ,,,,###########################,,,                        '##       
           ' ,,###''''                  '''############,,,                           
         ,,##''                                '''############,,,,        ,,,,,,###''
      ,#''                                            '''#######################'''  
     '                                                          ''''####''''         
             ,#######,   #######,   ,#######,      ##                                
            ,#'     '#,  ##    ##  ,#'     '#,    #''#        ######   ,####,        
            ##       ##  ##   ,#'  ##            #'  '#       #        #'  '#        
            ##       ##  #######   ##           ,######,      #####,   #    #        
            '#,     ,#'  ##    ##  '#,     ,#' ,#      #,         ##   #,  ,#        
             '#######'   ##     ##  '#######'  #'      '#     #####' # '####'        



                  #######################################################
                  #                        -***-                        #
                  #          Department of theory and spectroscopy      #
                  #    Directorship and core code : Frank Neese         #
                  #        Max Planck Institute fuer Kohlenforschung    #
                  #                Kaiser Wilhelm Platz 1               #
                  #                 D-45470 Muelheim/Ruhr               #
                  #                      Germany                        #
                  #                                                     #
                  #                  All rights reserved                #
                  #                        -***-                        #
                  #######################################################


                         Program Version 5.0.0 -  RELEASE  -
                                (SVN: $Rev: 19529$)
                ($Date: 2021-06-28 11:36:33 +0200 (Mo, 28 Jun 2021) $)


 With contributions from (in alphabetic order):
   Daniel Aravena         : Magnetic Suceptibility
   Michael Atanasov       : Ab Initio Ligand Field Theory (pilot matlab implementation)
   Alexander A. Auer      : GIAO ZORA, VPT2 properties, NMR spectrum
   Ute Becker             : Parallelization
   Giovanni Bistoni       : ED, misc. LED, open-shell LED, HFLD
   Martin Brehm           : Molecular dynamics
   Dmytro Bykov           : SCF Hessian
   Vijay G. Chilkuri      : MRCI spin determinant printing, contributions to CSF-ICE
   Dipayan Datta          : RHF DLPNO-CCSD density
   Achintya Kumar Dutta   : EOM-CC, STEOM-CC
   Dmitry Ganyushin       : Spin-Orbit,Spin-Spin,Magnetic field MRCI
   Miquel Garcia          : C-PCM Hessian, Gaussian charge scheme
   Yang Guo               : DLPNO-NEVPT2, F12-NEVPT2, CIM, IAO-localization
   Andreas Hansen         : Spin unrestricted coupled pair/coupled cluster methods
   Benjamin Helmich-Paris : MC-RPA, TRAH-SCF, COSX integrals
   Lee Huntington         : MR-EOM, pCC
   Robert Izsak           : Overlap fitted RIJCOSX, COSX-SCS-MP3, EOM
   Marcus Kettner         : VPT2
   Christian Kollmar      : KDIIS, OOCD, Brueckner-CCSD(T), CCSD density, CASPT2, CASPT2-K
   Simone Kossmann        : Meta GGA functionals, TD-DFT gradient, OOMP2, MP2 Hessian
   Martin Krupicka        : Initial AUTO-CI
   Lucas Lang             : DCDCAS
   Marvin Lechner         : AUTO-CI (C++ implementation), FIC-MRCC
   Dagmar Lenk            : GEPOL surface, SMD
   Dimitrios Liakos       : Extrapolation schemes; Compound Job, initial MDCI parallelization
   Dimitrios Manganas     : Further ROCIS development; embedding schemes
   Dimitrios Pantazis     : SARC Basis sets
   Anastasios Papadopoulos: AUTO-CI, single reference methods and gradients
   Taras Petrenko         : DFT Hessian,TD-DFT gradient, ASA, ECA, R-Raman, ABS, FL, XAS/XES, NRVS
   Peter Pinski           : DLPNO-MP2, DLPNO-MP2 Gradient
   Christoph Reimann      : Effective Core Potentials
   Marius Retegan         : Local ZFS, SOC
   Christoph Riplinger    : Optimizer, TS searches, QM/MM, DLPNO-CCSD(T), (RO)-DLPNO pert. Triples
   Tobias Risthaus        : Range-separated hybrids, TD-DFT gradient, RPA, STAB
   Michael Roemelt        : Original ROCIS implementation
   Masaaki Saitow         : Open-shell DLPNO-CCSD energy and density
   Barbara Sandhoefer     : DKH picture change effects
   Avijit Sen             : IP-ROCIS
   Kantharuban Sivalingam : CASSCF convergence, NEVPT2, FIC-MRCI
   Bernardo de Souza      : ESD, SOC TD-DFT
   Georgi Stoychev        : AutoAux, RI-MP2 NMR
   Willem Van den Heuvel  : Paramagnetic NMR
   Boris Wezisla          : Elementary symmetry handling
   Frank Wennmohs         : Technical directorship


 We gratefully acknowledge several colleagues who have allowed us to
 interface, adapt or use parts of their codes:
   Stefan Grimme, W. Hujo, H. Kruse, P. Pracht,  : VdW corrections, initial TS optimization,
                  C. Bannwarth, S. Ehlert          DFT functionals, gCP, sTDA/sTD-DF
   Ed Valeev, F. Pavosevic, A. Kumar             : LibInt (2-el integral package), F12 methods
   Garnet Chan, S. Sharma, J. Yang, R. Olivares  : DMRG
   Ulf Ekstrom                                   : XCFun DFT Library
   Mihaly Kallay                                 : mrcc  (arbitrary order and MRCC methods)
   Jiri Pittner, Ondrej Demel                    : Mk-CCSD
   Frank Weinhold                                : gennbo (NPA and NBO analysis)
   Christopher J. Cramer and Donald G. Truhlar   : smd solvation model
   Lars Goerigk                                  : TD-DFT with DH, B97 family of functionals
   V. Asgeirsson, H. Jonsson                     : NEB implementation
   FAccTs GmbH                                   : IRC, NEB, NEB-TS, DLPNO-Multilevel, CI-OPT
                                                   MM, QMMM, 2- and 3-layer-ONIOM, Crystal-QMMM,
                                                   LR-CPCM, SF, NACMEs, symmetry and pop. for TD-DFT,
                                                   nearIR, NL-DFT gradient (VV10), updates on ESD,
                                                   ML-optimized integration grids
   S Lehtola, MJT Oliveira, MAL Marques          : LibXC Library
   Liviu Ungur et al                             : ANISO software


 Your calculation uses the libint2 library for the computation of 2-el integrals
 For citations please refer to: http://libint.valeyev.net

 Your ORCA version has been built with support for libXC version: 5.1.0
 For citations please refer to: https://tddft.org/programs/libxc/

 This ORCA versions uses:
   CBLAS   interface :  Fast vector & matrix operations
   LAPACKE interface :  Fast linear algebra routines
   SCALAPACK package :  Parallel linear algebra routines
   Shared memory     :  Shared parallel matrices
   BLAS/LAPACK       :  OpenBLAS 0.3.15  USE64BITINT DYNAMIC_ARCH NO_AFFINITY Haswell SINGLE_THREADED
        Core in use  :  Haswell
   Copyright (c) 2011-2014, The OpenBLAS Project


Your calculation utilizes the atom-pairwise dispersion correction
with the Becke-Johnson damping scheme (D3BJ)
Cite in your paper:
S.Grimme, S.Ehrlich, L.Goerigk, J Comput Chem, (2011), 32, 1456–1465 
S.Grimme, J.Antony, S.Ehrlich and H.Krieg, J.Chem.Phys., 132, (2010), 154104 
   

================================================================================

----- Orbital basis set information -----
Your calculation utilizes the basis: def2-SVPD
   F. Weigend and R. Ahlrichs, Phys. Chem. Chem. Phys. 7, 3297 (2005).
   D. Rappoport and F. Furche, J. Chem. Phys. 133 134105 (2010).

----- AuxJ basis set information -----
Your calculation utilizes the auxiliary basis: def2/J
   F. Weigend, Phys. Chem. Chem. Phys. 8, 1057 (2006).

================================================================================
                                        WARNINGS
                       Please study these warnings very carefully!
================================================================================



WARNING: Found flag for RIJCOSX approximation but no HF exchange needed!
  ===> : RIJCOSX  will be disabled and Split-RI-J is turned on

INFO   : the flag for use of the SHARK integral package has been found!

================================================================================
                                       INPUT FILE
================================================================================
NAME = 18Feb_SVPD_BLYP_C1_wt_wb97_typm1_pos.com
|  1> !BLYP D3BJ RIJCOSX def2-SVPD def2/J TightSCF 
|  2> *xyz 0 1
|  3> C          4.36645       -0.13321       -1.41606
|  4> C          3.05650       -0.32080       -0.70738
|  5> C          2.38983        0.71129       -0.24391
|  6> N          2.51600       -1.50772       -0.55023
|  7> H          2.96768       -2.32291       -0.95631
|  8> H          1.54987       -1.49063       -0.24988
|  9> H          2.74307        1.64947       -0.41280
| 10> H          1.44036        0.50278        0.03703
| 11> H          4.74975       -1.08632       -1.71533
| 12> H          5.06373        0.34075       -0.75722
| 13> H          4.21960        0.47966       -2.28077
| 14> *
| 15> 
| 16> %MaxCore 64000
| 17> 
| 18> %pal nprocs 4
| 19> end  
| 20> 
| 21> %scf
| 22>   MaxIter 150
| 23> end
| 24> 
| 25> 
| 26>                          ****END OF INPUT****
================================================================================

                       ****************************
                       * Single Point Calculation *
                       ****************************

---------------------------------
CARTESIAN COORDINATES (ANGSTROEM)
---------------------------------
  C      4.366450   -0.133210   -1.416060
  C      3.056500   -0.320800   -0.707380
  C      2.389830    0.711290   -0.243910
  N      2.516000   -1.507720   -0.550230
  H      2.967680   -2.322910   -0.956310
  H      1.549870   -1.490630   -0.249880
  H      2.743070    1.649470   -0.412800
  H      1.440360    0.502780    0.037030
  H      4.749750   -1.086320   -1.715330
  H      5.063730    0.340750   -0.757220
  H      4.219600    0.479660   -2.280770

----------------------------
CARTESIAN COORDINATES (A.U.)
----------------------------
  NO LB      ZA    FRAG     MASS         X           Y           Z
   0 C     6.0000    0    12.011    8.251395   -0.251730   -2.675966
   1 C     6.0000    0    12.011    5.775948   -0.606224   -1.336754
   2 C     6.0000    0    12.011    4.516124    1.344143   -0.460923
   3 N     7.0000    0    14.007    4.754551   -2.849178   -1.039784
   4 H     1.0000    0     1.008    5.608102   -4.389664   -1.807164
   5 H     1.0000    0     1.008    2.928830   -2.816882   -0.472205
   6 H     1.0000    0     1.008    5.183651    3.117047   -0.780079
   7 H     1.0000    0     1.008    2.721886    0.950117    0.069977
   8 H     1.0000    0     1.008    8.975727   -2.052847   -3.241504
   9 H     1.0000    0     1.008    9.569063    0.643924   -1.430938
  10 H     1.0000    0     1.008    7.973888    0.906426   -4.310031

--------------------------------
INTERNAL COORDINATES (ANGSTROEM)
--------------------------------
 C      0   0   0     0.000000000000     0.00000000     0.00000000
 C      1   0   0     1.501128359935     0.00000000     0.00000000
 C      2   1   0     1.313188142613   120.75855316     0.00000000
 N      2   1   3     1.313626833960   121.90040797   178.47219009
 H      4   2   1     1.016587686774   119.59992619   356.93386062
 H      4   2   1     1.011884068211   114.39974781   193.13877807
 H      3   2   1     1.016604171790   119.35879441     3.31232697
 H      3   2   1     1.011877949458   114.35559111   167.65058872
 H      1   2   3     1.070000044393   109.47099828   180.00015604
 H      1   2   3     1.070003563359   109.47126338    59.99993980
 H      1   2   3     1.069999039018   109.47132813   300.00043433

---------------------------
INTERNAL COORDINATES (A.U.)
---------------------------
 C      0   0   0     0.000000000000     0.00000000     0.00000000
 C      1   0   0     2.836721492139     0.00000000     0.00000000
 C      2   1   0     2.481565951852   120.75855316     0.00000000
 N      2   1   3     2.482394958355   121.90040797   178.47219009
 H      4   2   1     1.921072319119   119.59992619   356.93386062
 H      4   2   1     1.912183768198   114.39974781   193.13877807
 H      3   2   1     1.921103471284   119.35879441     3.31232697
 H      3   2   1     1.912172205430   114.35559111   167.65058872
 H      1   2   3     2.022007047185   109.47099828   180.00015604
 H      1   2   3     2.022013697068   109.47126338    59.99993980
 H      1   2   3     2.022005147303   109.47132813   300.00043433

---------------------
BASIS SET INFORMATION
---------------------
There are 3 groups of distinct atoms

 Group   1 Type C   : 8s4p2d contracted to 4s2p2d pattern {5111/31/11}
 Group   2 Type N   : 8s4p2d contracted to 4s2p2d pattern {5111/31/11}
 Group   3 Type H   : 4s2p contracted to 2s2p pattern {31/11}

Atom   0C    basis set group =>   1
Atom   1C    basis set group =>   1
Atom   2C    basis set group =>   1
Atom   3N    basis set group =>   2
Atom   4H    basis set group =>   3
Atom   5H    basis set group =>   3
Atom   6H    basis set group =>   3
Atom   7H    basis set group =>   3
Atom   8H    basis set group =>   3
Atom   9H    basis set group =>   3
Atom  10H    basis set group =>   3
---------------------------------
AUXILIARY/J BASIS SET INFORMATION
---------------------------------
There are 3 groups of distinct atoms

 Group   1 Type C   : 12s5p4d2f1g contracted to 6s4p3d1f1g pattern {711111/2111/211/2/1}
 Group   2 Type N   : 12s5p4d2f1g contracted to 6s4p3d1f1g pattern {711111/2111/211/2/1}
 Group   3 Type H   : 5s2p1d contracted to 3s1p1d pattern {311/2/1}

Atom   0C    basis set group =>   1
Atom   1C    basis set group =>   1
Atom   2C    basis set group =>   1
Atom   3N    basis set group =>   2
Atom   4H    basis set group =>   3
Atom   5H    basis set group =>   3
Atom   6H    basis set group =>   3
Atom   7H    basis set group =>   3
Atom   8H    basis set group =>   3
Atom   9H    basis set group =>   3
Atom  10H    basis set group =>   3


           ************************************************************
           *        Program running with 4 parallel MPI-processes     *
           *              working on a common directory               *
           ************************************************************
------------------------------------------------------------------------------
                           ORCA GTO INTEGRAL CALCULATION
                           -- RI-GTO INTEGRALS CHOSEN --
------------------------------------------------------------------------------
------------------------------------------------------------------------------
                   ___                                                        
                  /   \      - P O W E R E D   B Y -                         
                 /     \                                                     
                 |  |  |   _    _      __       _____    __    __             
                 |  |  |  | |  | |    /  \     |  _  \  |  |  /  |          
                  \  \/   | |  | |   /    \    | | | |  |  | /  /          
                 / \  \   | |__| |  /  /\  \   | |_| |  |  |/  /          
                |  |  |   |  __  | /  /__\  \  |    /   |      \           
                |  |  |   | |  | | |   __   |  |    \   |  |\   \          
                \     /   | |  | | |  |  |  |  | |\  \  |  | \   \       
                 \___/    |_|  |_| |__|  |__|  |_| \__\ |__|  \__/        
                                                                              
                      - O R C A' S   B I G   F R I E N D -                    
                                      &                                       
                       - I N T E G R A L  F E E D E R -                       
                                                                              
 v1 FN, 2020, v2 2021                                                         
------------------------------------------------------------------------------


Reading SHARK input file 18Feb_SVPD_BLYP_C1_wt_wb97_typm1_pos.SHARKINP.tmp ... ok
----------------------
SHARK INTEGRAL PACKAGE
----------------------

Number of atoms                             ...     11
Number of basis functions                   ...    136
Number of shells                            ...     60
Maximum angular momentum                    ...      2
Integral batch strategy                     ... SHARK/LIBINT Hybrid
RI-J (if used) integral strategy            ... SPLIT-RIJ (Revised 2003 algorithm where possible)
Printlevel                                  ...      1
Contraction scheme used                     ... SEGMENTED contraction
Coulomb Range Separation                    ... NOT USED
Exchange Range Separation                   ... NOT USED
Finite Nucleus Model                        ... NOT USED
Auxiliary Coulomb fitting basis             ... AVAILABLE
   # of basis functions in Aux-J            ...    273
   # of shells in Aux-J                     ...     95
   Maximum angular momentum in Aux-J        ...      4
Auxiliary J/K fitting basis                 ... NOT available
Auxiliary Correlation fitting basis         ... NOT available
Auxiliary 'external' fitting basis          ... NOT available
Integral threshold                          ...     2.500000e-11
Primitive cut-off                           ...     2.500000e-12
Primitive pair pre-selection threshold      ...     2.500000e-12

Calculating pre-screening integrals         ... done (  0.0 sec) Dimension = 60
Organizing shell pair data                  ... done (  0.0 sec)
Shell pair information
Total number of shell pairs                 ...      1830
Shell pairs after pre-screening             ...      1827
Total number of primitive shell pairs       ...      4924
Primitive shell pairs kept                  ...      4332
          la=0 lb=0:    462 shell pairs
          la=1 lb=0:    660 shell pairs
          la=1 lb=1:    253 shell pairs
          la=2 lb=0:    240 shell pairs
          la=2 lb=1:    176 shell pairs
          la=2 lb=2:     36 shell pairs

Calculating one electron integrals          ... done (  0.0 sec)
Calculating RI/J V-Matrix + Cholesky decomp.... done (  0.0 sec)
Calculating Nuclear repulsion               ... done (  0.0 sec) ENN=    124.810079955374 Eh

SHARK setup successfully completed in   0.2 seconds

Maximum memory used throughout the entire GTOINT-calculation: 8.8 MB


           ************************************************************
           *        Program running with 4 parallel MPI-processes     *
           *              working on a common directory               *
           ************************************************************
-------------------------------------------------------------------------------
                                 ORCA SCF
-------------------------------------------------------------------------------

------------
SCF SETTINGS
------------
Hamiltonian:
 Density Functional     Method          .... DFT(GTOs)
 Exchange Functional    Exchange        .... B88
   X-Alpha parameter    XAlpha          ....  0.666667
   Becke's b parameter  XBeta           ....  0.004200
 Correlation Functional Correlation     .... LYP
 Gradients option       PostSCFGGA      .... off
   Density functional embedding theory  .... OFF
   NL short-range parameter             ....  4.000000
 RI-approximation to the Coulomb term is turned on
   Number of AuxJ basis functions       .... 273


General Settings:
 Integral files         IntName         .... 18Feb_SVPD_BLYP_C1_wt_wb97_typm1_pos
 Hartree-Fock type      HFTyp           .... RHF
 Total Charge           Charge          ....    0
 Multiplicity           Mult            ....    1
 Number of Electrons    NEL             ....   32
 Basis Dimension        Dim             ....  136
 Nuclear Repulsion      ENuc            ....    124.8100799554 Eh

Convergence Acceleration:
 DIIS                   CNVDIIS         .... on
   Start iteration      DIISMaxIt       ....    12
   Startup error        DIISStart       ....  0.200000
   # of expansion vecs  DIISMaxEq       ....     5
   Bias factor          DIISBfac        ....   1.050
   Max. coefficient     DIISMaxC        ....  10.000
 Trust-Rad. Augm. Hess. CNVTRAH         .... auto
   Auto Start mean grad. ratio tolernc. ....  1.125000
   Auto Start start iteration           ....    20
   Auto Start num. interpolation iter.  ....    10
   Max. Number of Micro iterations      ....    16
   Max. Number of Macro iterations      .... Maxiter - #DIIS iter
   Number of Davidson start vectors     ....     2
   Converg. threshold I  (grad. norm)   ....   1.000e-05
   Converg. threshold II (energy diff.) ....   1.000e-08
   Grad. Scal. Fac. for Micro threshold ....   0.100
   Minimum threshold for Micro iter.    ....   0.010
   NR start threshold (gradient norm)   ....   0.001
   Initial trust radius                 ....   0.400
   Minimum AH scaling param. (alpha)    ....   1.000
   Maximum AH scaling param. (alpha)    .... 1000.000
   Orbital update algorithm             .... Taylor
   White noise on init. David. guess    .... on
   Maximum white noise                  ....   0.010
   Quad. conv. algorithm                .... NR
 SOSCF                  CNVSOSCF        .... on
   Start iteration      SOSCFMaxIt      ....   150
   Startup grad/error   SOSCFStart      ....  0.003300
 Level Shifting         CNVShift        .... on
   Level shift para.    LevelShift      ....    0.2500
   Turn off err/grad.   ShiftErr        ....    0.0010
 Zerner damping         CNVZerner       .... off
 Static damping         CNVDamp         .... on
   Fraction old density DampFac         ....    0.7000
   Max. Damping (<1)    DampMax         ....    0.9800
   Min. Damping (>=0)   DampMin         ....    0.0000
   Turn off err/grad.   DampErr         ....    0.1000
 Fernandez-Rico         CNVRico         .... off

SCF Procedure:
 Maximum # iterations   MaxIter         ....   150
 SCF integral mode      SCFMode         .... Direct
   Integral package                     .... SHARK and LIBINT hybrid scheme
 Reset frequency        DirectResetFreq ....    20
 Integral Threshold     Thresh          ....  2.500e-11 Eh
 Primitive CutOff       TCut            ....  2.500e-12 Eh

Convergence Tolerance:
 Convergence Check Mode ConvCheckMode   .... Total+1el-Energy
 Convergence forced     ConvForced      .... 0
 Energy Change          TolE            ....  1.000e-08 Eh
 1-El. energy change                    ....  1.000e-05 Eh
 Orbital Gradient       TolG            ....  1.000e-05
 Orbital Rotation angle TolX            ....  1.000e-05
 DIIS Error             TolErr          ....  5.000e-07


Diagonalization of the overlap matrix:
Smallest eigenvalue                        ... 7.684e-05
Time for diagonalization                   ...    0.005 sec
Threshold for overlap eigenvalues          ... 1.000e-08
Number of eigenvalues below threshold      ... 0
Time for construction of square roots      ...    0.004 sec
Total time needed                          ...    0.010 sec

Time for model grid setup =    0.079 sec

------------------------------
INITIAL GUESS: MODEL POTENTIAL
------------------------------
Loading Hartree-Fock densities                     ... done
Calculating cut-offs                               ... done
Initializing the effective Hamiltonian             ... done
Setting up the integral package (SHARK)            ... done
Starting the Coulomb interaction                   ... done (   0.0 sec)
Reading the grid                                   ... done
Mapping shells                                     ... done
Starting the XC term evaluation                    ... done (   0.1 sec)
  promolecular density results
     # of electrons  =     31.997271906
     EX              =    -24.141138529
     EC              =     -1.036810759
     EX+EC           =    -25.177949288
Transforming the Hamiltonian                       ... done (   0.0 sec)
Diagonalizing the Hamiltonian                      ... done (   0.0 sec)
Back transforming the eigenvectors                 ... done (   0.0 sec)
Now organizing SCF variables                       ... done
                      ------------------
                      INITIAL GUESS DONE (   0.2 sec)
                      ------------------
-------------------
DFT GRID GENERATION
-------------------

General Integration Accuracy     IntAcc      ... 4.388
Radial Grid Type                 RadialGrid  ... OptM3 with GC (2021)
Angular Grid (max. ang.)         AngularGrid ... 4 (Lebedev-302)
Angular grid pruning method      GridPruning ... 4 (adaptive)
Weight generation scheme         WeightScheme... Becke
Basis function cutoff            BFCut       ... 1.0000e-11
Integration weight cutoff        WCut        ... 1.0000e-14
Angular grids for H and He will be reduced by one unit
Partially contracted basis set               ... off
Rotationally invariant grid construction     ... off

Total number of grid points                  ...    48313
Total number of batches                      ...      761
Average number of points per batch           ...       63
Average number of grid points per atom       ...     4392
Time for grid setup =    0.286 sec

--------------
SCF ITERATIONS
--------------
ITER       Energy         Delta-E        Max-DP      RMS-DP      [F,P]     Damp
               ***  Starting incremental Fock matrix formation  ***
  0   -172.8156823869   0.000000000000 0.18578592  0.00429526  0.2165472 0.7000
  1   -172.9245139995  -0.108831612563 0.09554951  0.00287420  0.0985825 0.7000
                               ***Turning on DIIS***
  2   -172.9614432868  -0.036929287320 0.21627122  0.00520366  0.0272157 0.0000
  3   -173.0108549169  -0.049411630105 0.04351789  0.00164146  0.0682960 0.0000
  4   -173.0305317629  -0.019676845987 0.02912120  0.00080729  0.0163697 0.0000
  5   -173.0320328726  -0.001501109667 0.01245150  0.00038862  0.0069214 0.0000
                      *** Initiating the SOSCF procedure ***
                           *** Shutting down DIIS ***
                      *** Re-Reading the Fockian *** 
                      *** Removing any level shift *** 
ITER      Energy       Delta-E        Grad      Rot      Max-DP    RMS-DP
  6   -173.03217564  -0.0001427650  0.000658  0.000658  0.007720  0.000194
               *** Restarting incremental Fock matrix formation ***
  7   -173.03219328  -0.0000176430  0.000196  0.001076  0.004150  0.000125
  8   -173.03219457  -0.0000012882  0.000141  0.000144  0.000896  0.000028
  9   -173.03219513  -0.0000005637  0.000055  0.000286  0.000990  0.000025
 10   -173.03219527  -0.0000001357  0.000033  0.000147  0.000221  0.000005
 11   -173.03219527   0.0000000013  0.000036  0.000044  0.000071  0.000003
 12   -173.03219528  -0.0000000103  0.000011  0.000019  0.000093  0.000002
                 **** Energy Check signals convergence ****
              ***Rediagonalizing the Fockian in SOSCF/NRSCF***

               *****************************************************
               *                     SUCCESS                       *
               *           SCF CONVERGED AFTER  13 CYCLES          *
               *****************************************************


----------------
TOTAL SCF ENERGY
----------------

Total Energy       :         -173.03219528 Eh           -4708.44541 eV

Components:
Nuclear Repulsion  :          124.81007996 Eh            3396.25494 eV
Electronic Energy  :         -297.84227523 Eh           -8104.70034 eV
One Electron Energy:         -478.97783971 Eh          -13033.64964 eV
Two Electron Energy:          181.13556447 Eh            4928.94929 eV

Virial components:
Potential Energy   :         -344.75774096 Eh           -9381.33507 eV
Kinetic Energy     :          171.72554568 Eh            4672.88966 eV
Virial Ratio       :            2.00760894


DFT components:
N(Alpha)           :       16.000021029645 electrons
N(Beta)            :       16.000021029645 electrons
N(Total)           :       32.000042059289 electrons
E(X)               :      -24.759068565167 Eh       
E(C)               :       -1.047922774266 Eh       
E(XC)              :      -25.806991339433 Eh       
DFET-embed. en.    :        0.000000000000 Eh       

---------------
SCF CONVERGENCE
---------------

  Last Energy change         ...   -2.4426e-09  Tolerance :   1.0000e-08
  Last MAX-Density change    ...    1.7200e-05  Tolerance :   1.0000e-07
  Last RMS-Density change    ...    8.4100e-07  Tolerance :   5.0000e-09
  Last Orbital Gradient      ...    4.0514e-06  Tolerance :   1.0000e-05
  Last Orbital Rotation      ...    8.2102e-06  Tolerance :   1.0000e-05

             **** THE GBW FILE WAS UPDATED (18Feb_SVPD_BLYP_C1_wt_wb97_typm1_pos.gbw) ****
             **** DENSITY 18Feb_SVPD_BLYP_C1_wt_wb97_typm1_pos.scfp WAS UPDATED ****
             **** ENERGY FILE WAS UPDATED (18Feb_SVPD_BLYP_C1_wt_wb97_typm1_pos.en.tmp) ****
             **** THE GBW FILE WAS UPDATED (18Feb_SVPD_BLYP_C1_wt_wb97_typm1_pos.gbw) ****
             **** DENSITY 18Feb_SVPD_BLYP_C1_wt_wb97_typm1_pos.scfp WAS UPDATED ****
----------------
ORBITAL ENERGIES
----------------

  NO   OCC          E(Eh)            E(eV) 
   0   2.0000     -14.026164      -381.6713 
   1   2.0000      -9.937244      -270.4061 
   2   2.0000      -9.916248      -269.8348 
   3   2.0000      -9.851667      -268.0775 
   4   2.0000      -0.838483       -22.8163 
   5   2.0000      -0.672206       -18.2917 
   6   2.0000      -0.614066       -16.7096 
   7   2.0000      -0.503244       -13.6940 
   8   2.0000      -0.477122       -12.9832 
   9   2.0000      -0.413285       -11.2461 
  10   2.0000      -0.380723       -10.3600 
  11   2.0000      -0.352618        -9.5952 
  12   2.0000      -0.341547        -9.2940 
  13   2.0000      -0.312297        -8.4980 
  14   2.0000      -0.289460        -7.8766 
  15   2.0000      -0.151501        -4.1225 
  16   0.0000      -0.003199        -0.0870 
  17   0.0000       0.016126         0.4388 
  18   0.0000       0.035380         0.9627 
  19   0.0000       0.041959         1.1418 
  20   0.0000       0.069847         1.9006 
  21   0.0000       0.081161         2.2085 
  22   0.0000       0.095632         2.6023 
  23   0.0000       0.105004         2.8573 
  24   0.0000       0.110043         2.9944 
  25   0.0000       0.119839         3.2610 
  26   0.0000       0.146277         3.9804 
  27   0.0000       0.169972         4.6252 
  28   0.0000       0.173299         4.7157 
  29   0.0000       0.185106         5.0370 
  30   0.0000       0.187804         5.1104 
  31   0.0000       0.199547         5.4300 
  32   0.0000       0.213295         5.8040 
  33   0.0000       0.217803         5.9267 
  34   0.0000       0.265399         7.2219 
  35   0.0000       0.272290         7.4094 
  36   0.0000       0.281172         7.6511 
  37   0.0000       0.288728         7.8567 
  38   0.0000       0.296733         8.0745 
  39   0.0000       0.309092         8.4108 
  40   0.0000       0.321212         8.7406 
  41   0.0000       0.338164         9.2019 
  42   0.0000       0.343894         9.3578 
  43   0.0000       0.348485         9.4828 
  44   0.0000       0.356967         9.7136 
  45   0.0000       0.359112         9.7719 
  46   0.0000       0.372805        10.1445 
  47   0.0000       0.379560        10.3284 
  48   0.0000       0.388482        10.5711 
  49   0.0000       0.393912        10.7189 
  50   0.0000       0.411870        11.2075 
  51   0.0000       0.424224        11.5437 
  52   0.0000       0.434754        11.8302 
  53   0.0000       0.441679        12.0187 
  54   0.0000       0.455631        12.3983 
  55   0.0000       0.460241        12.5238 
  56   0.0000       0.481489        13.1020 
  57   0.0000       0.487293        13.2599 
  58   0.0000       0.497734        13.5440 
  59   0.0000       0.516258        14.0481 
  60   0.0000       0.529128        14.3983 
  61   0.0000       0.532618        14.4933 
  62   0.0000       0.535204        14.5637 
  63   0.0000       0.550708        14.9855 
  64   0.0000       0.560858        15.2617 
  65   0.0000       0.588659        16.0182 
  66   0.0000       0.600622        16.3438 
  67   0.0000       0.614256        16.7148 
  68   0.0000       0.654639        17.8136 
  69   0.0000       0.664040        18.0694 
  70   0.0000       0.714631        19.4461 
  71   0.0000       0.741557        20.1788 
  72   0.0000       0.805290        21.9130 
  73   0.0000       0.853630        23.2285 
  74   0.0000       0.885234        24.0885 
  75   0.0000       0.902532        24.5592 
  76   0.0000       0.922925        25.1141 
  77   0.0000       0.930891        25.3308 
  78   0.0000       0.933247        25.3950 
  79   0.0000       0.964379        26.2421 
  80   0.0000       0.994264        27.0553 
  81   0.0000       1.011929        27.5360 
  82   0.0000       1.054203        28.6863 
  83   0.0000       1.066198        29.0127 
  84   0.0000       1.077327        29.3156 
  85   0.0000       1.108542        30.1650 
  86   0.0000       1.155890        31.4534 
  87   0.0000       1.172929        31.9170 
  88   0.0000       1.186134        32.2763 
  89   0.0000       1.241160        33.7737 
  90   0.0000       1.266418        34.4610 
  91   0.0000       1.381890        37.6031 
  92   0.0000       1.482718        40.3468 
  93   0.0000       1.493541        40.6413 
  94   0.0000       1.507573        41.0232 
  95   0.0000       1.544206        42.0200 
  96   0.0000       1.556070        42.3428 
  97   0.0000       1.621268        44.1170 
  98   0.0000       1.633791        44.4577 
  99   0.0000       1.688496        45.9463 
 100   0.0000       1.694325        46.1049 
 101   0.0000       1.730033        47.0766 
 102   0.0000       1.773483        48.2589 
 103   0.0000       1.848135        50.2903 
 104   0.0000       1.868147        50.8349 
 105   0.0000       1.888226        51.3812 
 106   0.0000       1.929253        52.4976 
 107   0.0000       1.935554        52.6691 
 108   0.0000       1.944252        52.9058 
 109   0.0000       1.991641        54.1953 
 110   0.0000       2.027780        55.1787 
 111   0.0000       2.052138        55.8415 
 112   0.0000       2.092029        56.9270 
 113   0.0000       2.110540        57.4307 
 114   0.0000       2.191173        59.6248 
 115   0.0000       2.227270        60.6071 
 116   0.0000       2.291276        62.3488 
 117   0.0000       2.326160        63.2980 
 118   0.0000       2.344022        63.7841 
 119   0.0000       2.373871        64.5963 
 120   0.0000       2.462763        67.0152 
 121   0.0000       2.516895        68.4882 
 122   0.0000       2.523856        68.6776 
 123   0.0000       2.569610        69.9226 
 124   0.0000       2.635111        71.7050 
 125   0.0000       2.693235        73.2867 
 126   0.0000       2.789469        75.9053 
 127   0.0000       2.882109        78.4262 
 128   0.0000       2.973187        80.9045 
 129   0.0000       3.013912        82.0127 
 130   0.0000       3.067941        83.4829 
 131   0.0000       3.135766        85.3285 
 132   0.0000       3.218524        87.5805 
 133   0.0000       3.248350        88.3921 
 134   0.0000       3.471050        94.4521 
 135   0.0000       3.586490        97.5934 

                    ********************************
                    * MULLIKEN POPULATION ANALYSIS *
                    ********************************

-----------------------
MULLIKEN ATOMIC CHARGES
-----------------------
   0 C :    1.202555
   1 C :   -0.589064
   2 C :    0.683128
   3 N :    0.431176
   4 H :   -0.202031
   5 H :   -0.123291
   6 H :   -0.371064
   7 H :   -0.531383
   8 H :   -0.242378
   9 H :   -0.110900
  10 H :   -0.146749
Sum of atomic charges:   -0.0000000

--------------------------------
MULLIKEN REDUCED ORBITAL CHARGES
--------------------------------
  0 C s       :     2.020309  s :     2.020309
      pz      :     0.910982  p :     2.727219
      px      :     1.027388
      py      :     0.788849
      dz2     :     0.024436  d :     0.049917
      dxz     :     0.019229
      dyz     :    -0.010390
      dx2y2   :     0.013053
      dxy     :     0.003589
  1 C s       :     2.969546  s :     2.969546
      pz      :     0.888173  p :     2.776015
      px      :     0.947950
      py      :     0.939892
      dz2     :     0.119017  d :     0.843503
      dxz     :     0.152305
      dyz     :     0.107198
      dx2y2   :     0.369752
      dxy     :     0.095231
  2 C s       :     2.832072  s :     2.832072
      pz      :     0.998530  p :     2.376394
      px      :     0.629230
      py      :     0.748633
      dz2     :    -0.002473  d :     0.108406
      dxz     :     0.031805
      dyz     :     0.014545
      dx2y2   :     0.079103
      dxy     :    -0.014574
  3 N s       :     3.065611  s :     3.065611
      pz      :     1.493641  p :     3.475822
      px      :     1.039515
      py      :     0.942665
      dz2     :     0.008747  d :     0.027391
      dxz     :    -0.001559
      dyz     :     0.013992
      dx2y2   :     0.003892
      dxy     :     0.002318
  4 H s       :     1.150476  s :     1.150476
      pz      :     0.053083  p :     0.051555
      px      :    -0.015667
      py      :     0.014139
  5 H s       :     1.098221  s :     1.098221
      pz      :     0.057712  p :     0.025070
      px      :     0.008188
      py      :    -0.040829
  6 H s       :     1.373424  s :     1.373424
      pz      :     0.044057  p :    -0.002361
      px      :    -0.059306
      py      :     0.012888
  7 H s       :     1.461082  s :     1.461082
      pz      :     0.047126  p :     0.070301
      px      :     0.026234
      py      :    -0.003059
  8 H s       :     1.118327  s :     1.118327
      pz      :    -0.004833  p :     0.124051
      px      :     0.020854
      py      :     0.108029
  9 H s       :     1.075468  s :     1.075468
      pz      :     0.049163  p :     0.035432
      px      :     0.014993
      py      :    -0.028725
 10 H s       :     1.103782  s :     1.103782
      pz      :     0.031618  p :     0.042967
      px      :     0.021640
      py      :    -0.010292


                     *******************************
                     * LOEWDIN POPULATION ANALYSIS *
                     *******************************

----------------------
LOEWDIN ATOMIC CHARGES
----------------------
   0 C :    0.184914
   1 C :   -0.295079
   2 C :    0.169688
   3 N :    0.183402
   4 H :   -0.004681
   5 H :   -0.002200
   6 H :   -0.080777
   7 H :   -0.095825
   8 H :   -0.033770
   9 H :   -0.012848
  10 H :   -0.012824

-------------------------------
LOEWDIN REDUCED ORBITAL CHARGES
-------------------------------
  0 C s       :     2.704335  s :     2.704335
      pz      :     0.924618  p :     2.744490
      px      :     0.902461
      py      :     0.917411
      dz2     :     0.065180  d :     0.366261
      dxz     :     0.089943
      dyz     :     0.060604
      dx2y2   :     0.066703
      dxy     :     0.083831
  1 C s       :     2.666200  s :     2.666200
      pz      :     0.788786  p :     2.596834
      px      :     0.879080
      py      :     0.928969
      dz2     :     0.128210  d :     1.032045
      dxz     :     0.132804
      dyz     :     0.246568
      dx2y2   :     0.264900
      dxy     :     0.259562
  2 C s       :     2.734390  s :     2.734390
      pz      :     0.908145  p :     2.758345
      px      :     0.916831
      py      :     0.933368
      dz2     :     0.038188  d :     0.337577
      dxz     :     0.039463
      dyz     :     0.055254
      dx2y2   :     0.124597
      dxy     :     0.080074
  3 N s       :     2.929944  s :     2.929944
      pz      :     1.326088  p :     3.505455
      px      :     1.095597
      py      :     1.083770
      dz2     :     0.027775  d :     0.381199
      dxz     :     0.024836
      dyz     :     0.098310
      dx2y2   :     0.128161
      dxy     :     0.102117
  4 H s       :     0.663585  s :     0.663585
      pz      :     0.129698  p :     0.341095
      px      :     0.096714
      py      :     0.114684
  5 H s       :     0.653023  s :     0.653023
      pz      :     0.114250  p :     0.349177
      px      :     0.146778
      py      :     0.088149
  6 H s       :     0.769877  s :     0.769877
      pz      :     0.108604  p :     0.310900
      px      :     0.087378
      py      :     0.114919
  7 H s       :     0.767126  s :     0.767126
      pz      :     0.109997  p :     0.328699
      px      :     0.127295
      py      :     0.091407
  8 H s       :     0.745755  s :     0.745755
      pz      :     0.079974  p :     0.288015
      px      :     0.078532
      py      :     0.129509
  9 H s       :     0.735904  s :     0.735904
      pz      :     0.098039  p :     0.276944
      px      :     0.092463
      py      :     0.086443
 10 H s       :     0.736402  s :     0.736402
      pz      :     0.109569  p :     0.276422
      px      :     0.072781
      py      :     0.094072


                      *****************************
                      * MAYER POPULATION ANALYSIS *
                      *****************************

  NA   - Mulliken gross atomic population
  ZA   - Total nuclear charge
  QA   - Mulliken gross atomic charge
  VA   - Mayer's total valence
  BVA  - Mayer's bonded valence
  FA   - Mayer's free valence

  ATOM       NA         ZA         QA         VA         BVA        FA
  0 C      4.7974     6.0000     1.2026     3.2192     3.2192    -0.0000
  1 C      6.5891     6.0000    -0.5891     5.4514     5.4514    -0.0000
  2 C      5.3169     6.0000     0.6831     3.4973     3.4973    -0.0000
  3 N      6.5688     7.0000     0.4312     3.9605     3.9605    -0.0000
  4 H      1.2020     1.0000    -0.2020     0.9877     0.9877     0.0000
  5 H      1.1233     1.0000    -0.1233     0.8816     0.8816     0.0000
  6 H      1.3711     1.0000    -0.3711     0.8737     0.8737    -0.0000
  7 H      1.5314     1.0000    -0.5314     0.9577     0.9577    -0.0000
  8 H      1.2424     1.0000    -0.2424     1.2030     1.2030     0.0000
  9 H      1.1109     1.0000    -0.1109     1.0478     1.0478     0.0000
 10 H      1.1467     1.0000    -0.1467     1.0614     1.0614    -0.0000

  Mayer bond orders larger than 0.100000
B(  0-C ,  1-C ) :   1.1745 B(  0-C ,  3-N ) :   0.1092 B(  0-C ,  8-H ) :   0.5483 
B(  0-C ,  9-H ) :   0.6140 B(  0-C , 10-H ) :   0.6893 B(  1-C ,  2-C ) :   1.7164 
B(  1-C ,  3-N ) :   1.2174 B(  1-C ,  6-H ) :   0.1455 B(  1-C ,  7-H ) :   0.3213 
B(  1-C ,  8-H ) :   0.4259 B(  1-C ,  9-H ) :   0.2786 B(  1-C , 10-H ) :   0.2131 
B(  2-C ,  3-N ) :   0.3046 B(  2-C ,  6-H ) :   0.7253 B(  2-C ,  7-H ) :   0.6109 
B(  3-N ,  4-H ) :   1.1247 B(  3-N ,  5-H ) :   1.1131 B(  4-H ,  5-H ) :  -0.1394 


-------
TIMINGS
-------

Total SCF time: 0 days 0 hours 0 min 3 sec 

Total time                  ....       3.287 sec
Sum of individual times     ....       3.140 sec  ( 95.5%)

Fock matrix formation       ....       2.579 sec  ( 78.4%)
  Split-RI-J                ....       0.473 sec  ( 18.4% of F)
  XC integration            ....       2.082 sec  ( 80.7% of F)
    Basis function eval.    ....       0.725 sec  ( 34.9% of XC)
    Density eval.           ....       0.456 sec  ( 21.9% of XC)
    XC-Functional eval.     ....       0.117 sec  (  5.6% of XC)
    XC-Potential eval.      ....       0.639 sec  ( 30.7% of XC)
Diagonalization             ....       0.030 sec  (  0.9%)
Density matrix formation    ....       0.002 sec  (  0.1%)
Population analysis         ....       0.005 sec  (  0.2%)
Initial guess               ....       0.117 sec  (  3.6%)
Orbital Transformation      ....       0.000 sec  (  0.0%)
Orbital Orthonormalization  ....       0.000 sec  (  0.0%)
DIIS solution               ....       0.020 sec  (  0.6%)
SOSCF solution              ....       0.021 sec  (  0.6%)
Grid generation             ....       0.365 sec  ( 11.1%)

Maximum memory used throughout the entire SCF-calculation: 15.1 MB


-------------------------------------------------------------------------------
                          DFT DISPERSION CORRECTION                            
                                                                               
                              DFTD3 V3.1  Rev 1                                
                          USING Becke-Johnson damping                          
-------------------------------------------------------------------------------
The BLYP functional is recognized
Active option DFTDOPT                   ...         4   

molecular C6(AA) [au] = 932.957257 


            DFT-D V3
 parameters
 s6 scaling factor         :     1.0000 
 a1 scaling factor         :     0.4298 
 s8 scaling factor         :     2.6996 
 a2 scaling factor         :     4.2359 
 ad hoc parameters k1-k3   :    16.0000     1.3333    -4.0000 

 Edisp/kcal,au: -9.372979883887  -0.014936792625 
 E6   /kcal   :  -3.876579657 
 E8   /kcal   :  -5.496400227 
 % E8         :  58.640904972 

-------------------------   ----------------
Dispersion correction           -0.014936793
-------------------------   ----------------


-------------------------   --------------------
FINAL SINGLE POINT ENERGY      -173.047132072135
-------------------------   --------------------


                            ***************************************
                            *     ORCA property calculations      *
                            ***************************************

                                    ---------------------
                                    Active property flags
                                    ---------------------
   (+) Dipole Moment


------------------------------------------------------------------------------
                       ORCA ELECTRIC PROPERTIES CALCULATION
------------------------------------------------------------------------------

Dipole Moment Calculation                       ... on
Quadrupole Moment Calculation                   ... off
Polarizability Calculation                      ... off
GBWName                                         ... 18Feb_SVPD_BLYP_C1_wt_wb97_typm1_pos.gbw
Electron density file                           ... 18Feb_SVPD_BLYP_C1_wt_wb97_typm1_pos.scfp
The origin for moment calculation is the CENTER OF MASS  = ( 5.825757, -0.660989 -1.407540)

-------------
DIPOLE MOMENT
-------------
                                X             Y             Z
Electronic contribution:     -1.01849      -1.15871       0.68247
Nuclear contribution   :      1.07959       0.48266      -1.05101
                        -----------------------------------------
Total Dipole Moment    :      0.06110      -0.67604      -0.36854
                        -----------------------------------------
Magnitude (a.u.)       :      0.77240
Magnitude (Debye)      :      1.96327



--------------------
Rotational spectrum 
--------------------
 
Rotational constants in cm-1:     0.369235     0.294626     0.169175 
Rotational constants in MHz : 11069.394850  8832.653024  5071.734673 

 Dipole components along the rotational axes: 
x,y,z [a.u.] :    -0.017701    -0.736510    -0.232023 
x,y,z [Debye]:    -0.044993    -1.872058    -0.589756 

 

Timings for individual modules:

Sum of individual times         ...        4.079 sec (=   0.068 min)
GTO integral calculation        ...        0.470 sec (=   0.008 min)  11.5 %
SCF iterations                  ...        3.610 sec (=   0.060 min)  88.5 %
                             ****ORCA TERMINATED NORMALLY****
TOTAL RUN TIME: 0 days 0 hours 0 minutes 4 seconds 604 msec
