
                                        *****************
                                        * O   R   C   A *
                                        *****************

                                            #,                                       
                                            ###                                      
                                            ####                                     
                                            #####                                    
                                            ######                                   
                                           ########,                                 
                                     ,,################,,,,,                         
                               ,,#################################,,                 
                          ,,##########################################,,             
                       ,#########################################, ''#####,          
                    ,#############################################,,   '####,        
                  ,##################################################,,,,####,       
                ,###########''''           ''''###############################       
              ,#####''   ,,,,##########,,,,          '''####'''          '####       
            ,##' ,,,,###########################,,,                        '##       
           ' ,,###''''                  '''############,,,                           
         ,,##''                                '''############,,,,        ,,,,,,###''
      ,#''                                            '''#######################'''  
     '                                                          ''''####''''         
             ,#######,   #######,   ,#######,      ##                                
            ,#'     '#,  ##    ##  ,#'     '#,    #''#        ######   ,####,        
            ##       ##  ##   ,#'  ##            #'  '#       #        #'  '#        
            ##       ##  #######   ##           ,######,      #####,   #    #        
            '#,     ,#'  ##    ##  '#,     ,#' ,#      #,         ##   #,  ,#        
             '#######'   ##     ##  '#######'  #'      '#     #####' # '####'        



                  #######################################################
                  #                        -***-                        #
                  #          Department of theory and spectroscopy      #
                  #    Directorship and core code : Frank Neese         #
                  #        Max Planck Institute fuer Kohlenforschung    #
                  #                Kaiser Wilhelm Platz 1               #
                  #                 D-45470 Muelheim/Ruhr               #
                  #                      Germany                        #
                  #                                                     #
                  #                  All rights reserved                #
                  #                        -***-                        #
                  #######################################################


                         Program Version 5.0.0 -  RELEASE  -
                                (SVN: $Rev: 19529$)
                ($Date: 2021-06-28 11:36:33 +0200 (Mo, 28 Jun 2021) $)


 With contributions from (in alphabetic order):
   Daniel Aravena         : Magnetic Suceptibility
   Michael Atanasov       : Ab Initio Ligand Field Theory (pilot matlab implementation)
   Alexander A. Auer      : GIAO ZORA, VPT2 properties, NMR spectrum
   Ute Becker             : Parallelization
   Giovanni Bistoni       : ED, misc. LED, open-shell LED, HFLD
   Martin Brehm           : Molecular dynamics
   Dmytro Bykov           : SCF Hessian
   Vijay G. Chilkuri      : MRCI spin determinant printing, contributions to CSF-ICE
   Dipayan Datta          : RHF DLPNO-CCSD density
   Achintya Kumar Dutta   : EOM-CC, STEOM-CC
   Dmitry Ganyushin       : Spin-Orbit,Spin-Spin,Magnetic field MRCI
   Miquel Garcia          : C-PCM Hessian, Gaussian charge scheme
   Yang Guo               : DLPNO-NEVPT2, F12-NEVPT2, CIM, IAO-localization
   Andreas Hansen         : Spin unrestricted coupled pair/coupled cluster methods
   Benjamin Helmich-Paris : MC-RPA, TRAH-SCF, COSX integrals
   Lee Huntington         : MR-EOM, pCC
   Robert Izsak           : Overlap fitted RIJCOSX, COSX-SCS-MP3, EOM
   Marcus Kettner         : VPT2
   Christian Kollmar      : KDIIS, OOCD, Brueckner-CCSD(T), CCSD density, CASPT2, CASPT2-K
   Simone Kossmann        : Meta GGA functionals, TD-DFT gradient, OOMP2, MP2 Hessian
   Martin Krupicka        : Initial AUTO-CI
   Lucas Lang             : DCDCAS
   Marvin Lechner         : AUTO-CI (C++ implementation), FIC-MRCC
   Dagmar Lenk            : GEPOL surface, SMD
   Dimitrios Liakos       : Extrapolation schemes; Compound Job, initial MDCI parallelization
   Dimitrios Manganas     : Further ROCIS development; embedding schemes
   Dimitrios Pantazis     : SARC Basis sets
   Anastasios Papadopoulos: AUTO-CI, single reference methods and gradients
   Taras Petrenko         : DFT Hessian,TD-DFT gradient, ASA, ECA, R-Raman, ABS, FL, XAS/XES, NRVS
   Peter Pinski           : DLPNO-MP2, DLPNO-MP2 Gradient
   Christoph Reimann      : Effective Core Potentials
   Marius Retegan         : Local ZFS, SOC
   Christoph Riplinger    : Optimizer, TS searches, QM/MM, DLPNO-CCSD(T), (RO)-DLPNO pert. Triples
   Tobias Risthaus        : Range-separated hybrids, TD-DFT gradient, RPA, STAB
   Michael Roemelt        : Original ROCIS implementation
   Masaaki Saitow         : Open-shell DLPNO-CCSD energy and density
   Barbara Sandhoefer     : DKH picture change effects
   Avijit Sen             : IP-ROCIS
   Kantharuban Sivalingam : CASSCF convergence, NEVPT2, FIC-MRCI
   Bernardo de Souza      : ESD, SOC TD-DFT
   Georgi Stoychev        : AutoAux, RI-MP2 NMR
   Willem Van den Heuvel  : Paramagnetic NMR
   Boris Wezisla          : Elementary symmetry handling
   Frank Wennmohs         : Technical directorship


 We gratefully acknowledge several colleagues who have allowed us to
 interface, adapt or use parts of their codes:
   Stefan Grimme, W. Hujo, H. Kruse, P. Pracht,  : VdW corrections, initial TS optimization,
                  C. Bannwarth, S. Ehlert          DFT functionals, gCP, sTDA/sTD-DF
   Ed Valeev, F. Pavosevic, A. Kumar             : LibInt (2-el integral package), F12 methods
   Garnet Chan, S. Sharma, J. Yang, R. Olivares  : DMRG
   Ulf Ekstrom                                   : XCFun DFT Library
   Mihaly Kallay                                 : mrcc  (arbitrary order and MRCC methods)
   Jiri Pittner, Ondrej Demel                    : Mk-CCSD
   Frank Weinhold                                : gennbo (NPA and NBO analysis)
   Christopher J. Cramer and Donald G. Truhlar   : smd solvation model
   Lars Goerigk                                  : TD-DFT with DH, B97 family of functionals
   V. Asgeirsson, H. Jonsson                     : NEB implementation
   FAccTs GmbH                                   : IRC, NEB, NEB-TS, DLPNO-Multilevel, CI-OPT
                                                   MM, QMMM, 2- and 3-layer-ONIOM, Crystal-QMMM,
                                                   LR-CPCM, SF, NACMEs, symmetry and pop. for TD-DFT,
                                                   nearIR, NL-DFT gradient (VV10), updates on ESD,
                                                   ML-optimized integration grids
   S Lehtola, MJT Oliveira, MAL Marques          : LibXC Library
   Liviu Ungur et al                             : ANISO software


 Your calculation uses the libint2 library for the computation of 2-el integrals
 For citations please refer to: http://libint.valeyev.net

 Your ORCA version has been built with support for libXC version: 5.1.0
 For citations please refer to: https://tddft.org/programs/libxc/

 This ORCA versions uses:
   CBLAS   interface :  Fast vector & matrix operations
   LAPACKE interface :  Fast linear algebra routines
   SCALAPACK package :  Parallel linear algebra routines
   Shared memory     :  Shared parallel matrices
   BLAS/LAPACK       :  OpenBLAS 0.3.15  USE64BITINT DYNAMIC_ARCH NO_AFFINITY Haswell SINGLE_THREADED
        Core in use  :  Haswell
   Copyright (c) 2011-2014, The OpenBLAS Project


XCFun DFT library Copyright 2009-2010 Ulf Ekstrom and contributors.
See http://admol.org/xcfun for more information.
This is free software; see the source code for copying conditions.
There is ABSOLUTELY NO WARRANTY; not even for MERCHANTABILITY or FITNESS FOR A PARTICULAR PURPOSE.
For details see the documentation.
Scientific users of this library should cite U. Ekstrom, L. Visscher, R. Bast, A. J. Thorvaldsen and K. Ruud;
J.Chem.Theor.Comp. 2010, DOI: 10.1021/ct100117s
XCFun Version 0.99 

================================================================================

----- Orbital basis set information -----
Your calculation utilizes the basis: def2-SVPD
   F. Weigend and R. Ahlrichs, Phys. Chem. Chem. Phys. 7, 3297 (2005).
   D. Rappoport and F. Furche, J. Chem. Phys. 133 134105 (2010).

----- AuxJ basis set information -----
Your calculation utilizes the auxiliary basis: def2/J
   F. Weigend, Phys. Chem. Chem. Phys. 8, 1057 (2006).

================================================================================
                                        WARNINGS
                       Please study these warnings very carefully!
================================================================================


INFO   : the flag for use of the SHARK integral package has been found!

================================================================================
                                       INPUT FILE
================================================================================
NAME = 14Feb_SVPD_CAMB3LYP_A_wt_wb97_typ1_neg.com
|  1> !CAM-B3LYP RIJCOSX def2-SVPD def2/J TightSCF 
|  2> *xyz -1 1 
|  3> C         -0.95121        1.33498       -0.97250
|  4> C         -0.77455        2.78833       -0.54394
|  5> H         -1.35261        3.45937       -1.19259
|  6> H         -1.17101        2.90233        0.46997
|  7> C          0.69721        3.22791       -0.52513
|  8> O          1.48929        2.37470        0.19919
|  9> H          0.71600        4.26403       -0.13077
| 10> H          1.03615        3.33092       -1.58367
| 11> H         -0.56808        1.20618       -1.96322
| 12> H         -1.99081        1.08225       -0.95647
| 13> H         -0.41866        0.69710       -0.29841
| 14> *
| 15> 
| 16> %MaxCore 64000
| 17> %pal nprocs 4
| 18> end  
| 19> 
| 20> %scf
| 21>   MaxIter 150
| 22> end
| 23> 
| 24> 
| 25>                          ****END OF INPUT****
================================================================================

                       ****************************
                       * Single Point Calculation *
                       ****************************

---------------------------------
CARTESIAN COORDINATES (ANGSTROEM)
---------------------------------
  C     -0.951210    1.334980   -0.972500
  C     -0.774550    2.788330   -0.543940
  H     -1.352610    3.459370   -1.192590
  H     -1.171010    2.902330    0.469970
  C      0.697210    3.227910   -0.525130
  O      1.489290    2.374700    0.199190
  H      0.716000    4.264030   -0.130770
  H      1.036150    3.330920   -1.583670
  H     -0.568080    1.206180   -1.963220
  H     -1.990810    1.082250   -0.956470
  H     -0.418660    0.697100   -0.298410

----------------------------
CARTESIAN COORDINATES (A.U.)
----------------------------
  NO LB      ZA    FRAG     MASS         X           Y           Z
   0 C     6.0000    0    12.011   -1.797526    2.522747   -1.837759
   1 C     6.0000    0    12.011   -1.463687    5.269180   -1.027898
   2 H     1.0000    0     1.008   -2.556062    6.537262   -2.253668
   3 H     1.0000    0     1.008   -2.212888    5.484609    0.888115
   4 C     6.0000    0    12.011    1.317536    6.099866   -0.992352
   5 O     8.0000    0    15.999    2.814350    4.487533    0.376415
   6 H     1.0000    0     1.008    1.353044    8.057849   -0.247119
   7 H     1.0000    0     1.008    1.958040    6.294527   -2.992703
   8 H     1.0000    0     1.008   -1.073516    2.279350   -3.709948
   9 H     1.0000    0     1.008   -3.762086    2.045156   -1.807466
  10 H     1.0000    0     1.008   -0.791153    1.317328   -0.563913

--------------------------------
INTERNAL COORDINATES (ANGSTROEM)
--------------------------------
 C      0   0   0     0.000000000000     0.00000000     0.00000000
 C      1   0   0     1.525483087976     0.00000000     0.00000000
 H      2   1   0     1.097813676222   110.81662298     0.00000000
 H      2   1   3     1.094618664056   108.51165715   117.24341890
 C      2   1   3     1.536119100233   112.76954078   236.60756609
 O      5   2   1     1.371130005835   112.45015817   308.05761124
 H      5   2   1     1.108791020932   106.73819398   184.14556847
 H      5   2   1     1.116242946361   107.80133579    72.66056267
 H      1   2   3     1.070001941727   109.47124826    62.75669464
 H      1   2   3     1.069998866261   109.47132016   302.75675043
 H      1   2   3     1.069998936915   109.47145062   182.75724067

---------------------------
INTERNAL COORDINATES (A.U.)
---------------------------
 C      0   0   0     0.000000000000     0.00000000     0.00000000
 C      1   0   0     2.882745258203     0.00000000     0.00000000
 H      2   1   0     2.074567194133   110.81662298     0.00000000
 H      2   1   3     2.068529496145   108.51165715   117.24341890
 C      2   1   3     2.902844408526   112.76954078   236.60756609
 O      5   2   1     2.591060205029   112.45015817   308.05761124
 H      5   2   1     2.095311369313   106.73819398   184.14556847
 H      5   2   1     2.109393467543   107.80133579    72.66056267
 H      1   2   3     2.022010632628   109.47124826    62.75669464
 H      1   2   3     2.022004820840   109.47132016   302.75675043
 H      1   2   3     2.022004954357   109.47145062   182.75724067

---------------------
BASIS SET INFORMATION
---------------------
There are 3 groups of distinct atoms

 Group   1 Type C   : 8s4p2d contracted to 4s2p2d pattern {5111/31/11}
 Group   2 Type H   : 4s2p contracted to 2s2p pattern {31/11}
 Group   3 Type O   : 8s5p2d contracted to 4s3p2d pattern {5111/311/11}

Atom   0C    basis set group =>   1
Atom   1C    basis set group =>   1
Atom   2H    basis set group =>   2
Atom   3H    basis set group =>   2
Atom   4C    basis set group =>   1
Atom   5O    basis set group =>   3
Atom   6H    basis set group =>   2
Atom   7H    basis set group =>   2
Atom   8H    basis set group =>   2
Atom   9H    basis set group =>   2
Atom  10H    basis set group =>   2
---------------------------------
AUXILIARY/J BASIS SET INFORMATION
---------------------------------
There are 3 groups of distinct atoms

 Group   1 Type C   : 12s5p4d2f1g contracted to 6s4p3d1f1g pattern {711111/2111/211/2/1}
 Group   2 Type H   : 5s2p1d contracted to 3s1p1d pattern {311/2/1}
 Group   3 Type O   : 12s5p4d2f1g contracted to 6s4p3d1f1g pattern {711111/2111/211/2/1}

Atom   0C    basis set group =>   1
Atom   1C    basis set group =>   1
Atom   2H    basis set group =>   2
Atom   3H    basis set group =>   2
Atom   4C    basis set group =>   1
Atom   5O    basis set group =>   3
Atom   6H    basis set group =>   2
Atom   7H    basis set group =>   2
Atom   8H    basis set group =>   2
Atom   9H    basis set group =>   2
Atom  10H    basis set group =>   2


           ************************************************************
           *        Program running with 4 parallel MPI-processes     *
           *              working on a common directory               *
           ************************************************************
------------------------------------------------------------------------------
                           ORCA GTO INTEGRAL CALCULATION
                           -- RI-GTO INTEGRALS CHOSEN --
------------------------------------------------------------------------------
------------------------------------------------------------------------------
                   ___                                                        
                  /   \      - P O W E R E D   B Y -                         
                 /     \                                                     
                 |  |  |   _    _      __       _____    __    __             
                 |  |  |  | |  | |    /  \     |  _  \  |  |  /  |          
                  \  \/   | |  | |   /    \    | | | |  |  | /  /          
                 / \  \   | |__| |  /  /\  \   | |_| |  |  |/  /          
                |  |  |   |  __  | /  /__\  \  |    /   |      \           
                |  |  |   | |  | | |   __   |  |    \   |  |\   \          
                \     /   | |  | | |  |  |  |  | |\  \  |  | \   \       
                 \___/    |_|  |_| |__|  |__|  |_| \__\ |__|  \__/        
                                                                              
                      - O R C A' S   B I G   F R I E N D -                    
                                      &                                       
                       - I N T E G R A L  F E E D E R -                       
                                                                              
 v1 FN, 2020, v2 2021                                                         
------------------------------------------------------------------------------


Reading SHARK input file 14Feb_SVPD_CAMB3LYP_A_wt_wb97_typ1_neg.SHARKINP.tmp ... ok
----------------------
SHARK INTEGRAL PACKAGE
----------------------

Number of atoms                             ...     11
Number of basis functions                   ...    139
Number of shells                            ...     61
Maximum angular momentum                    ...      2
Integral batch strategy                     ... SHARK/LIBINT Hybrid
RI-J (if used) integral strategy            ... SPLIT-RIJ (Revised 2003 algorithm where possible)
Printlevel                                  ...      1
Contraction scheme used                     ... SEGMENTED contraction
Coulomb Range Separation                    ... NOT USED
Exchange Range Separation                   ... Long Range
   Mu parameter                             ...  0.330000
   Scaling (regular/separated)              ...  0.190000  0.460000
Finite Nucleus Model                        ... NOT USED
Auxiliary Coulomb fitting basis             ... AVAILABLE
   # of basis functions in Aux-J            ...    273
   # of shells in Aux-J                     ...     95
   Maximum angular momentum in Aux-J        ...      4
Auxiliary J/K fitting basis                 ... NOT available
Auxiliary Correlation fitting basis         ... NOT available
Auxiliary 'external' fitting basis          ... NOT available
Integral threshold                          ...     2.500000e-11
Primitive cut-off                           ...     2.500000e-12
Primitive pair pre-selection threshold      ...     2.500000e-12

Calculating pre-screening integrals         ... done (  0.0 sec) Dimension = 61
Organizing shell pair data                  ... done (  0.0 sec)
Shell pair information
Total number of shell pairs                 ...      1891
Shell pairs after pre-screening             ...      1884
Total number of primitive shell pairs       ...      5023
Primitive shell pairs kept                  ...      4395
          la=0 lb=0:    462 shell pairs
          la=1 lb=0:    686 shell pairs
          la=1 lb=1:    276 shell pairs
          la=2 lb=0:    240 shell pairs
          la=2 lb=1:    184 shell pairs
          la=2 lb=2:     36 shell pairs

Calculating one electron integrals          ... done (  0.0 sec)
Calculating RI/J V-Matrix + Cholesky decomp.... done (  0.0 sec)
Calculating Nuclear repulsion               ... done (  0.0 sec) ENN=    124.472625660718 Eh

SHARK setup successfully completed in   0.1 seconds

Maximum memory used throughout the entire GTOINT-calculation: 8.8 MB


           ************************************************************
           *        Program running with 4 parallel MPI-processes     *
           *              working on a common directory               *
           ************************************************************
-------------------------------------------------------------------------------
                                 ORCA SCF
-------------------------------------------------------------------------------

------------
SCF SETTINGS
------------
Hamiltonian:
 Density Functional     Method          .... DFT(GTOs)
 Exchange Functional    Exchange        .... WB88
 Correlation Functional Correlation     .... LYP
 LDA part of GGA corr.  LDAOpt          .... VWN-5
 Gradients option       PostSCFGGA      .... off
 Hybrid DFT is turned on
   Fraction HF Exchange ScalHFX         ....  0.190000
   Scaling of DF-GGA-X  ScalDFX         ....  0.350000
   Scaling of DF-GGA-C  ScalDFC         ....  0.810000
   Scaling of DF-LDA-C  ScalLDAC        ....  1.000000
   Perturbative correction              ....  0.000000
   Density functional embedding theory  .... OFF
 Long-range corrected/Screened/Range-Separated Hybrid DFT is turned on
   Amount of maximum screened exact exchange              ....  0.460000
   Range separation parameter mu (erf(mu*r12)/r12)        ....  0.330000
 RI-approximation to the Coulomb term is turned on
   Number of AuxJ basis functions       .... 273
   RIJ-COSX (HFX calculated with COS-X)).... on


General Settings:
 Integral files         IntName         .... 14Feb_SVPD_CAMB3LYP_A_wt_wb97_typ1_neg
 Hartree-Fock type      HFTyp           .... RHF
 Total Charge           Charge          ....   -1
 Multiplicity           Mult            ....    1
 Number of Electrons    NEL             ....   34
 Basis Dimension        Dim             ....  139
 Nuclear Repulsion      ENuc            ....    124.4726256607 Eh

Convergence Acceleration:
 DIIS                   CNVDIIS         .... on
   Start iteration      DIISMaxIt       ....    12
   Startup error        DIISStart       ....  0.200000
   # of expansion vecs  DIISMaxEq       ....     5
   Bias factor          DIISBfac        ....   1.050
   Max. coefficient     DIISMaxC        ....  10.000
 Trust-Rad. Augm. Hess. CNVTRAH         .... auto
   Auto Start mean grad. ratio tolernc. ....  1.125000
   Auto Start start iteration           ....    20
   Auto Start num. interpolation iter.  ....    10
   Max. Number of Micro iterations      ....    16
   Max. Number of Macro iterations      .... Maxiter - #DIIS iter
   Number of Davidson start vectors     ....     2
   Converg. threshold I  (grad. norm)   ....   1.000e-05
   Converg. threshold II (energy diff.) ....   1.000e-08
   Grad. Scal. Fac. for Micro threshold ....   0.100
   Minimum threshold for Micro iter.    ....   0.010
   NR start threshold (gradient norm)   ....   0.001
   Initial trust radius                 ....   0.400
   Minimum AH scaling param. (alpha)    ....   1.000
   Maximum AH scaling param. (alpha)    .... 1000.000
   Orbital update algorithm             .... Taylor
   White noise on init. David. guess    .... on
   Maximum white noise                  ....   0.010
   Quad. conv. algorithm                .... NR
 SOSCF                  CNVSOSCF        .... on
   Start iteration      SOSCFMaxIt      ....   150
   Startup grad/error   SOSCFStart      ....  0.003300
 Level Shifting         CNVShift        .... on
   Level shift para.    LevelShift      ....    0.2500
   Turn off err/grad.   ShiftErr        ....    0.0010
 Zerner damping         CNVZerner       .... off
 Static damping         CNVDamp         .... on
   Fraction old density DampFac         ....    0.7000
   Max. Damping (<1)    DampMax         ....    0.9800
   Min. Damping (>=0)   DampMin         ....    0.0000
   Turn off err/grad.   DampErr         ....    0.1000
 Fernandez-Rico         CNVRico         .... off

SCF Procedure:
 Maximum # iterations   MaxIter         ....   150
 SCF integral mode      SCFMode         .... Direct
   Integral package                     .... SHARK and LIBINT hybrid scheme
 Reset frequency        DirectResetFreq ....    20
 Integral Threshold     Thresh          ....  2.500e-11 Eh
 Primitive CutOff       TCut            ....  2.500e-12 Eh

Convergence Tolerance:
 Convergence Check Mode ConvCheckMode   .... Total+1el-Energy
 Convergence forced     ConvForced      .... 0
 Energy Change          TolE            ....  1.000e-08 Eh
 1-El. energy change                    ....  1.000e-05 Eh
 Orbital Gradient       TolG            ....  1.000e-05
 Orbital Rotation angle TolX            ....  1.000e-05
 DIIS Error             TolErr          ....  5.000e-07


Diagonalization of the overlap matrix:
Smallest eigenvalue                        ... 2.303e-04
Time for diagonalization                   ...    0.005 sec
Threshold for overlap eigenvalues          ... 1.000e-08
Number of eigenvalues below threshold      ... 0
Time for construction of square roots      ...    0.005 sec
Total time needed                          ...    0.010 sec

Time for model grid setup =    0.055 sec

------------------------------
INITIAL GUESS: MODEL POTENTIAL
------------------------------
Loading Hartree-Fock densities                     ... done
Calculating cut-offs                               ... done
Initializing the effective Hamiltonian             ... done
Setting up the integral package (SHARK)            ... done
Starting the Coulomb interaction                   ... done (   0.0 sec)
Reading the grid                                   ... done
Mapping shells                                     ... done
Starting the XC term evaluation                    ... done (   0.0 sec)
  promolecular density results
     # of electrons  =     32.994463735
     EX              =    -25.503812648
     EC              =     -1.064439976
     EX+EC           =    -26.568252624
Transforming the Hamiltonian                       ... done (   0.0 sec)
Diagonalizing the Hamiltonian                      ... done (   0.0 sec)
Back transforming the eigenvectors                 ... done (   0.0 sec)
Now organizing SCF variables                       ... done
                      ------------------
                      INITIAL GUESS DONE (   0.1 sec)
                      ------------------
-------------------
DFT GRID GENERATION
-------------------

General Integration Accuracy     IntAcc      ... 4.388
Radial Grid Type                 RadialGrid  ... OptM3 with GC (2021)
Angular Grid (max. ang.)         AngularGrid ... 4 (Lebedev-302)
Angular grid pruning method      GridPruning ... 4 (adaptive)
Weight generation scheme         WeightScheme... Becke
Basis function cutoff            BFCut       ... 1.0000e-11
Integration weight cutoff        WCut        ... 1.0000e-14
Angular grids for H and He will be reduced by one unit
Partially contracted basis set               ... off
Rotationally invariant grid construction     ... off

Total number of grid points                  ...    48542
Total number of batches                      ...      765
Average number of points per batch           ...       63
Average number of grid points per atom       ...     4413
Time for grid setup =    0.271 sec

--------------------
COSX GRID GENERATION
--------------------

GRIDX 1
-------
General Integration Accuracy     IntAcc      ... 3.816
Radial Grid Type                 RadialGrid  ... OptM3 with GC (2021)
Angular Grid (max. ang.)         AngularGrid ... 1 (Lebedev-50)
Angular grid pruning method      GridPruning ... 4 (adaptive)
Weight generation scheme         WeightScheme... Becke
Basis function cutoff            BFCut       ... 1.0000e-11
Integration weight cutoff        WCut        ... 1.0000e-14
Angular grids for H and He will be reduced by one unit
Partially contracted basis set               ... on
Rotationally invariant grid construction     ... off

Total number of grid points                  ...     6081
Total number of batches                      ...      102
Average number of points per batch           ...       59
Average number of grid points per atom       ...      553
UseSFitting                                  ... on

GRIDX 2
-------
General Integration Accuracy     IntAcc      ... 4.020
Radial Grid Type                 RadialGrid  ... OptM3 with GC (2021)
Angular Grid (max. ang.)         AngularGrid ... 2 (Lebedev-110)
Angular grid pruning method      GridPruning ... 4 (adaptive)
Weight generation scheme         WeightScheme... Becke
Basis function cutoff            BFCut       ... 1.0000e-11
Integration weight cutoff        WCut        ... 1.0000e-14
Angular grids for H and He will be reduced by one unit
Partially contracted basis set               ... on
Rotationally invariant grid construction     ... off

Total number of grid points                  ...    13689
Total number of batches                      ...      221
Average number of points per batch           ...       61
Average number of grid points per atom       ...     1244
UseSFitting                                  ... on

GRIDX 3
-------
General Integration Accuracy     IntAcc      ... 4.338
Radial Grid Type                 RadialGrid  ... OptM3 with GC (2021)
Angular Grid (max. ang.)         AngularGrid ... 3 (Lebedev-194)
Angular grid pruning method      GridPruning ... 4 (adaptive)
Weight generation scheme         WeightScheme... Becke
Basis function cutoff            BFCut       ... 1.0000e-11
Integration weight cutoff        WCut        ... 1.0000e-14
Angular grids for H and He will be reduced by one unit
Partially contracted basis set               ... on
Rotationally invariant grid construction     ... off

Total number of grid points                  ...    31332
Total number of batches                      ...      494
Average number of points per batch           ...       63
Average number of grid points per atom       ...     2848
UseSFitting                                  ... on

Time for X-Grid setup             =    0.263 sec

--------------
SCF ITERATIONS
--------------
ITER       Energy         Delta-E        Max-DP      RMS-DP      [F,P]     Damp
               ***  Starting incremental Fock matrix formation  ***
  0   -193.2125466206   0.000000000000 0.10221704  0.00361674  0.3318297 0.7000
  1   -193.3502672691  -0.137720648550 0.10645700  0.00307774  0.1256605 0.7000
                               ***Turning on DIIS***
  2   -193.4031755500  -0.052908280845 0.21625925  0.00579742  0.0470954 0.0000
  3   -193.4916578795  -0.088482329513 0.06835191  0.00231436  0.0788483 0.0000
  4   -193.5104172878  -0.018759408353 0.02018185  0.00081731  0.0197899 0.0000
  5   -193.5114327713  -0.001015483469 0.01315426  0.00048734  0.0059701 0.0000
                      *** Initiating the SOSCF procedure ***
                           *** Shutting down DIIS ***
                      *** Re-Reading the Fockian *** 
                      *** Removing any level shift *** 
ITER      Energy       Delta-E        Grad      Rot      Max-DP    RMS-DP
  6   -193.51153303  -0.0001002598  0.000745  0.000745  0.017748  0.000569
               *** Restarting incremental Fock matrix formation ***
  7   -193.51151166   0.0000213750  0.000162  0.000643  0.004159  0.000129
  8   -193.51151282  -0.0000011624  0.000182  0.000557  0.002521  0.000074
  9   -193.51151378  -0.0000009650  0.000054  0.000054  0.000241  0.000011
 10   -193.51151378   0.0000000023  0.000048  0.000027  0.000152  0.000005
                  ***Gradient check signals convergence***
              ***Rediagonalizing the Fockian in SOSCF/NRSCF***

               *****************************************************
               *                     SUCCESS                       *
               *           SCF CONVERGED AFTER  11 CYCLES          *
               *****************************************************

Old exchange energy                            =     -7.653873420 Eh
New exchange energy                            =     -7.653888615 Eh
Exchange energy change after final integration =     -0.000015195 Eh
Total energy after final integration           =   -193.511529063 Eh
Final COS-X integration done in                =     2.074 sec

----------------
TOTAL SCF ENERGY
----------------

Total Energy       :         -193.51152906 Eh           -5265.71641 eV

Components:
Nuclear Repulsion  :          124.47262566 Eh            3387.07234 eV
Electronic Energy  :         -317.98415472 Eh           -8652.78875 eV
One Electron Energy:         -515.60559324 Eh          -14030.34148 eV
Two Electron Energy:          197.62143851 Eh            5377.55273 eV
Max COSX asymmetry :            0.00000229 Eh               0.00006 eV

Virial components:
Potential Energy   :         -385.06116159 Eh          -10478.04690 eV
Kinetic Energy     :          191.54963253 Eh            5212.33049 eV
Virial Ratio       :            2.01024224


DFT components:
N(Alpha)           :       17.000174396072 electrons
N(Beta)            :       17.000174396072 electrons
N(Total)           :       34.000348792143 electrons
E(XC)              :      -19.914528151107 Eh       
DFET-embed. en.    :        0.000000000000 Eh       

---------------
SCF CONVERGENCE
---------------

  Last Energy change         ...   -8.6905e-08  Tolerance :   1.0000e-08
  Last MAX-Density change    ...    2.6645e-15  Tolerance :   1.0000e-07
  Last RMS-Density change    ...    3.7387e-17  Tolerance :   5.0000e-09
  Last Orbital Gradient      ...    1.8693e-06  Tolerance :   1.0000e-05
  Last Orbital Rotation      ...    9.3438e-06  Tolerance :   1.0000e-05

             **** THE GBW FILE WAS UPDATED (14Feb_SVPD_CAMB3LYP_A_wt_wb97_typ1_neg.gbw) ****
             **** DENSITY 14Feb_SVPD_CAMB3LYP_A_wt_wb97_typ1_neg.scfp WAS UPDATED ****
             **** ENERGY FILE WAS UPDATED (14Feb_SVPD_CAMB3LYP_A_wt_wb97_typ1_neg.en.tmp) ****
             **** THE GBW FILE WAS UPDATED (14Feb_SVPD_CAMB3LYP_A_wt_wb97_typ1_neg.gbw) ****
             **** DENSITY 14Feb_SVPD_CAMB3LYP_A_wt_wb97_typ1_neg.scfp WAS UPDATED ****
----------------
ORBITAL ENERGIES
----------------

  NO   OCC          E(Eh)            E(eV) 
   0   2.0000     -18.882511      -513.8192 
   1   2.0000     -10.075298      -274.1628 
   2   2.0000     -10.073322      -274.1090 
   3   2.0000     -10.066566      -273.9252 
   4   2.0000      -0.756013       -20.5722 
   5   2.0000      -0.657269       -17.8852 
   6   2.0000      -0.540940       -14.7197 
   7   2.0000      -0.434838       -11.8326 
   8   2.0000      -0.345306        -9.3963 
   9   2.0000      -0.335788        -9.1373 
  10   2.0000      -0.284934        -7.7535 
  11   2.0000      -0.254807        -6.9337 
  12   2.0000      -0.227687        -6.1957 
  13   2.0000      -0.215878        -5.8743 
  14   2.0000      -0.177861        -4.8399 
  15   2.0000      -0.037225        -1.0129 
  16   2.0000      -0.034188        -0.9303 
  17   0.0000       0.194594         5.2952 
  18   0.0000       0.218762         5.9528 
  19   0.0000       0.236277         6.4294 
  20   0.0000       0.264510         7.1977 
  21   0.0000       0.284131         7.7316 
  22   0.0000       0.292009         7.9460 
  23   0.0000       0.300689         8.1822 
  24   0.0000       0.310951         8.4614 
  25   0.0000       0.315590         8.5876 
  26   0.0000       0.346543         9.4299 
  27   0.0000       0.357157         9.7187 
  28   0.0000       0.360355         9.8058 
  29   0.0000       0.366817         9.9816 
  30   0.0000       0.380382        10.3507 
  31   0.0000       0.390620        10.6293 
  32   0.0000       0.400078        10.8867 
  33   0.0000       0.432254        11.7622 
  34   0.0000       0.453635        12.3440 
  35   0.0000       0.476887        12.9767 
  36   0.0000       0.492419        13.3994 
  37   0.0000       0.498898        13.5757 
  38   0.0000       0.511465        13.9177 
  39   0.0000       0.521153        14.1813 
  40   0.0000       0.531297        14.4573 
  41   0.0000       0.541169        14.7260 
  42   0.0000       0.550627        14.9833 
  43   0.0000       0.557769        15.1777 
  44   0.0000       0.561294        15.2736 
  45   0.0000       0.573483        15.6053 
  46   0.0000       0.578911        15.7530 
  47   0.0000       0.591074        16.0839 
  48   0.0000       0.595315        16.1993 
  49   0.0000       0.605506        16.4767 
  50   0.0000       0.615105        16.7379 
  51   0.0000       0.619805        16.8658 
  52   0.0000       0.632801        17.2194 
  53   0.0000       0.648210        17.6387 
  54   0.0000       0.658608        17.9216 
  55   0.0000       0.675512        18.3816 
  56   0.0000       0.681159        18.5353 
  57   0.0000       0.694799        18.9064 
  58   0.0000       0.705521        19.1982 
  59   0.0000       0.708533        19.2802 
  60   0.0000       0.725966        19.7545 
  61   0.0000       0.748808        20.3761 
  62   0.0000       0.752273        20.4704 
  63   0.0000       0.764283        20.7972 
  64   0.0000       0.769886        20.9497 
  65   0.0000       0.793439        21.5906 
  66   0.0000       0.798622        21.7316 
  67   0.0000       0.815823        22.1997 
  68   0.0000       0.838310        22.8116 
  69   0.0000       0.859855        23.3978 
  70   0.0000       0.913316        24.8526 
  71   0.0000       0.935844        25.4656 
  72   0.0000       0.965116        26.2621 
  73   0.0000       0.992438        27.0056 
  74   0.0000       1.029979        28.0272 
  75   0.0000       1.071595        29.1596 
  76   0.0000       1.121940        30.5295 
  77   0.0000       1.139881        31.0177 
  78   0.0000       1.163677        31.6653 
  79   0.0000       1.201052        32.6823 
  80   0.0000       1.219270        33.1780 
  81   0.0000       1.236561        33.6485 
  82   0.0000       1.245545        33.8930 
  83   0.0000       1.250988        34.0411 
  84   0.0000       1.268177        34.5088 
  85   0.0000       1.309494        35.6331 
  86   0.0000       1.342289        36.5255 
  87   0.0000       1.373001        37.3613 
  88   0.0000       1.398722        38.0612 
  89   0.0000       1.483305        40.3628 
  90   0.0000       1.507785        41.0289 
  91   0.0000       1.529057        41.6078 
  92   0.0000       1.538580        41.8669 
  93   0.0000       1.590631        43.2833 
  94   0.0000       1.792993        48.7898 
  95   0.0000       1.812905        49.3317 
  96   0.0000       1.842947        50.1491 
  97   0.0000       1.851774        50.3893 
  98   0.0000       1.875364        51.0313 
  99   0.0000       1.895481        51.5786 
 100   0.0000       1.936521        52.6954 
 101   0.0000       1.965705        53.4896 
 102   0.0000       1.996398        54.3247 
 103   0.0000       2.072470        56.3948 
 104   0.0000       2.110145        57.4200 
 105   0.0000       2.140460        58.2449 
 106   0.0000       2.176744        59.2322 
 107   0.0000       2.215951        60.2991 
 108   0.0000       2.243048        61.0365 
 109   0.0000       2.260612        61.5144 
 110   0.0000       2.283652        62.1413 
 111   0.0000       2.298073        62.5337 
 112   0.0000       2.311006        62.8857 
 113   0.0000       2.339079        63.6496 
 114   0.0000       2.364180        64.3326 
 115   0.0000       2.442075        66.4522 
 116   0.0000       2.460105        66.9428 
 117   0.0000       2.540089        69.1193 
 118   0.0000       2.573815        70.0371 
 119   0.0000       2.637604        71.7729 
 120   0.0000       2.686953        73.1157 
 121   0.0000       2.752197        74.8911 
 122   0.0000       2.795037        76.0568 
 123   0.0000       2.823988        76.8446 
 124   0.0000       2.915364        79.3311 
 125   0.0000       2.938319        79.9557 
 126   0.0000       2.970228        80.8240 
 127   0.0000       3.095212        84.2250 
 128   0.0000       3.221363        87.6578 
 129   0.0000       3.246762        88.3489 
 130   0.0000       3.272551        89.0506 
 131   0.0000       3.315979        90.2324 
 132   0.0000       3.351021        91.1859 
 133   0.0000       3.391395        92.2845 
 134   0.0000       3.420204        93.0685 
 135   0.0000       3.442704        93.6807 
 136   0.0000       3.536713        96.2389 
 137   0.0000       3.545691        96.4832 
 138   0.0000       3.923359       106.7600 

                    ********************************
                    * MULLIKEN POPULATION ANALYSIS *
                    ********************************

-----------------------
MULLIKEN ATOMIC CHARGES
-----------------------
   0 C :    0.812417
   1 C :   -0.370750
   2 H :   -0.162833
   3 H :   -0.125877
   4 C :    0.512538
   5 O :   -0.875176
   6 H :   -0.222901
   7 H :   -0.166274
   8 H :   -0.139710
   9 H :   -0.173520
  10 H :   -0.087915
Sum of atomic charges:   -1.0000000

--------------------------------
MULLIKEN REDUCED ORBITAL CHARGES
--------------------------------
  0 C s       :     2.355393  s :     2.355393
      pz      :     0.876486  p :     2.693727
      px      :     0.790513
      py      :     1.026728
      dz2     :     0.020036  d :     0.138463
      dxz     :    -0.021623
      dyz     :     0.072018
      dx2y2   :     0.014400
      dxy     :     0.053632
  1 C s       :     2.848332  s :     2.848332
      pz      :     0.865142  p :     2.922636
      px      :     1.057905
      py      :     0.999589
      dz2     :     0.040507  d :     0.599782
      dxz     :     0.108448
      dyz     :     0.134342
      dx2y2   :     0.073573
      dxy     :     0.242912
  2 H s       :     1.125624  s :     1.125624
      pz      :     0.008064  p :     0.037209
      px      :     0.006019
      py      :     0.023125
  3 H s       :     1.095405  s :     1.095405
      pz      :     0.062144  p :     0.030472
      px      :    -0.002471
      py      :    -0.029201
  4 C s       :     2.773927  s :     2.773927
      pz      :     0.796024  p :     2.471972
      px      :     0.882571
      py      :     0.793376
      dz2     :     0.036713  d :     0.241563
      dxz     :     0.095198
      dyz     :     0.014568
      dx2y2   :     0.065607
      dxy     :     0.029477
  5 O s       :     3.881709  s :     3.881709
      pz      :     1.682365  p :     4.962307
      px      :     1.669886
      py      :     1.610056
      dz2     :     0.012088  d :     0.031161
      dxz     :     0.000776
      dyz     :     0.005528
      dx2y2   :     0.006560
      dxy     :     0.006209
  6 H s       :     1.157564  s :     1.157564
      pz      :     0.000805  p :     0.065338
      px      :    -0.016549
      py      :     0.081081
  7 H s       :     1.100043  s :     1.100043
      pz      :     0.083226  p :     0.066231
      px      :    -0.007944
      py      :    -0.009052
  8 H s       :     1.096707  s :     1.096707
      pz      :     0.062321  p :     0.043003
      px      :    -0.027577
      py      :     0.008259
  9 H s       :     1.154293  s :     1.154293
      pz      :    -0.039319  p :     0.019227
      px      :     0.064865
      py      :    -0.006319
 10 H s       :     1.023245  s :     1.023245
      pz      :     0.036222  p :     0.064670
      px      :     0.008465
      py      :     0.019983


                     *******************************
                     * LOEWDIN POPULATION ANALYSIS *
                     *******************************

----------------------
LOEWDIN ATOMIC CHARGES
----------------------
   0 C :    0.086403
   1 C :   -0.116889
   2 H :   -0.010823
   3 H :    0.000579
   4 C :   -0.220199
   5 O :   -0.563858
   6 H :   -0.032289
   7 H :   -0.026151
   8 H :   -0.032440
   9 H :   -0.049809
  10 H :   -0.034523

-------------------------------
LOEWDIN REDUCED ORBITAL CHARGES
-------------------------------
  0 C s       :     2.708513  s :     2.708513
      pz      :     0.929020  p :     2.762148
      px      :     0.909024
      py      :     0.924104
      dz2     :     0.084672  d :     0.442937
      dxz     :     0.033563
      dyz     :     0.111199
      dx2y2   :     0.110898
      dxy     :     0.102605
  1 C s       :     2.715691  s :     2.715691
      pz      :     0.897050  p :     2.697130
      px      :     0.918145
      py      :     0.881935
      dz2     :     0.102076  d :     0.704068
      dxz     :     0.135321
      dyz     :     0.128530
      dx2y2   :     0.146739
      dxy     :     0.191402
  2 H s       :     0.750554  s :     0.750554
      pz      :     0.093951  p :     0.260269
      px      :     0.083968
      py      :     0.082350
  3 H s       :     0.738361  s :     0.738361
      pz      :     0.121655  p :     0.261060
      px      :     0.075531
      py      :     0.063875
  4 C s       :     2.703778  s :     2.703778
      pz      :     0.861462  p :     2.567055
      px      :     0.852578
      py      :     0.853016
      dz2     :     0.226123  d :     0.949366
      dxz     :     0.173964
      dyz     :     0.120981
      dx2y2   :     0.265834
      dxy     :     0.162463
  5 O s       :     3.516127  s :     3.516127
      pz      :     1.613333  p :     4.791960
      px      :     1.610891
      py      :     1.567736
      dz2     :     0.058448  d :     0.255770
      dxz     :     0.038191
      dyz     :     0.044528
      dx2y2   :     0.065599
      dxy     :     0.049004
  6 H s       :     0.762400  s :     0.762400
      pz      :     0.075974  p :     0.269889
      px      :     0.062178
      py      :     0.131737
  7 H s       :     0.760020  s :     0.760020
      pz      :     0.139421  p :     0.266131
      px      :     0.061969
      py      :     0.064742
  8 H s       :     0.748402  s :     0.748402
      pz      :     0.125393  p :     0.284038
      px      :     0.086195
      py      :     0.072450
  9 H s       :     0.760300  s :     0.760300
      pz      :     0.078986  p :     0.289510
      px      :     0.132530
      py      :     0.077994
 10 H s       :     0.728005  s :     0.728005
      pz      :     0.105813  p :     0.306518
      px      :     0.111925
      py      :     0.088781


                      *****************************
                      * MAYER POPULATION ANALYSIS *
                      *****************************

  NA   - Mulliken gross atomic population
  ZA   - Total nuclear charge
  QA   - Mulliken gross atomic charge
  VA   - Mayer's total valence
  BVA  - Mayer's bonded valence
  FA   - Mayer's free valence

  ATOM       NA         ZA         QA         VA         BVA        FA
  0 C      5.1876     6.0000     0.8124     3.7814     3.7814     0.0000
  1 C      6.3707     6.0000    -0.3707     5.2705     5.2705    -0.0000
  2 H      1.1628     1.0000    -0.1628     1.1099     1.1099    -0.0000
  3 H      1.1259     1.0000    -0.1259     1.0559     1.0559    -0.0000
  4 C      5.4875     6.0000     0.5125     4.3916     4.3916     0.0000
  5 O      8.8752     8.0000    -0.8752     1.2111     1.2111     0.0000
  6 H      1.2229     1.0000    -0.2229     1.1300     1.1300     0.0000
  7 H      1.1663     1.0000    -0.1663     1.1170     1.1170     0.0000
  8 H      1.1397     1.0000    -0.1397     1.0699     1.0699     0.0000
  9 H      1.1735     1.0000    -0.1735     1.0015     1.0015     0.0000
 10 H      1.0879     1.0000    -0.0879     1.1086     1.1086     0.0000

  Mayer bond orders larger than 0.100000
B(  0-C ,  1-C ) :   1.2602 B(  0-C ,  8-H ) :   0.7771 B(  0-C ,  9-H ) :   0.7456 
B(  0-C , 10-H ) :   0.7933 B(  1-C ,  2-H ) :   0.9830 B(  1-C ,  3-H ) :   0.9284 
B(  1-C ,  4-C ) :   1.0580 B(  1-C ,  6-H ) :   0.1607 B(  1-C ,  7-H ) :   0.1429 
B(  1-C ,  8-H ) :   0.2112 B(  1-C ,  9-H ) :   0.2263 B(  1-C , 10-H ) :   0.2237 
B(  2-H ,  4-C ) :   0.1078 B(  3-H ,  4-C ) :   0.1292 B(  4-C ,  5-O ) :   1.1931 
B(  4-C ,  6-H ) :   0.9222 B(  4-C ,  7-H ) :   0.9244 

-------
TIMINGS
-------

Total SCF time: 0 days 0 hours 0 min 13 sec 

Total time                  ....      13.601 sec
Sum of individual times     ....      13.459 sec  ( 99.0%)

Fock matrix formation       ....      12.718 sec  ( 93.5%)
  Split-RI-J                ....       0.546 sec  (  4.3% of F)
  Chain of spheres X        ....      10.077 sec  ( 79.2% of F)
  XC integration            ....       2.073 sec  ( 16.3% of F)
    Basis function eval.    ....       0.631 sec  ( 30.5% of XC)
    Density eval.           ....       0.396 sec  ( 19.1% of XC)
    XC-Functional eval.     ....       0.374 sec  ( 18.0% of XC)
    XC-Potential eval.      ....       0.543 sec  ( 26.2% of XC)
Diagonalization             ....       0.032 sec  (  0.2%)
Density matrix formation    ....       0.002 sec  (  0.0%)
Population analysis         ....       0.005 sec  (  0.0%)
Initial guess               ....       0.073 sec  (  0.5%)
Orbital Transformation      ....       0.000 sec  (  0.0%)
Orbital Orthonormalization  ....       0.000 sec  (  0.0%)
DIIS solution               ....       0.025 sec  (  0.2%)
SOSCF solution              ....       0.016 sec  (  0.1%)
Grid generation             ....       0.588 sec  (  4.3%)

Maximum memory used throughout the entire SCF-calculation: 49.1 MB

-------------------------   --------------------
FINAL SINGLE POINT ENERGY      -193.511529062879
-------------------------   --------------------


                            ***************************************
                            *     ORCA property calculations      *
                            ***************************************

                                    ---------------------
                                    Active property flags
                                    ---------------------
   (+) Dipole Moment


------------------------------------------------------------------------------
                       ORCA ELECTRIC PROPERTIES CALCULATION
------------------------------------------------------------------------------

Dipole Moment Calculation                       ... on
Quadrupole Moment Calculation                   ... off
Polarizability Calculation                      ... off
GBWName                                         ... 14Feb_SVPD_CAMB3LYP_A_wt_wb97_typ1_neg.gbw
Electron density file                           ... 14Feb_SVPD_CAMB3LYP_A_wt_wb97_typ1_neg.scfp
The origin for moment calculation is the CENTER OF MASS  = ( 0.246073,  4.585069 -0.864617)

-------------
DIPOLE MOMENT
-------------
                                X             Y             Z
Electronic contribution:      2.46090       0.05138       1.41154
Nuclear contribution   :     -4.35230      -0.04018      -2.29108
                        -----------------------------------------
Total Dipole Moment    :     -1.89140       0.01119      -0.87954
                        -----------------------------------------
Magnitude (a.u.)       :      2.08594
Magnitude (Debye)      :      5.30203



--------------------
Rotational spectrum 
--------------------
 
Rotational constants in cm-1:     0.489965     0.184028     0.151025 
Rotational constants in MHz : 14688.769521  5517.006179  4527.605157 

 Dipole components along the rotational axes: 
x,y,z [a.u.] :     1.918039    -0.805273     0.154238 
x,y,z [Debye]:     4.875268    -2.046842     0.392043 

 

Timings for individual modules:

Sum of individual times         ...       14.226 sec (=   0.237 min)
GTO integral calculation        ...        0.401 sec (=   0.007 min)   2.8 %
SCF iterations                  ...       13.825 sec (=   0.230 min)  97.2 %
                             ****ORCA TERMINATED NORMALLY****
TOTAL RUN TIME: 0 days 0 hours 0 minutes 14 seconds 566 msec
