
                                        *****************
                                        * O   R   C   A *
                                        *****************

                                            #,                                       
                                            ###                                      
                                            ####                                     
                                            #####                                    
                                            ######                                   
                                           ########,                                 
                                     ,,################,,,,,                         
                               ,,#################################,,                 
                          ,,##########################################,,             
                       ,#########################################, ''#####,          
                    ,#############################################,,   '####,        
                  ,##################################################,,,,####,       
                ,###########''''           ''''###############################       
              ,#####''   ,,,,##########,,,,          '''####'''          '####       
            ,##' ,,,,###########################,,,                        '##       
           ' ,,###''''                  '''############,,,                           
         ,,##''                                '''############,,,,        ,,,,,,###''
      ,#''                                            '''#######################'''  
     '                                                          ''''####''''         
             ,#######,   #######,   ,#######,      ##                                
            ,#'     '#,  ##    ##  ,#'     '#,    #''#        ######   ,####,        
            ##       ##  ##   ,#'  ##            #'  '#       #        #'  '#        
            ##       ##  #######   ##           ,######,      #####,   #    #        
            '#,     ,#'  ##    ##  '#,     ,#' ,#      #,         ##   #,  ,#        
             '#######'   ##     ##  '#######'  #'      '#     #####' # '####'        



                  #######################################################
                  #                        -***-                        #
                  #          Department of theory and spectroscopy      #
                  #    Directorship and core code : Frank Neese         #
                  #        Max Planck Institute fuer Kohlenforschung    #
                  #                Kaiser Wilhelm Platz 1               #
                  #                 D-45470 Muelheim/Ruhr               #
                  #                      Germany                        #
                  #                                                     #
                  #                  All rights reserved                #
                  #                        -***-                        #
                  #######################################################


                         Program Version 5.0.0 -  RELEASE  -
                                (SVN: $Rev: 19529$)
                ($Date: 2021-06-28 11:36:33 +0200 (Mo, 28 Jun 2021) $)


 With contributions from (in alphabetic order):
   Daniel Aravena         : Magnetic Suceptibility
   Michael Atanasov       : Ab Initio Ligand Field Theory (pilot matlab implementation)
   Alexander A. Auer      : GIAO ZORA, VPT2 properties, NMR spectrum
   Ute Becker             : Parallelization
   Giovanni Bistoni       : ED, misc. LED, open-shell LED, HFLD
   Martin Brehm           : Molecular dynamics
   Dmytro Bykov           : SCF Hessian
   Vijay G. Chilkuri      : MRCI spin determinant printing, contributions to CSF-ICE
   Dipayan Datta          : RHF DLPNO-CCSD density
   Achintya Kumar Dutta   : EOM-CC, STEOM-CC
   Dmitry Ganyushin       : Spin-Orbit,Spin-Spin,Magnetic field MRCI
   Miquel Garcia          : C-PCM Hessian, Gaussian charge scheme
   Yang Guo               : DLPNO-NEVPT2, F12-NEVPT2, CIM, IAO-localization
   Andreas Hansen         : Spin unrestricted coupled pair/coupled cluster methods
   Benjamin Helmich-Paris : MC-RPA, TRAH-SCF, COSX integrals
   Lee Huntington         : MR-EOM, pCC
   Robert Izsak           : Overlap fitted RIJCOSX, COSX-SCS-MP3, EOM
   Marcus Kettner         : VPT2
   Christian Kollmar      : KDIIS, OOCD, Brueckner-CCSD(T), CCSD density, CASPT2, CASPT2-K
   Simone Kossmann        : Meta GGA functionals, TD-DFT gradient, OOMP2, MP2 Hessian
   Martin Krupicka        : Initial AUTO-CI
   Lucas Lang             : DCDCAS
   Marvin Lechner         : AUTO-CI (C++ implementation), FIC-MRCC
   Dagmar Lenk            : GEPOL surface, SMD
   Dimitrios Liakos       : Extrapolation schemes; Compound Job, initial MDCI parallelization
   Dimitrios Manganas     : Further ROCIS development; embedding schemes
   Dimitrios Pantazis     : SARC Basis sets
   Anastasios Papadopoulos: AUTO-CI, single reference methods and gradients
   Taras Petrenko         : DFT Hessian,TD-DFT gradient, ASA, ECA, R-Raman, ABS, FL, XAS/XES, NRVS
   Peter Pinski           : DLPNO-MP2, DLPNO-MP2 Gradient
   Christoph Reimann      : Effective Core Potentials
   Marius Retegan         : Local ZFS, SOC
   Christoph Riplinger    : Optimizer, TS searches, QM/MM, DLPNO-CCSD(T), (RO)-DLPNO pert. Triples
   Tobias Risthaus        : Range-separated hybrids, TD-DFT gradient, RPA, STAB
   Michael Roemelt        : Original ROCIS implementation
   Masaaki Saitow         : Open-shell DLPNO-CCSD energy and density
   Barbara Sandhoefer     : DKH picture change effects
   Avijit Sen             : IP-ROCIS
   Kantharuban Sivalingam : CASSCF convergence, NEVPT2, FIC-MRCI
   Bernardo de Souza      : ESD, SOC TD-DFT
   Georgi Stoychev        : AutoAux, RI-MP2 NMR
   Willem Van den Heuvel  : Paramagnetic NMR
   Boris Wezisla          : Elementary symmetry handling
   Frank Wennmohs         : Technical directorship


 We gratefully acknowledge several colleagues who have allowed us to
 interface, adapt or use parts of their codes:
   Stefan Grimme, W. Hujo, H. Kruse, P. Pracht,  : VdW corrections, initial TS optimization,
                  C. Bannwarth, S. Ehlert          DFT functionals, gCP, sTDA/sTD-DF
   Ed Valeev, F. Pavosevic, A. Kumar             : LibInt (2-el integral package), F12 methods
   Garnet Chan, S. Sharma, J. Yang, R. Olivares  : DMRG
   Ulf Ekstrom                                   : XCFun DFT Library
   Mihaly Kallay                                 : mrcc  (arbitrary order and MRCC methods)
   Jiri Pittner, Ondrej Demel                    : Mk-CCSD
   Frank Weinhold                                : gennbo (NPA and NBO analysis)
   Christopher J. Cramer and Donald G. Truhlar   : smd solvation model
   Lars Goerigk                                  : TD-DFT with DH, B97 family of functionals
   V. Asgeirsson, H. Jonsson                     : NEB implementation
   FAccTs GmbH                                   : IRC, NEB, NEB-TS, DLPNO-Multilevel, CI-OPT
                                                   MM, QMMM, 2- and 3-layer-ONIOM, Crystal-QMMM,
                                                   LR-CPCM, SF, NACMEs, symmetry and pop. for TD-DFT,
                                                   nearIR, NL-DFT gradient (VV10), updates on ESD,
                                                   ML-optimized integration grids
   S Lehtola, MJT Oliveira, MAL Marques          : LibXC Library
   Liviu Ungur et al                             : ANISO software


 Your calculation uses the libint2 library for the computation of 2-el integrals
 For citations please refer to: http://libint.valeyev.net

 Your ORCA version has been built with support for libXC version: 5.1.0
 For citations please refer to: https://tddft.org/programs/libxc/

 This ORCA versions uses:
   CBLAS   interface :  Fast vector & matrix operations
   LAPACKE interface :  Fast linear algebra routines
   SCALAPACK package :  Parallel linear algebra routines
   Shared memory     :  Shared parallel matrices
   BLAS/LAPACK       :  OpenBLAS 0.3.15  USE64BITINT DYNAMIC_ARCH NO_AFFINITY Haswell SINGLE_THREADED
        Core in use  :  Haswell
   Copyright (c) 2011-2014, The OpenBLAS Project


Your calculation utilizes the atom-pairwise dispersion correction
with the Becke-Johnson damping scheme (D3BJ)
Cite in your paper:
S.Grimme, S.Ehrlich, L.Goerigk, J Comput Chem, (2011), 32, 1456–1465 
S.Grimme, J.Antony, S.Ehrlich and H.Krieg, J.Chem.Phys., 132, (2010), 154104 
   

================================================================================

----- Orbital basis set information -----
Your calculation utilizes the basis: def2-SVP
   F. Weigend and R. Ahlrichs, Phys. Chem. Chem. Phys. 7, 3297 (2005).

----- AuxJ basis set information -----
Your calculation utilizes the auxiliary basis: def2/J
   F. Weigend, Phys. Chem. Chem. Phys. 8, 1057 (2006).

================================================================================
                                        WARNINGS
                       Please study these warnings very carefully!
================================================================================



WARNING: Found flag for RIJCOSX approximation but no HF exchange needed!
  ===> : RIJCOSX  will be disabled and Split-RI-J is turned on

INFO   : the flag for use of the SHARK integral package has been found!

================================================================================
                                       INPUT FILE
================================================================================
NAME = SVP_BLYP_A_wt_dlpno_neg.com
|  1> !BLYP D3BJ RIJCOSX def2-SVP def2/J TightSCF
|  2> *xyz -1 1 
|  3> C         -5.57236       -5.80780       -0.81644
|  4> S         -6.90318       -4.61903       -0.52846
|  5> O         -8.11485       -5.25093       -0.95701
|  6> O         -6.53271       -3.42684       -1.31485
|  7> O         -6.86563       -4.29496        0.91412
|  8> C         -4.45780       -5.94187        0.22919
|  9> H         -5.17735       -5.54257       -1.79771
| 10> H         -6.07420       -6.76889       -0.92127
| 11> H         -3.75515       -6.68239       -0.09144
| 12> H         -4.88182       -6.23486        1.16689
| 13> H         -3.95908       -5.00189        0.34143
| 14> *
| 15> %MaxCore 64000
| 16> 
| 17> %pal nprocs 4
| 18> end  
| 19> 
| 20> %scf
| 21>   MaxIter 150
| 22> end
| 23> 
| 24>                          ****END OF INPUT****
================================================================================

                       ****************************
                       * Single Point Calculation *
                       ****************************

---------------------------------
CARTESIAN COORDINATES (ANGSTROEM)
---------------------------------
  C     -5.572360   -5.807800   -0.816440
  S     -6.903180   -4.619030   -0.528460
  O     -8.114850   -5.250930   -0.957010
  O     -6.532710   -3.426840   -1.314850
  O     -6.865630   -4.294960    0.914120
  C     -4.457800   -5.941870    0.229190
  H     -5.177350   -5.542570   -1.797710
  H     -6.074200   -6.768890   -0.921270
  H     -3.755150   -6.682390   -0.091440
  H     -4.881820   -6.234860    1.166890
  H     -3.959080   -5.001890    0.341430

----------------------------
CARTESIAN COORDINATES (A.U.)
----------------------------
  NO LB      ZA    FRAG     MASS         X           Y           Z
   0 C     6.0000    0    12.011  -10.530234  -10.975151   -1.542848
   1 S    16.0000    0    32.060  -13.045120   -8.728702   -0.998645
   2 O     8.0000    0    15.999  -15.334844   -9.922820   -1.808487
   3 O     8.0000    0    15.999  -12.345033   -6.475789   -2.484706
   4 O     8.0000    0    15.999  -12.974160   -8.116298    1.727436
   5 C     6.0000    0    12.011   -8.424021  -11.228507    0.433106
   6 H     1.0000    0     1.008   -9.783774  -10.473939   -3.397180
   7 H     1.0000    0     1.008  -11.478574  -12.791348   -1.740948
   8 H     1.0000    0     1.008   -7.096205  -12.627887   -0.172797
   9 H     1.0000    0     1.008   -9.225303  -11.782178    2.205103
  10 H     1.0000    0     1.008   -7.481577   -9.452202    0.645209

--------------------------------
INTERNAL COORDINATES (ANGSTROEM)
--------------------------------
 C      0   0   0     0.000000000000     0.00000000     0.00000000
 S      1   0   0     1.807536573821     0.00000000     0.00000000
 O      2   1   0     1.432165109685   106.56208582     0.00000000
 O      2   1   3     1.475457301686   105.16666730   238.45210070
 O      2   1   3     1.479009271032   106.30854122   122.18883319
 C      1   2   3     1.534131955016   118.93292281   220.05041070
 H      1   2   3     1.090536870491   104.48290251    94.52506513
 H      1   2   3     1.089278064867   104.85705990   341.96808105
 H      6   1   2     1.069995555972   109.47104647   179.99982600
 H      6   1   2     1.070008126371   109.47102823    60.00051838
 H      6   1   2     1.069991521649   109.47204847   300.00069232

---------------------------
INTERNAL COORDINATES (A.U.)
---------------------------
 C      0   0   0     0.000000000000     0.00000000     0.00000000
 S      1   0   0     3.415749101568     0.00000000     0.00000000
 O      2   1   0     2.706399835863   106.56208582     0.00000000
 O      2   1   3     2.788210222482   105.16666730   238.45210070
 O      2   1   3     2.794922471782   106.30854122   122.18883319
 C      1   2   3     2.899089248277   118.93292281   220.05041070
 H      1   2   3     2.060816024171   104.48290251    94.52506513
 H      1   2   3     2.058437226286   104.85705990   341.96808105
 H      6   1   2     2.021998565300   109.47104647   179.99982600
 H      6   1   2     2.022022319911   109.47102823    60.00051838
 H      6   1   2     2.021990941534   109.47204847   300.00069232

---------------------
BASIS SET INFORMATION
---------------------
There are 4 groups of distinct atoms

 Group   1 Type C   : 7s4p1d contracted to 3s2p1d pattern {511/31/1}
 Group   2 Type S   : 10s7p1d contracted to 4s3p1d pattern {5311/511/1}
 Group   3 Type O   : 7s4p1d contracted to 3s2p1d pattern {511/31/1}
 Group   4 Type H   : 4s1p contracted to 2s1p pattern {31/1}

Atom   0C    basis set group =>   1
Atom   1S    basis set group =>   2
Atom   2O    basis set group =>   3
Atom   3O    basis set group =>   3
Atom   4O    basis set group =>   3
Atom   5C    basis set group =>   1
Atom   6H    basis set group =>   4
Atom   7H    basis set group =>   4
Atom   8H    basis set group =>   4
Atom   9H    basis set group =>   4
Atom  10H    basis set group =>   4
---------------------------------
AUXILIARY/J BASIS SET INFORMATION
---------------------------------
There are 4 groups of distinct atoms

 Group   1 Type C   : 12s5p4d2f1g contracted to 6s4p3d1f1g pattern {711111/2111/211/2/1}
 Group   2 Type S   : 14s5p5d2f1g contracted to 8s4p3d1f1g pattern {71111111/2111/311/2/1}
 Group   3 Type O   : 12s5p4d2f1g contracted to 6s4p3d1f1g pattern {711111/2111/211/2/1}
 Group   4 Type H   : 5s2p1d contracted to 3s1p1d pattern {311/2/1}

Atom   0C    basis set group =>   1
Atom   1S    basis set group =>   2
Atom   2O    basis set group =>   3
Atom   3O    basis set group =>   3
Atom   4O    basis set group =>   3
Atom   5C    basis set group =>   1
Atom   6H    basis set group =>   4
Atom   7H    basis set group =>   4
Atom   8H    basis set group =>   4
Atom   9H    basis set group =>   4
Atom  10H    basis set group =>   4


           ************************************************************
           *        Program running with 4 parallel MPI-processes     *
           *              working on a common directory               *
           ************************************************************
------------------------------------------------------------------------------
                           ORCA GTO INTEGRAL CALCULATION
                           -- RI-GTO INTEGRALS CHOSEN --
------------------------------------------------------------------------------
------------------------------------------------------------------------------
                   ___                                                        
                  /   \      - P O W E R E D   B Y -                         
                 /     \                                                     
                 |  |  |   _    _      __       _____    __    __             
                 |  |  |  | |  | |    /  \     |  _  \  |  |  /  |          
                  \  \/   | |  | |   /    \    | | | |  |  | /  /          
                 / \  \   | |__| |  /  /\  \   | |_| |  |  |/  /          
                |  |  |   |  __  | /  /__\  \  |    /   |      \           
                |  |  |   | |  | | |   __   |  |    \   |  |\   \          
                \     /   | |  | | |  |  |  |  | |\  \  |  | \   \       
                 \___/    |_|  |_| |__|  |__|  |_| \__\ |__|  \__/        
                                                                              
                      - O R C A' S   B I G   F R I E N D -                    
                                      &                                       
                       - I N T E G R A L  F E E D E R -                       
                                                                              
 v1 FN, 2020, v2 2021                                                         
------------------------------------------------------------------------------


Reading SHARK input file SVP_BLYP_A_wt_dlpno_neg.SHARKINP.tmp ... ok
----------------------
SHARK INTEGRAL PACKAGE
----------------------

Number of atoms                             ...     11
Number of basis functions                   ...    113
Number of shells                            ...     53
Maximum angular momentum                    ...      2
Integral batch strategy                     ... SHARK/LIBINT Hybrid
RI-J (if used) integral strategy            ... SPLIT-RIJ (Revised 2003 algorithm where possible)
Printlevel                                  ...      1
Contraction scheme used                     ... SEGMENTED contraction
Coulomb Range Separation                    ... NOT USED
Exchange Range Separation                   ... NOT USED
Finite Nucleus Model                        ... NOT USED
Auxiliary Coulomb fitting basis             ... AVAILABLE
   # of basis functions in Aux-J            ...    351
   # of shells in Aux-J                     ...    117
   Maximum angular momentum in Aux-J        ...      4
Auxiliary J/K fitting basis                 ... NOT available
Auxiliary Correlation fitting basis         ... NOT available
Auxiliary 'external' fitting basis          ... NOT available
Integral threshold                          ...     2.500000e-11
Primitive cut-off                           ...     2.500000e-12
Primitive pair pre-selection threshold      ...     2.500000e-12

Calculating pre-screening integrals         ... done (  0.0 sec) Dimension = 53
Organizing shell pair data                  ... done (  0.0 sec)
Shell pair information
Total number of shell pairs                 ...      1431
Shell pairs after pre-screening             ...      1383
Total number of primitive shell pairs       ...      5459
Primitive shell pairs kept                  ...      3994
          la=0 lb=0:    415 shell pairs
          la=1 lb=0:    505 shell pairs
          la=1 lb=1:    167 shell pairs
          la=2 lb=0:    170 shell pairs
          la=2 lb=1:    105 shell pairs
          la=2 lb=2:     21 shell pairs

Calculating one electron integrals          ... done (  0.0 sec)
Calculating RI/J V-Matrix + Cholesky decomp.... done (  0.0 sec)
Calculating Nuclear repulsion               ... done (  0.0 sec) ENN=    348.101115631751 Eh

SHARK setup successfully completed in   0.1 seconds

Maximum memory used throughout the entire GTOINT-calculation: 8.8 MB


           ************************************************************
           *        Program running with 4 parallel MPI-processes     *
           *              working on a common directory               *
           ************************************************************
-------------------------------------------------------------------------------
                                 ORCA SCF
-------------------------------------------------------------------------------

------------
SCF SETTINGS
------------
Hamiltonian:
 Density Functional     Method          .... DFT(GTOs)
 Exchange Functional    Exchange        .... B88
   X-Alpha parameter    XAlpha          ....  0.666667
   Becke's b parameter  XBeta           ....  0.004200
 Correlation Functional Correlation     .... LYP
 Gradients option       PostSCFGGA      .... off
   Density functional embedding theory  .... OFF
   NL short-range parameter             ....  4.000000
 RI-approximation to the Coulomb term is turned on
   Number of AuxJ basis functions       .... 351


General Settings:
 Integral files         IntName         .... SVP_BLYP_A_wt_dlpno_neg
 Hartree-Fock type      HFTyp           .... RHF
 Total Charge           Charge          ....   -1
 Multiplicity           Mult            ....    1
 Number of Electrons    NEL             ....   58
 Basis Dimension        Dim             ....  113
 Nuclear Repulsion      ENuc            ....    348.1011156318 Eh

Convergence Acceleration:
 DIIS                   CNVDIIS         .... on
   Start iteration      DIISMaxIt       ....    12
   Startup error        DIISStart       ....  0.200000
   # of expansion vecs  DIISMaxEq       ....     5
   Bias factor          DIISBfac        ....   1.050
   Max. coefficient     DIISMaxC        ....  10.000
 Trust-Rad. Augm. Hess. CNVTRAH         .... auto
   Auto Start mean grad. ratio tolernc. ....  1.125000
   Auto Start start iteration           ....    20
   Auto Start num. interpolation iter.  ....    10
   Max. Number of Micro iterations      ....    16
   Max. Number of Macro iterations      .... Maxiter - #DIIS iter
   Number of Davidson start vectors     ....     2
   Converg. threshold I  (grad. norm)   ....   1.000e-05
   Converg. threshold II (energy diff.) ....   1.000e-08
   Grad. Scal. Fac. for Micro threshold ....   0.100
   Minimum threshold for Micro iter.    ....   0.010
   NR start threshold (gradient norm)   ....   0.001
   Initial trust radius                 ....   0.400
   Minimum AH scaling param. (alpha)    ....   1.000
   Maximum AH scaling param. (alpha)    .... 1000.000
   Orbital update algorithm             .... Taylor
   White noise on init. David. guess    .... on
   Maximum white noise                  ....   0.010
   Quad. conv. algorithm                .... NR
 SOSCF                  CNVSOSCF        .... on
   Start iteration      SOSCFMaxIt      ....   150
   Startup grad/error   SOSCFStart      ....  0.003300
 Level Shifting         CNVShift        .... on
   Level shift para.    LevelShift      ....    0.2500
   Turn off err/grad.   ShiftErr        ....    0.0010
 Zerner damping         CNVZerner       .... off
 Static damping         CNVDamp         .... on
   Fraction old density DampFac         ....    0.7000
   Max. Damping (<1)    DampMax         ....    0.9800
   Min. Damping (>=0)   DampMin         ....    0.0000
   Turn off err/grad.   DampErr         ....    0.1000
 Fernandez-Rico         CNVRico         .... off

SCF Procedure:
 Maximum # iterations   MaxIter         ....   150
 SCF integral mode      SCFMode         .... Direct
   Integral package                     .... SHARK and LIBINT hybrid scheme
 Reset frequency        DirectResetFreq ....    20
 Integral Threshold     Thresh          ....  2.500e-11 Eh
 Primitive CutOff       TCut            ....  2.500e-12 Eh

Convergence Tolerance:
 Convergence Check Mode ConvCheckMode   .... Total+1el-Energy
 Convergence forced     ConvForced      .... 0
 Energy Change          TolE            ....  1.000e-08 Eh
 1-El. energy change                    ....  1.000e-05 Eh
 Orbital Gradient       TolG            ....  1.000e-05
 Orbital Rotation angle TolX            ....  1.000e-05
 DIIS Error             TolErr          ....  5.000e-07


Diagonalization of the overlap matrix:
Smallest eigenvalue                        ... 3.016e-03
Time for diagonalization                   ...    0.004 sec
Threshold for overlap eigenvalues          ... 1.000e-08
Number of eigenvalues below threshold      ... 0
Time for construction of square roots      ...    0.003 sec
Total time needed                          ...    0.007 sec

Time for model grid setup =    0.089 sec

------------------------------
INITIAL GUESS: MODEL POTENTIAL
------------------------------
Loading Hartree-Fock densities                     ... done
Calculating cut-offs                               ... done
Initializing the effective Hamiltonian             ... done
Setting up the integral package (SHARK)            ... done
Starting the Coulomb interaction                   ... done (   0.0 sec)
Reading the grid                                   ... done
Mapping shells                                     ... done
Starting the XC term evaluation                    ... done (   0.0 sec)
  promolecular density results
     # of electrons  =     56.997097991
     EX              =    -61.483636271
     EC              =     -2.098912114
     EX+EC           =    -63.582548385
Transforming the Hamiltonian                       ... done (   0.0 sec)
Diagonalizing the Hamiltonian                      ... done (   0.0 sec)
Back transforming the eigenvectors                 ... done (   0.0 sec)
Now organizing SCF variables                       ... done
                      ------------------
                      INITIAL GUESS DONE (   0.2 sec)
                      ------------------
-------------------
DFT GRID GENERATION
-------------------

General Integration Accuracy     IntAcc      ... 4.388
Radial Grid Type                 RadialGrid  ... OptM3 with GC (2021)
Angular Grid (max. ang.)         AngularGrid ... 4 (Lebedev-302)
Angular grid pruning method      GridPruning ... 4 (adaptive)
Weight generation scheme         WeightScheme... Becke
Basis function cutoff            BFCut       ... 1.0000e-11
Integration weight cutoff        WCut        ... 1.0000e-14
Angular grids for H and He will be reduced by one unit
Partially contracted basis set               ... off
Rotationally invariant grid construction     ... off

Total number of grid points                  ...    53860
Total number of batches                      ...      848
Average number of points per batch           ...       63
Average number of grid points per atom       ...     4896
Time for grid setup =    0.347 sec

--------------
SCF ITERATIONS
--------------
ITER       Energy         Delta-E        Max-DP      RMS-DP      [F,P]     Damp
               ***  Starting incremental Fock matrix formation  ***
  0   -702.1822685693   0.000000000000 0.21986829  0.00629491  0.3165081 0.7000
  1   -702.4043737207  -0.222105151366 0.12561722  0.00398882  0.1076394 0.7000
                               ***Turning on DIIS***
  2   -702.4667842212  -0.062410500576 0.18445937  0.00563480  0.0313310 0.0000
  3   -702.5962838650  -0.129499643732 0.09159083  0.00258995  0.0580888 0.0000
  4   -702.6133049182  -0.017021053219 0.03437552  0.00094047  0.0215315 0.0000
  5   -702.6158853777  -0.002580459472 0.01338717  0.00039145  0.0046282 0.0000
                      *** Initiating the SOSCF procedure ***
                           *** Shutting down DIIS ***
                      *** Re-Reading the Fockian *** 
                      *** Removing any level shift *** 
ITER      Energy       Delta-E        Grad      Rot      Max-DP    RMS-DP
  6   -702.61602978  -0.0001444069  0.000490  0.000490  0.004919  0.000149
               *** Restarting incremental Fock matrix formation ***
  7   -702.61605384  -0.0000240527  0.000300  0.001501  0.005241  0.000147
  8   -702.61605300   0.0000008396  0.000339  0.000336  0.000992  0.000040
  9   -702.61605619  -0.0000031955  0.000135  0.000524  0.002204  0.000060
 10   -702.61605612   0.0000000713  0.000129  0.000127  0.000621  0.000019
 11   -702.61605672  -0.0000006028  0.000039  0.000161  0.000612  0.000017
 12   -702.61605666   0.0000000683  0.000095  0.000077  0.000318  0.000009
 13   -702.61605677  -0.0000001092  0.000005  0.000016  0.000067  0.000002
 14   -702.61605677  -0.0000000016  0.000006  0.000005  0.000023  0.000001
                  ***Gradient check signals convergence***
              ***Rediagonalizing the Fockian in SOSCF/NRSCF***

               *****************************************************
               *                     SUCCESS                       *
               *           SCF CONVERGED AFTER  15 CYCLES          *
               *****************************************************


----------------
TOTAL SCF ENERGY
----------------

Total Energy       :         -702.61605677 Eh          -19119.15490 eV

Components:
Nuclear Repulsion  :          348.10111563 Eh            9472.31292 eV
Electronic Energy  :        -1050.71717240 Eh          -28591.46782 eV
One Electron Energy:        -1670.07989333 Eh          -45445.18429 eV
Two Electron Energy:          619.36272093 Eh           16853.71646 eV

Virial components:
Potential Energy   :        -1402.32259200 Eh          -38159.13770 eV
Kinetic Energy     :          699.70653523 Eh           19039.98280 eV
Virial Ratio       :            2.00415820


DFT components:
N(Alpha)           :       29.000004982186 electrons
N(Beta)            :       29.000004982186 electrons
N(Total)           :       58.000009964372 electrons
E(X)               :      -62.461519257907 Eh       
E(C)               :       -2.139372549267 Eh       
E(XC)              :      -64.600891807174 Eh       
DFET-embed. en.    :        0.000000000000 Eh       

---------------
SCF CONVERGENCE
---------------

  Last Energy change         ...    1.8057e-09  Tolerance :   1.0000e-08
  Last MAX-Density change    ...    2.6041e-05  Tolerance :   1.0000e-07
  Last RMS-Density change    ...    7.2932e-07  Tolerance :   5.0000e-09
  Last Orbital Gradient      ...    2.4215e-06  Tolerance :   1.0000e-05
  Last Orbital Rotation      ...    7.0251e-06  Tolerance :   1.0000e-05

             **** THE GBW FILE WAS UPDATED (SVP_BLYP_A_wt_dlpno_neg.gbw) ****
             **** DENSITY SVP_BLYP_A_wt_dlpno_neg.scfp WAS UPDATED ****
             **** ENERGY FILE WAS UPDATED (SVP_BLYP_A_wt_dlpno_neg.en.tmp) ****
             **** THE GBW FILE WAS UPDATED (SVP_BLYP_A_wt_dlpno_neg.gbw) ****
             **** DENSITY SVP_BLYP_A_wt_dlpno_neg.scfp WAS UPDATED ****
----------------
ORBITAL ENERGIES
----------------

  NO   OCC          E(Eh)            E(eV) 
   0   2.0000     -88.079080     -2396.7536 
   1   2.0000     -18.528779      -504.1937 
   2   2.0000     -18.515170      -503.8234 
   3   2.0000     -18.512124      -503.7405 
   4   2.0000      -9.772923      -265.9348 
   5   2.0000      -9.761114      -265.6134 
   6   2.0000      -7.622701      -207.4242 
   7   2.0000      -5.657243      -153.9414 
   8   2.0000      -5.657167      -153.9393 
   9   2.0000      -5.656941      -153.9332 
  10   2.0000      -0.792708       -21.5707 
  11   2.0000      -0.656453       -17.8630 
  12   2.0000      -0.632523       -17.2118 
  13   2.0000      -0.531832       -14.4719 
  14   2.0000      -0.418741       -11.3945 
  15   2.0000      -0.291297        -7.9266 
  16   2.0000      -0.249939        -6.8012 
  17   2.0000      -0.230174        -6.2634 
  18   2.0000      -0.200050        -5.4436 
  19   2.0000      -0.178274        -4.8511 
  20   2.0000      -0.172504        -4.6941 
  21   2.0000      -0.152301        -4.1443 
  22   2.0000      -0.148803        -4.0491 
  23   2.0000      -0.056123        -1.5272 
  24   2.0000      -0.054322        -1.4782 
  25   2.0000      -0.031482        -0.8567 
  26   2.0000      -0.019436        -0.5289 
  27   2.0000      -0.009286        -0.2527 
  28   2.0000       0.026810         0.7295 
  29   0.0000       0.180101         4.9008 
  30   0.0000       0.233621         6.3571 
  31   0.0000       0.238034         6.4772 
  32   0.0000       0.242835         6.6079 
  33   0.0000       0.263914         7.1815 
  34   0.0000       0.288324         7.8457 
  35   0.0000       0.309073         8.4103 
  36   0.0000       0.360505         9.8098 
  37   0.0000       0.376035        10.2324 
  38   0.0000       0.403061        10.9679 
  39   0.0000       0.533641        14.5211 
  40   0.0000       0.545100        14.8329 
  41   0.0000       0.577286        15.7087 
  42   0.0000       0.598788        16.2939 
  43   0.0000       0.633393        17.2355 
  44   0.0000       0.681761        18.5516 
  45   0.0000       0.727106        19.7856 
  46   0.0000       0.749011        20.3816 
  47   0.0000       0.768141        20.9022 
  48   0.0000       0.770470        20.9655 
  49   0.0000       0.783691        21.3253 
  50   0.0000       0.792455        21.5638 
  51   0.0000       0.859878        23.3985 
  52   0.0000       0.871980        23.7278 
  53   0.0000       0.880836        23.9688 
  54   0.0000       0.911476        24.8025 
  55   0.0000       0.917729        24.9727 
  56   0.0000       0.948693        25.8153 
  57   0.0000       0.999478        27.1972 
  58   0.0000       1.022512        27.8240 
  59   0.0000       1.052272        28.6338 
  60   0.0000       1.111932        30.2572 
  61   0.0000       1.132479        30.8163 
  62   0.0000       1.160676        31.5836 
  63   0.0000       1.193376        32.4734 
  64   0.0000       1.218575        33.1591 
  65   0.0000       1.241166        33.7738 
  66   0.0000       1.259817        34.2814 
  67   0.0000       1.310840        35.6698 
  68   0.0000       1.344092        36.5746 
  69   0.0000       1.395802        37.9817 
  70   0.0000       1.449133        39.4329 
  71   0.0000       1.459405        39.7124 
  72   0.0000       1.499894        40.8142 
  73   0.0000       1.519168        41.3387 
  74   0.0000       1.617102        44.0036 
  75   0.0000       1.646701        44.8090 
  76   0.0000       1.708193        46.4823 
  77   0.0000       1.771679        48.2098 
  78   0.0000       1.834857        49.9290 
  79   0.0000       1.859445        50.5981 
  80   0.0000       1.879824        51.1526 
  81   0.0000       1.909790        51.9680 
  82   0.0000       1.954302        53.1793 
  83   0.0000       1.981408        53.9168 
  84   0.0000       1.993776        54.2534 
  85   0.0000       2.066190        56.2239 
  86   0.0000       2.195642        59.7465 
  87   0.0000       2.296230        62.4836 
  88   0.0000       2.342647        63.7467 
  89   0.0000       2.482609        67.5552 
  90   0.0000       2.507887        68.2431 
  91   0.0000       2.621997        71.3482 
  92   0.0000       2.677719        72.8644 
  93   0.0000       2.732232        74.3478 
  94   0.0000       2.777118        75.5692 
  95   0.0000       2.785605        75.8002 
  96   0.0000       2.795659        76.0737 
  97   0.0000       2.799483        76.1778 
  98   0.0000       2.806393        76.3658 
  99   0.0000       2.823247        76.8245 
 100   0.0000       2.845857        77.4397 
 101   0.0000       2.898216        78.8645 
 102   0.0000       2.919621        79.4469 
 103   0.0000       2.984046        81.2000 
 104   0.0000       3.017360        82.1065 
 105   0.0000       3.032626        82.5219 
 106   0.0000       3.060705        83.2860 
 107   0.0000       3.116434        84.8025 
 108   0.0000       3.189160        86.7814 
 109   0.0000       3.193677        86.9044 
 110   0.0000       3.363406        91.5229 
 111   0.0000       3.564130        96.9849 
 112   0.0000       3.584584        97.5415 

                    ********************************
                    * MULLIKEN POPULATION ANALYSIS *
                    ********************************

-----------------------
MULLIKEN ATOMIC CHARGES
-----------------------
   0 C :   -0.026077
   1 S :    0.763069
   2 O :   -0.518028
   3 O :   -0.569151
   4 O :   -0.560680
   5 C :    0.124832
   6 H :   -0.039285
   7 H :   -0.047039
   8 H :   -0.070005
   9 H :   -0.029915
  10 H :   -0.027721
Sum of atomic charges:   -1.0000000

--------------------------------
MULLIKEN REDUCED ORBITAL CHARGES
--------------------------------
  0 C s       :     3.014216  s :     3.014216
      pz      :     1.000840  p :     2.978622
      px      :     0.983526
      py      :     0.994256
      dz2     :     0.008847  d :     0.033239
      dxz     :     0.006528
      dyz     :     0.003146
      dx2y2   :     0.004784
      dxy     :     0.009935
  1 S s       :     5.317076  s :     5.317076
      pz      :     2.996773  p :     9.092899
      px      :     3.053630
      py      :     3.042496
      dz2     :     0.192414  d :     0.826956
      dxz     :     0.152570
      dyz     :     0.166122
      dx2y2   :     0.132840
      dxy     :     0.183010
  2 O s       :     3.798156  s :     3.798156
      pz      :     1.665875  p :     4.703242
      px      :     1.411662
      py      :     1.625705
      dz2     :     0.002091  d :     0.016630
      dxz     :     0.003997
      dyz     :     0.001339
      dx2y2   :     0.004522
      dxy     :     0.004681
  3 O s       :     3.825144  s :     3.825144
      pz      :     1.611450  p :     4.729222
      px      :     1.689227
      py      :     1.428544
      dz2     :     0.002272  d :     0.014785
      dxz     :     0.001475
      dyz     :     0.004629
      dx2y2   :     0.003350
      dxy     :     0.003059
  4 O s       :     3.825159  s :     3.825159
      pz      :     1.323587  p :     4.720892
      px      :     1.708163
      py      :     1.689141
      dz2     :     0.006344  d :     0.014630
      dxz     :     0.003619
      dyz     :     0.004051
      dx2y2   :     0.000323
      dxy     :     0.000293
  5 C s       :     2.884573  s :     2.884573
      pz      :     1.006889  p :     2.961532
      px      :     0.981047
      py      :     0.973596
      dz2     :     0.007484  d :     0.029064
      dxz     :     0.006174
      dyz     :     0.003472
      dx2y2   :     0.002588
      dxy     :     0.009345
  6 H s       :     1.016695  s :     1.016695
      pz      :     0.011163  p :     0.022590
      px      :     0.005602
      py      :     0.005825
  7 H s       :     1.024259  s :     1.024259
      pz      :     0.005248  p :     0.022780
      px      :     0.006730
      py      :     0.010802
  8 H s       :     1.045792  s :     1.045792
      pz      :     0.006139  p :     0.024213
      px      :     0.008663
      py      :     0.009411
  9 H s       :     1.006000  s :     1.006000
      pz      :     0.011251  p :     0.023915
      px      :     0.006616
      py      :     0.006047
 10 H s       :     1.003743  s :     1.003743
      pz      :     0.005298  p :     0.023978
      px      :     0.006694
      py      :     0.011986


                     *******************************
                     * LOEWDIN POPULATION ANALYSIS *
                     *******************************

----------------------
LOEWDIN ATOMIC CHARGES
----------------------
   0 C :   -0.184059
   1 S :    1.060283
   2 O :   -0.576339
   3 O :   -0.625102
   4 O :   -0.620968
   5 C :   -0.057433
   6 H :   -0.001546
   7 H :   -0.004783
   8 H :   -0.006308
   9 H :    0.007339
  10 H :    0.008916

-------------------------------
LOEWDIN REDUCED ORBITAL CHARGES
-------------------------------
  0 C s       :     2.913576  s :     2.913576
      pz      :     1.056882  p :     3.189189
      px      :     1.056953
      py      :     1.075354
      dz2     :     0.020650  d :     0.081294
      dxz     :     0.019010
      dyz     :     0.006589
      dx2y2   :     0.011605
      dxy     :     0.023441
  1 S s       :     5.021175  s :     5.021175
      pz      :     2.922535  p :     8.814350
      px      :     2.949175
      py      :     2.942640
      dz2     :     0.267722  d :     1.104192
      dxz     :     0.188991
      dyz     :     0.222300
      dx2y2   :     0.169556
      dxy     :     0.255624
  2 O s       :     3.664597  s :     3.664597
      pz      :     1.697949  p :     4.884002
      px      :     1.518907
      py      :     1.667146
      dz2     :     0.003588  d :     0.027740
      dxz     :     0.006376
      dyz     :     0.002090
      dx2y2   :     0.006965
      dxy     :     0.008720
  3 O s       :     3.693895  s :     3.693895
      pz      :     1.667106  p :     4.906419
      px      :     1.714015
      py      :     1.525298
      dz2     :     0.002998  d :     0.024788
      dxz     :     0.002189
      dyz     :     0.009281
      dx2y2   :     0.005771
      dxy     :     0.004549
  4 O s       :     3.696146  s :     3.696146
      pz      :     1.454640  p :     4.900296
      px      :     1.730485
      py      :     1.715172
      dz2     :     0.013232  d :     0.024526
      dxz     :     0.004585
      dyz     :     0.005959
      dx2y2   :     0.000403
      dxy     :     0.000348
  5 C s       :     2.823192  s :     2.823192
      pz      :     1.054978  p :     3.158420
      px      :     1.043919
      py      :     1.059523
      dz2     :     0.018067  d :     0.075821
      dxz     :     0.018370
      dyz     :     0.008160
      dx2y2   :     0.007333
      dxy     :     0.023890
  6 H s       :     0.930144  s :     0.930144
      pz      :     0.036513  p :     0.071402
      px      :     0.019058
      py      :     0.015830
  7 H s       :     0.933146  s :     0.933146
      pz      :     0.013923  p :     0.071637
      px      :     0.019766
      py      :     0.037948
  8 H s       :     0.937517  s :     0.937517
      pz      :     0.017458  p :     0.068790
      px      :     0.025672
      py      :     0.025661
  9 H s       :     0.923309  s :     0.923309
      pz      :     0.035608  p :     0.069352
      px      :     0.019208
      py      :     0.014536
 10 H s       :     0.922566  s :     0.922566
      pz      :     0.014639  p :     0.068518
      px      :     0.018736
      py      :     0.035143


                      *****************************
                      * MAYER POPULATION ANALYSIS *
                      *****************************

  NA   - Mulliken gross atomic population
  ZA   - Total nuclear charge
  QA   - Mulliken gross atomic charge
  VA   - Mayer's total valence
  BVA  - Mayer's bonded valence
  FA   - Mayer's free valence

  ATOM       NA         ZA         QA         VA         BVA        FA
  0 C      6.0261     6.0000    -0.0261     3.9961     3.9961    -0.0000
  1 S     15.2369    16.0000     0.7631     5.7875     5.7875    -0.0000
  2 O      8.5180     8.0000    -0.5180     1.8874     1.8874    -0.0000
  3 O      8.5692     8.0000    -0.5692     1.8354     1.8354    -0.0000
  4 O      8.5607     8.0000    -0.5607     1.8616     1.8616     0.0000
  5 C      5.8752     6.0000     0.1248     3.9871     3.9871    -0.0000
  6 H      1.0393     1.0000    -0.0393     1.0151     1.0151    -0.0000
  7 H      1.0470     1.0000    -0.0470     1.0077     1.0077    -0.0000
  8 H      1.0700     1.0000    -0.0700     0.9784     0.9784    -0.0000
  9 H      1.0299     1.0000    -0.0299     1.0252     1.0252    -0.0000
 10 H      1.0277     1.0000    -0.0277     1.0061     1.0061     0.0000

  Mayer bond orders larger than 0.100000
B(  0-C ,  1-S ) :   0.8556 B(  0-C ,  5-C ) :   1.1001 B(  0-C ,  6-H ) :   0.9284 
B(  0-C ,  7-H ) :   0.9270 B(  1-S ,  2-O ) :   1.6595 B(  1-S ,  3-O ) :   1.6082 
B(  1-S ,  4-O ) :   1.6173 B(  5-C ,  8-H ) :   0.9407 B(  5-C ,  9-H ) :   0.9553 
B(  5-C , 10-H ) :   0.9590 

-------
TIMINGS
-------

Total SCF time: 0 days 0 hours 0 min 3 sec 

Total time                  ....       3.080 sec
Sum of individual times     ....       2.940 sec  ( 95.5%)

Fock matrix formation       ....       2.362 sec  ( 76.7%)
  Split-RI-J                ....       0.616 sec  ( 26.1% of F)
  XC integration            ....       1.718 sec  ( 72.7% of F)
    Basis function eval.    ....       0.752 sec  ( 43.8% of XC)
    Density eval.           ....       0.358 sec  ( 20.9% of XC)
    XC-Functional eval.     ....       0.161 sec  (  9.4% of XC)
    XC-Potential eval.      ....       0.319 sec  ( 18.6% of XC)
Diagonalization             ....       0.025 sec  (  0.8%)
Density matrix formation    ....       0.003 sec  (  0.1%)
Population analysis         ....       0.005 sec  (  0.2%)
Initial guess               ....       0.068 sec  (  2.2%)
Orbital Transformation      ....       0.000 sec  (  0.0%)
Orbital Orthonormalization  ....       0.000 sec  (  0.0%)
DIIS solution               ....       0.018 sec  (  0.6%)
SOSCF solution              ....       0.024 sec  (  0.8%)
Grid generation             ....       0.436 sec  ( 14.2%)

Maximum memory used throughout the entire SCF-calculation: 15.9 MB


-------------------------------------------------------------------------------
                          DFT DISPERSION CORRECTION                            
                                                                               
                              DFTD3 V3.1  Rev 1                                
                          USING Becke-Johnson damping                          
-------------------------------------------------------------------------------
The BLYP functional is recognized
Active option DFTDOPT                   ...         4   

molecular C6(AA) [au] = 1522.574213 


            DFT-D V3
 parameters
 s6 scaling factor         :     1.0000 
 a1 scaling factor         :     0.4298 
 s8 scaling factor         :     2.6996 
 a2 scaling factor         :     4.2359 
 ad hoc parameters k1-k3   :    16.0000     1.3333    -4.0000 

 Edisp/kcal,au: -12.673185304680  -0.020196004167 
 E6   /kcal   :  -4.855659155 
 E8   /kcal   :  -7.817526149 
 % E8         :  61.685566504 

-------------------------   ----------------
Dispersion correction           -0.020196004
-------------------------   ----------------


-------------------------   --------------------
FINAL SINGLE POINT ENERGY      -702.636252769510
-------------------------   --------------------


                            ***************************************
                            *     ORCA property calculations      *
                            ***************************************

                                    ---------------------
                                    Active property flags
                                    ---------------------
   (+) Dipole Moment


------------------------------------------------------------------------------
                       ORCA ELECTRIC PROPERTIES CALCULATION
------------------------------------------------------------------------------

Dipole Moment Calculation                       ... on
Quadrupole Moment Calculation                   ... off
Polarizability Calculation                      ... off
GBWName                                         ... SVP_BLYP_A_wt_dlpno_neg.gbw
Electron density file                           ... SVP_BLYP_A_wt_dlpno_neg.scfp
The origin for moment calculation is the CENTER OF MASS  = (-12.296080, -9.130664 -0.814482)

-------------
DIPOLE MOMENT
-------------
                                X             Y             Z
Electronic contribution:     -6.92700       4.52384      -0.89873
Nuclear contribution   :      8.13140      -5.68016       0.80206
                        -----------------------------------------
Total Dipole Moment    :      1.20441      -1.15632      -0.09667
                        -----------------------------------------
Magnitude (a.u.)       :      1.67243
Magnitude (Debye)      :      4.25097



--------------------
Rotational spectrum 
--------------------
 
Rotational constants in cm-1:     0.162101     0.080498     0.079099 
Rotational constants in MHz :  4859.669771  2413.267251  2371.338602 

 Dipole components along the rotational axes: 
x,y,z [a.u.] :    -1.544900    -0.640538     0.003111 
x,y,z [Debye]:    -3.926824    -1.628119     0.007907 

 

Timings for individual modules:

Sum of individual times         ...        6.939 sec (=   0.116 min)
GTO integral calculation        ...        1.973 sec (=   0.033 min)  28.4 %
SCF iterations                  ...        4.966 sec (=   0.083 min)  71.6 %
                             ****ORCA TERMINATED NORMALLY****
TOTAL RUN TIME: 0 days 0 hours 0 minutes 7 seconds 450 msec
