
                                        *****************
                                        * O   R   C   A *
                                        *****************

                                            #,                                       
                                            ###                                      
                                            ####                                     
                                            #####                                    
                                            ######                                   
                                           ########,                                 
                                     ,,################,,,,,                         
                               ,,#################################,,                 
                          ,,##########################################,,             
                       ,#########################################, ''#####,          
                    ,#############################################,,   '####,        
                  ,##################################################,,,,####,       
                ,###########''''           ''''###############################       
              ,#####''   ,,,,##########,,,,          '''####'''          '####       
            ,##' ,,,,###########################,,,                        '##       
           ' ,,###''''                  '''############,,,                           
         ,,##''                                '''############,,,,        ,,,,,,###''
      ,#''                                            '''#######################'''  
     '                                                          ''''####''''         
             ,#######,   #######,   ,#######,      ##                                
            ,#'     '#,  ##    ##  ,#'     '#,    #''#        ######   ,####,        
            ##       ##  ##   ,#'  ##            #'  '#       #        #'  '#        
            ##       ##  #######   ##           ,######,      #####,   #    #        
            '#,     ,#'  ##    ##  '#,     ,#' ,#      #,         ##   #,  ,#        
             '#######'   ##     ##  '#######'  #'      '#     #####' # '####'        



                  #######################################################
                  #                        -***-                        #
                  #          Department of theory and spectroscopy      #
                  #    Directorship and core code : Frank Neese         #
                  #        Max Planck Institute fuer Kohlenforschung    #
                  #                Kaiser Wilhelm Platz 1               #
                  #                 D-45470 Muelheim/Ruhr               #
                  #                      Germany                        #
                  #                                                     #
                  #                  All rights reserved                #
                  #                        -***-                        #
                  #######################################################


                         Program Version 5.0.0 -  RELEASE  -
                                (SVN: $Rev: 19529$)
                ($Date: 2021-06-28 11:36:33 +0200 (Mo, 28 Jun 2021) $)


 With contributions from (in alphabetic order):
   Daniel Aravena         : Magnetic Suceptibility
   Michael Atanasov       : Ab Initio Ligand Field Theory (pilot matlab implementation)
   Alexander A. Auer      : GIAO ZORA, VPT2 properties, NMR spectrum
   Ute Becker             : Parallelization
   Giovanni Bistoni       : ED, misc. LED, open-shell LED, HFLD
   Martin Brehm           : Molecular dynamics
   Dmytro Bykov           : SCF Hessian
   Vijay G. Chilkuri      : MRCI spin determinant printing, contributions to CSF-ICE
   Dipayan Datta          : RHF DLPNO-CCSD density
   Achintya Kumar Dutta   : EOM-CC, STEOM-CC
   Dmitry Ganyushin       : Spin-Orbit,Spin-Spin,Magnetic field MRCI
   Miquel Garcia          : C-PCM Hessian, Gaussian charge scheme
   Yang Guo               : DLPNO-NEVPT2, F12-NEVPT2, CIM, IAO-localization
   Andreas Hansen         : Spin unrestricted coupled pair/coupled cluster methods
   Benjamin Helmich-Paris : MC-RPA, TRAH-SCF, COSX integrals
   Lee Huntington         : MR-EOM, pCC
   Robert Izsak           : Overlap fitted RIJCOSX, COSX-SCS-MP3, EOM
   Marcus Kettner         : VPT2
   Christian Kollmar      : KDIIS, OOCD, Brueckner-CCSD(T), CCSD density, CASPT2, CASPT2-K
   Simone Kossmann        : Meta GGA functionals, TD-DFT gradient, OOMP2, MP2 Hessian
   Martin Krupicka        : Initial AUTO-CI
   Lucas Lang             : DCDCAS
   Marvin Lechner         : AUTO-CI (C++ implementation), FIC-MRCC
   Dagmar Lenk            : GEPOL surface, SMD
   Dimitrios Liakos       : Extrapolation schemes; Compound Job, initial MDCI parallelization
   Dimitrios Manganas     : Further ROCIS development; embedding schemes
   Dimitrios Pantazis     : SARC Basis sets
   Anastasios Papadopoulos: AUTO-CI, single reference methods and gradients
   Taras Petrenko         : DFT Hessian,TD-DFT gradient, ASA, ECA, R-Raman, ABS, FL, XAS/XES, NRVS
   Peter Pinski           : DLPNO-MP2, DLPNO-MP2 Gradient
   Christoph Reimann      : Effective Core Potentials
   Marius Retegan         : Local ZFS, SOC
   Christoph Riplinger    : Optimizer, TS searches, QM/MM, DLPNO-CCSD(T), (RO)-DLPNO pert. Triples
   Tobias Risthaus        : Range-separated hybrids, TD-DFT gradient, RPA, STAB
   Michael Roemelt        : Original ROCIS implementation
   Masaaki Saitow         : Open-shell DLPNO-CCSD energy and density
   Barbara Sandhoefer     : DKH picture change effects
   Avijit Sen             : IP-ROCIS
   Kantharuban Sivalingam : CASSCF convergence, NEVPT2, FIC-MRCI
   Bernardo de Souza      : ESD, SOC TD-DFT
   Georgi Stoychev        : AutoAux, RI-MP2 NMR
   Willem Van den Heuvel  : Paramagnetic NMR
   Boris Wezisla          : Elementary symmetry handling
   Frank Wennmohs         : Technical directorship


 We gratefully acknowledge several colleagues who have allowed us to
 interface, adapt or use parts of their codes:
   Stefan Grimme, W. Hujo, H. Kruse, P. Pracht,  : VdW corrections, initial TS optimization,
                  C. Bannwarth, S. Ehlert          DFT functionals, gCP, sTDA/sTD-DF
   Ed Valeev, F. Pavosevic, A. Kumar             : LibInt (2-el integral package), F12 methods
   Garnet Chan, S. Sharma, J. Yang, R. Olivares  : DMRG
   Ulf Ekstrom                                   : XCFun DFT Library
   Mihaly Kallay                                 : mrcc  (arbitrary order and MRCC methods)
   Jiri Pittner, Ondrej Demel                    : Mk-CCSD
   Frank Weinhold                                : gennbo (NPA and NBO analysis)
   Christopher J. Cramer and Donald G. Truhlar   : smd solvation model
   Lars Goerigk                                  : TD-DFT with DH, B97 family of functionals
   V. Asgeirsson, H. Jonsson                     : NEB implementation
   FAccTs GmbH                                   : IRC, NEB, NEB-TS, DLPNO-Multilevel, CI-OPT
                                                   MM, QMMM, 2- and 3-layer-ONIOM, Crystal-QMMM,
                                                   LR-CPCM, SF, NACMEs, symmetry and pop. for TD-DFT,
                                                   nearIR, NL-DFT gradient (VV10), updates on ESD,
                                                   ML-optimized integration grids
   S Lehtola, MJT Oliveira, MAL Marques          : LibXC Library
   Liviu Ungur et al                             : ANISO software


 Your calculation uses the libint2 library for the computation of 2-el integrals
 For citations please refer to: http://libint.valeyev.net

 Your ORCA version has been built with support for libXC version: 5.1.0
 For citations please refer to: https://tddft.org/programs/libxc/

 This ORCA versions uses:
   CBLAS   interface :  Fast vector & matrix operations
   LAPACKE interface :  Fast linear algebra routines
   SCALAPACK package :  Parallel linear algebra routines
   Shared memory     :  Shared parallel matrices
   BLAS/LAPACK       :  OpenBLAS 0.3.15  USE64BITINT DYNAMIC_ARCH NO_AFFINITY Haswell SINGLE_THREADED
        Core in use  :  Haswell
   Copyright (c) 2011-2014, The OpenBLAS Project


Your calculation utilizes the atom-pairwise dispersion correction
with the Becke-Johnson damping scheme (D3BJ)
Cite in your paper:
S.Grimme, S.Ehrlich, L.Goerigk, J Comput Chem, (2011), 32, 1456–1465 
S.Grimme, J.Antony, S.Ehrlich and H.Krieg, J.Chem.Phys., 132, (2010), 154104 
   

================================================================================

----- Orbital basis set information -----
Your calculation utilizes the basis: def2-SVP
   F. Weigend and R. Ahlrichs, Phys. Chem. Chem. Phys. 7, 3297 (2005).

----- AuxJ basis set information -----
Your calculation utilizes the auxiliary basis: def2/J
   F. Weigend, Phys. Chem. Chem. Phys. 8, 1057 (2006).

================================================================================
                                        WARNINGS
                       Please study these warnings very carefully!
================================================================================



WARNING: Found flag for RIJCOSX approximation but no HF exchange needed!
  ===> : RIJCOSX  will be disabled and Split-RI-J is turned on

INFO   : the flag for use of the SHARK integral package has been found!

================================================================================
                                       INPUT FILE
================================================================================
NAME = SVP_PBE_C1_wt_dlpno_neg.com
|  1> !PBE D3BJ RIJCOSX def2-SVP def2/J TightSCF
|  2> *xyz 0 1
|  3> C          2.49556        1.81615       -2.13636
|  4> C          1.87218        0.42790       -2.07750
|  5> H          2.61427       -0.36583       -2.19889
|  6> H          1.38995        0.27309       -1.11236
|  7> S          0.57902        0.14047       -3.29794
|  8> F          0.22886       -1.24687       -3.12787
|  9> O         -0.43927        1.11897       -3.01455
| 10> O          1.24788        0.40347       -4.59565
| 11> H          2.96535        1.95613       -3.08747
| 12> H          3.22581        1.91242       -1.36024
| 13> H          1.73350        2.55528       -2.00274
| 14> *
| 15> 
| 16> %MaxCore 64000
| 17> 
| 18> %pal nprocs 4
| 19> end  
| 20> 
| 21> %scf
| 22>   MaxIter 150
| 23> end
| 24> 
| 25> 
| 26>                          ****END OF INPUT****
================================================================================

                       ****************************
                       * Single Point Calculation *
                       ****************************

---------------------------------
CARTESIAN COORDINATES (ANGSTROEM)
---------------------------------
  C      2.495560    1.816150   -2.136360
  C      1.872180    0.427900   -2.077500
  H      2.614270   -0.365830   -2.198890
  H      1.389950    0.273090   -1.112360
  S      0.579020    0.140470   -3.297940
  F      0.228860   -1.246870   -3.127870
  O     -0.439270    1.118970   -3.014550
  O      1.247880    0.403470   -4.595650
  H      2.965350    1.956130   -3.087470
  H      3.225810    1.912420   -1.360240
  H      1.733500    2.555280   -2.002740

----------------------------
CARTESIAN COORDINATES (A.U.)
----------------------------
  NO LB      ZA    FRAG     MASS         X           Y           Z
   0 C     6.0000    0    12.011    4.715925    3.432026   -4.037135
   1 C     6.0000    0    12.011    3.537907    0.808614   -3.925906
   2 H     1.0000    0     1.008    4.940254   -0.691319   -4.155300
   3 H     1.0000    0     1.008    2.626625    0.516065   -2.102056
   4 S    16.0000    0    32.060    1.094189    0.265450   -6.232203
   5 F     9.0000    0    18.998    0.432483   -2.356243   -5.910818
   6 O     8.0000    0    15.999   -0.830100    2.114547   -5.696674
   7 O     8.0000    0    15.999    2.358151    0.762448   -8.684520
   8 H     1.0000    0     1.008    5.603699    3.696550   -5.834473
   9 H     1.0000    0     1.008    6.095897    3.613950   -2.570481
  10 H     1.0000    0     1.008    3.275840    4.828779   -3.784630

--------------------------------
INTERNAL COORDINATES (ANGSTROEM)
--------------------------------
 C      0   0   0     0.000000000000     0.00000000     0.00000000
 C      1   0   0     1.522926520388     0.00000000     0.00000000
 H      2   1   0     1.093361977160   112.31154333     0.00000000
 H      2   1   3     1.089957397608   110.16934889   119.40652228
 S      2   1   3     1.801208645355   114.40296888   237.46816637
 F      5   2   1     1.440919187914   104.36734258   175.27794274
 O      5   2   1     1.440377265233   105.41688411   299.48593912
 O      5   2   1     1.483439902288   103.92992138    57.15078243
 H      1   2   3     1.070003400275   109.47078833    60.59400396
 H      1   2   3     1.069997770932   109.47165530   300.59389070
 H      1   2   3     1.070001357429   109.47127925   180.59358257

---------------------------
INTERNAL COORDINATES (A.U.)
---------------------------
 C      0   0   0     0.000000000000     0.00000000     0.00000000
 C      1   0   0     2.877914045618     0.00000000     0.00000000
 H      2   1   0     2.066154702076   112.31154333     0.00000000
 H      2   1   3     2.059720979120   110.16934889   119.40652228
 S      2   1   3     3.403791049771   114.40296888   237.46816637
 F      5   2   1     2.722942646270   104.36734258   175.27794274
 O      5   2   1     2.721918560817   105.41688411   299.48593912
 O      5   2   1     2.803295151455   103.92992138    57.15078243
 H      1   2   3     2.022013388884   109.47078833    60.59400396
 H      1   2   3     2.022002750968   109.47165530   300.59389070
 H      1   2   3     2.022009528465   109.47127925   180.59358257

---------------------
BASIS SET INFORMATION
---------------------
There are 5 groups of distinct atoms

 Group   1 Type C   : 7s4p1d contracted to 3s2p1d pattern {511/31/1}
 Group   2 Type H   : 4s1p contracted to 2s1p pattern {31/1}
 Group   3 Type S   : 10s7p1d contracted to 4s3p1d pattern {5311/511/1}
 Group   4 Type F   : 7s4p1d contracted to 3s2p1d pattern {511/31/1}
 Group   5 Type O   : 7s4p1d contracted to 3s2p1d pattern {511/31/1}

Atom   0C    basis set group =>   1
Atom   1C    basis set group =>   1
Atom   2H    basis set group =>   2
Atom   3H    basis set group =>   2
Atom   4S    basis set group =>   3
Atom   5F    basis set group =>   4
Atom   6O    basis set group =>   5
Atom   7O    basis set group =>   5
Atom   8H    basis set group =>   2
Atom   9H    basis set group =>   2
Atom  10H    basis set group =>   2
---------------------------------
AUXILIARY/J BASIS SET INFORMATION
---------------------------------
There are 5 groups of distinct atoms

 Group   1 Type C   : 12s5p4d2f1g contracted to 6s4p3d1f1g pattern {711111/2111/211/2/1}
 Group   2 Type H   : 5s2p1d contracted to 3s1p1d pattern {311/2/1}
 Group   3 Type S   : 14s5p5d2f1g contracted to 8s4p3d1f1g pattern {71111111/2111/311/2/1}
 Group   4 Type F   : 12s5p4d2f1g contracted to 6s4p3d1f1g pattern {711111/2111/211/2/1}
 Group   5 Type O   : 12s5p4d2f1g contracted to 6s4p3d1f1g pattern {711111/2111/211/2/1}

Atom   0C    basis set group =>   1
Atom   1C    basis set group =>   1
Atom   2H    basis set group =>   2
Atom   3H    basis set group =>   2
Atom   4S    basis set group =>   3
Atom   5F    basis set group =>   4
Atom   6O    basis set group =>   5
Atom   7O    basis set group =>   5
Atom   8H    basis set group =>   2
Atom   9H    basis set group =>   2
Atom  10H    basis set group =>   2


           ************************************************************
           *        Program running with 4 parallel MPI-processes     *
           *              working on a common directory               *
           ************************************************************
------------------------------------------------------------------------------
                           ORCA GTO INTEGRAL CALCULATION
                           -- RI-GTO INTEGRALS CHOSEN --
------------------------------------------------------------------------------
------------------------------------------------------------------------------
                   ___                                                        
                  /   \      - P O W E R E D   B Y -                         
                 /     \                                                     
                 |  |  |   _    _      __       _____    __    __             
                 |  |  |  | |  | |    /  \     |  _  \  |  |  /  |          
                  \  \/   | |  | |   /    \    | | | |  |  | /  /          
                 / \  \   | |__| |  /  /\  \   | |_| |  |  |/  /          
                |  |  |   |  __  | /  /__\  \  |    /   |      \           
                |  |  |   | |  | | |   __   |  |    \   |  |\   \          
                \     /   | |  | | |  |  |  |  | |\  \  |  | \   \       
                 \___/    |_|  |_| |__|  |__|  |_| \__\ |__|  \__/        
                                                                              
                      - O R C A' S   B I G   F R I E N D -                    
                                      &                                       
                       - I N T E G R A L  F E E D E R -                       
                                                                              
 v1 FN, 2020, v2 2021                                                         
------------------------------------------------------------------------------


Reading SHARK input file SVP_PBE_C1_wt_dlpno_neg.SHARKINP.tmp ... ok
----------------------
SHARK INTEGRAL PACKAGE
----------------------

Number of atoms                             ...     11
Number of basis functions                   ...    113
Number of shells                            ...     53
Maximum angular momentum                    ...      2
Integral batch strategy                     ... SHARK/LIBINT Hybrid
RI-J (if used) integral strategy            ... SPLIT-RIJ (Revised 2003 algorithm where possible)
Printlevel                                  ...      1
Contraction scheme used                     ... SEGMENTED contraction
Coulomb Range Separation                    ... NOT USED
Exchange Range Separation                   ... NOT USED
Finite Nucleus Model                        ... NOT USED
Auxiliary Coulomb fitting basis             ... AVAILABLE
   # of basis functions in Aux-J            ...    351
   # of shells in Aux-J                     ...    117
   Maximum angular momentum in Aux-J        ...      4
Auxiliary J/K fitting basis                 ... NOT available
Auxiliary Correlation fitting basis         ... NOT available
Auxiliary 'external' fitting basis          ... NOT available
Integral threshold                          ...     2.500000e-11
Primitive cut-off                           ...     2.500000e-12
Primitive pair pre-selection threshold      ...     2.500000e-12

Calculating pre-screening integrals         ... done (  0.0 sec) Dimension = 53
Organizing shell pair data                  ... done (  0.0 sec)
Shell pair information
Total number of shell pairs                 ...      1431
Shell pairs after pre-screening             ...      1382
Total number of primitive shell pairs       ...      5459
Primitive shell pairs kept                  ...      3995
          la=0 lb=0:    416 shell pairs
          la=1 lb=0:    503 shell pairs
          la=1 lb=1:    167 shell pairs
          la=2 lb=0:    170 shell pairs
          la=2 lb=1:    105 shell pairs
          la=2 lb=2:     21 shell pairs

Calculating one electron integrals          ... done (  0.0 sec)
Calculating RI/J V-Matrix + Cholesky decomp.... done (  0.0 sec)
Calculating Nuclear repulsion               ... done (  0.0 sec) ENN=    363.228700908151 Eh

SHARK setup successfully completed in   0.1 seconds

Maximum memory used throughout the entire GTOINT-calculation: 8.8 MB


           ************************************************************
           *        Program running with 4 parallel MPI-processes     *
           *              working on a common directory               *
           ************************************************************
-------------------------------------------------------------------------------
                                 ORCA SCF
-------------------------------------------------------------------------------

------------
SCF SETTINGS
------------
Hamiltonian:
 Density Functional     Method          .... DFT(GTOs)
 Exchange Functional    Exchange        .... PBE
   PBE kappa parameter   XKappa         ....  0.804000
   PBE mue parameter    XMuePBE         ....  0.219520
 Correlation Functional Correlation     .... PBE
   PBE beta parameter  CBetaPBE         ....  0.066725
 LDA part of GGA corr.  LDAOpt          .... PW91-LDA
 Gradients option       PostSCFGGA      .... off
   Density functional embedding theory  .... OFF
   NL short-range parameter             ....  6.400000
 RI-approximation to the Coulomb term is turned on
   Number of AuxJ basis functions       .... 351


General Settings:
 Integral files         IntName         .... SVP_PBE_C1_wt_dlpno_neg
 Hartree-Fock type      HFTyp           .... RHF
 Total Charge           Charge          ....    0
 Multiplicity           Mult            ....    1
 Number of Electrons    NEL             ....   58
 Basis Dimension        Dim             ....  113
 Nuclear Repulsion      ENuc            ....    363.2287009082 Eh

Convergence Acceleration:
 DIIS                   CNVDIIS         .... on
   Start iteration      DIISMaxIt       ....    12
   Startup error        DIISStart       ....  0.200000
   # of expansion vecs  DIISMaxEq       ....     5
   Bias factor          DIISBfac        ....   1.050
   Max. coefficient     DIISMaxC        ....  10.000
 Trust-Rad. Augm. Hess. CNVTRAH         .... auto
   Auto Start mean grad. ratio tolernc. ....  1.125000
   Auto Start start iteration           ....    20
   Auto Start num. interpolation iter.  ....    10
   Max. Number of Micro iterations      ....    16
   Max. Number of Macro iterations      .... Maxiter - #DIIS iter
   Number of Davidson start vectors     ....     2
   Converg. threshold I  (grad. norm)   ....   1.000e-05
   Converg. threshold II (energy diff.) ....   1.000e-08
   Grad. Scal. Fac. for Micro threshold ....   0.100
   Minimum threshold for Micro iter.    ....   0.010
   NR start threshold (gradient norm)   ....   0.001
   Initial trust radius                 ....   0.400
   Minimum AH scaling param. (alpha)    ....   1.000
   Maximum AH scaling param. (alpha)    .... 1000.000
   Orbital update algorithm             .... Taylor
   White noise on init. David. guess    .... on
   Maximum white noise                  ....   0.010
   Quad. conv. algorithm                .... NR
 SOSCF                  CNVSOSCF        .... on
   Start iteration      SOSCFMaxIt      ....   150
   Startup grad/error   SOSCFStart      ....  0.003300
 Level Shifting         CNVShift        .... on
   Level shift para.    LevelShift      ....    0.2500
   Turn off err/grad.   ShiftErr        ....    0.0010
 Zerner damping         CNVZerner       .... off
 Static damping         CNVDamp         .... on
   Fraction old density DampFac         ....    0.7000
   Max. Damping (<1)    DampMax         ....    0.9800
   Min. Damping (>=0)   DampMin         ....    0.0000
   Turn off err/grad.   DampErr         ....    0.1000
 Fernandez-Rico         CNVRico         .... off

SCF Procedure:
 Maximum # iterations   MaxIter         ....   150
 SCF integral mode      SCFMode         .... Direct
   Integral package                     .... SHARK and LIBINT hybrid scheme
 Reset frequency        DirectResetFreq ....    20
 Integral Threshold     Thresh          ....  2.500e-11 Eh
 Primitive CutOff       TCut            ....  2.500e-12 Eh

Convergence Tolerance:
 Convergence Check Mode ConvCheckMode   .... Total+1el-Energy
 Convergence forced     ConvForced      .... 0
 Energy Change          TolE            ....  1.000e-08 Eh
 1-El. energy change                    ....  1.000e-05 Eh
 Orbital Gradient       TolG            ....  1.000e-05
 Orbital Rotation angle TolX            ....  1.000e-05
 DIIS Error             TolErr          ....  5.000e-07


Diagonalization of the overlap matrix:
Smallest eigenvalue                        ... 3.487e-03
Time for diagonalization                   ...    0.004 sec
Threshold for overlap eigenvalues          ... 1.000e-08
Number of eigenvalues below threshold      ... 0
Time for construction of square roots      ...    0.003 sec
Total time needed                          ...    0.007 sec

Time for model grid setup =    0.058 sec

------------------------------
INITIAL GUESS: MODEL POTENTIAL
------------------------------
Loading Hartree-Fock densities                     ... done
Calculating cut-offs                               ... done
Initializing the effective Hamiltonian             ... done
Setting up the integral package (SHARK)            ... done
Starting the Coulomb interaction                   ... done (   0.0 sec)
Reading the grid                                   ... done
Mapping shells                                     ... done
Starting the XC term evaluation                    ... done (   0.0 sec)
  promolecular density results
     # of electrons  =     57.996252223
     EX              =    -63.056068802
     EC              =     -2.063836650
     EX+EC           =    -65.119905453
Transforming the Hamiltonian                       ... done (   0.0 sec)
Diagonalizing the Hamiltonian                      ... done (   0.0 sec)
Back transforming the eigenvectors                 ... done (   0.0 sec)
Now organizing SCF variables                       ... done
                      ------------------
                      INITIAL GUESS DONE (   0.1 sec)
                      ------------------
-------------------
DFT GRID GENERATION
-------------------

General Integration Accuracy     IntAcc      ... 4.388
Radial Grid Type                 RadialGrid  ... OptM3 with GC (2021)
Angular Grid (max. ang.)         AngularGrid ... 4 (Lebedev-302)
Angular grid pruning method      GridPruning ... 4 (adaptive)
Weight generation scheme         WeightScheme... Becke
Basis function cutoff            BFCut       ... 1.0000e-11
Integration weight cutoff        WCut        ... 1.0000e-14
Angular grids for H and He will be reduced by one unit
Partially contracted basis set               ... off
Rotationally invariant grid construction     ... off

Total number of grid points                  ...    53851
Total number of batches                      ...      845
Average number of points per batch           ...       63
Average number of grid points per atom       ...     4896
Time for grid setup =    0.311 sec

--------------
SCF ITERATIONS
--------------
ITER       Energy         Delta-E        Max-DP      RMS-DP      [F,P]     Damp
               ***  Starting incremental Fock matrix formation  ***
  0   -726.3487066181   0.000000000000 0.26958631  0.00602323  0.2911393 0.7000
  1   -726.5374632732  -0.188756655095 0.10184935  0.00295916  0.0767087 0.7000
                               ***Turning on DIIS***
  2   -726.5786193780  -0.041156104812 0.04678596  0.00281025  0.0326565 0.0000
  3   -726.6950201032  -0.116400725233 0.06446025  0.00204738  0.0463283 0.0000
  4   -726.7013184422  -0.006298339007 0.02851252  0.00069783  0.0355634 0.0000
  5   -726.7056023693  -0.004283927036 0.01153959  0.00026148  0.0077700 0.0000
  6   -726.7059660612  -0.000363691993 0.00242493  0.00010610  0.0039740 0.0000
                      *** Initiating the SOSCF procedure ***
                           *** Shutting down DIIS ***
                      *** Re-Reading the Fockian *** 
                      *** Removing any level shift *** 
ITER      Energy       Delta-E        Grad      Rot      Max-DP    RMS-DP
  7   -726.70601704  -0.0000509826  0.000286  0.000286  0.000890  0.000036
               *** Restarting incremental Fock matrix formation ***
  8   -726.70602008  -0.0000030396  0.000217  0.000256  0.000981  0.000027
  9   -726.70601871   0.0000013756  0.000370  0.000203  0.000641  0.000018
 10   -726.70602067  -0.0000019671  0.000037  0.000100  0.000252  0.000008
 11   -726.70602057   0.0000001069  0.000080  0.000071  0.000171  0.000005
 12   -726.70602070  -0.0000001323  0.000008  0.000026  0.000050  0.000002
 13   -726.70602069   0.0000000107  0.000016  0.000018  0.000041  0.000001
 14   -726.70602070  -0.0000000114  0.000003  0.000007  0.000017  0.000001
 15   -726.70602070  -0.0000000005  0.000005  0.000004  0.000014  0.000000
                  ***Gradient check signals convergence***
              ***Rediagonalizing the Fockian in SOSCF/NRSCF***

               *****************************************************
               *                     SUCCESS                       *
               *           SCF CONVERGED AFTER  16 CYCLES          *
               *****************************************************


----------------
TOTAL SCF ENERGY
----------------

Total Energy       :         -726.70602070 Eh          -19774.67615 eV

Components:
Nuclear Repulsion  :          363.22870091 Eh            9883.95544 eV
Electronic Energy  :        -1089.93472161 Eh          -29658.63159 eV
One Electron Energy:        -1721.66573883 Eh          -46848.90651 eV
Two Electron Energy:          631.73101722 Eh           17190.27492 eV

Virial components:
Potential Energy   :        -1450.63068163 Eh          -39473.66765 eV
Kinetic Energy     :          723.92466093 Eh           19698.99150 eV
Virial Ratio       :            2.00384206


DFT components:
N(Alpha)           :       28.999995528266 electrons
N(Beta)            :       28.999995528266 electrons
N(Total)           :       57.999991056533 electrons
E(X)               :      -63.611989949997 Eh       
E(C)               :       -2.073225529325 Eh       
E(XC)              :      -65.685215479322 Eh       
DFET-embed. en.    :        0.000000000000 Eh       

---------------
SCF CONVERGENCE
---------------

  Last Energy change         ...   -2.1383e-09  Tolerance :   1.0000e-08
  Last MAX-Density change    ...    1.9905e-06  Tolerance :   1.0000e-07
  Last RMS-Density change    ...    9.9093e-08  Tolerance :   5.0000e-09
  Last Orbital Gradient      ...    3.4723e-07  Tolerance :   1.0000e-05
  Last Orbital Rotation      ...    5.7969e-07  Tolerance :   1.0000e-05

             **** THE GBW FILE WAS UPDATED (SVP_PBE_C1_wt_dlpno_neg.gbw) ****
             **** DENSITY SVP_PBE_C1_wt_dlpno_neg.scfp WAS UPDATED ****
             **** ENERGY FILE WAS UPDATED (SVP_PBE_C1_wt_dlpno_neg.en.tmp) ****
             **** THE GBW FILE WAS UPDATED (SVP_PBE_C1_wt_dlpno_neg.gbw) ****
             **** DENSITY SVP_PBE_C1_wt_dlpno_neg.scfp WAS UPDATED ****
----------------
ORBITAL ENERGIES
----------------

  NO   OCC          E(Eh)            E(eV) 
   0   2.0000     -88.280558     -2402.2361 
   1   2.0000     -24.370010      -663.1417 
   2   2.0000     -18.756727      -510.3965 
   3   2.0000     -18.741443      -509.9806 
   4   2.0000      -9.944978      -270.6166 
   5   2.0000      -9.909124      -269.6410 
   6   2.0000      -7.894712      -214.8260 
   7   2.0000      -5.925400      -161.2383 
   8   2.0000      -5.918840      -161.0598 
   9   2.0000      -5.917386      -161.0203 
  10   2.0000      -1.260690       -34.3051 
  11   2.0000      -1.005165       -27.3519 
  12   2.0000      -0.901500       -24.5311 
  13   2.0000      -0.737521       -20.0690 
  14   2.0000      -0.657493       -17.8913 
  15   2.0000      -0.601540       -16.3687 
  16   2.0000      -0.516518       -14.0552 
  17   2.0000      -0.511498       -13.9186 
  18   2.0000      -0.484013       -13.1707 
  19   2.0000      -0.436968       -11.8905 
  20   2.0000      -0.419338       -11.4108 
  21   2.0000      -0.379796       -10.3348 
  22   2.0000      -0.375863       -10.2277 
  23   2.0000      -0.358587        -9.7576 
  24   2.0000      -0.336701        -9.1621 
  25   2.0000      -0.324516        -8.8305 
  26   2.0000      -0.275461        -7.4957 
  27   2.0000      -0.261237        -7.1086 
  28   2.0000      -0.241884        -6.5820 
  29   0.0000       0.004051         0.1102 
  30   0.0000       0.026315         0.7161 
  31   0.0000       0.047808         1.3009 
  32   0.0000       0.061741         1.6801 
  33   0.0000       0.075460         2.0534 
  34   0.0000       0.082093         2.2339 
  35   0.0000       0.106670         2.9027 
  36   0.0000       0.114743         3.1223 
  37   0.0000       0.137049         3.7293 
  38   0.0000       0.179978         4.8975 
  39   0.0000       0.321529         8.7493 
  40   0.0000       0.362581         9.8663 
  41   0.0000       0.380991        10.3673 
  42   0.0000       0.404573        11.0090 
  43   0.0000       0.424448        11.5498 
  44   0.0000       0.458465        12.4755 
  45   0.0000       0.538651        14.6574 
  46   0.0000       0.570851        15.5337 
  47   0.0000       0.575129        15.6501 
  48   0.0000       0.585478        15.9317 
  49   0.0000       0.601925        16.3792 
  50   0.0000       0.619123        16.8472 
  51   0.0000       0.646157        17.5828 
  52   0.0000       0.647818        17.6280 
  53   0.0000       0.658520        17.9192 
  54   0.0000       0.681268        18.5382 
  55   0.0000       0.688371        18.7315 
  56   0.0000       0.711452        19.3596 
  57   0.0000       0.802163        21.8280 
  58   0.0000       0.812735        22.1156 
  59   0.0000       0.888793        24.1853 
  60   0.0000       0.925333        25.1796 
  61   0.0000       0.972460        26.4620 
  62   0.0000       0.993022        27.0215 
  63   0.0000       1.002529        27.2802 
  64   0.0000       1.018100        27.7039 
  65   0.0000       1.040934        28.3253 
  66   0.0000       1.059112        28.8199 
  67   0.0000       1.094633        29.7865 
  68   0.0000       1.105819        30.0909 
  69   0.0000       1.196164        32.5493 
  70   0.0000       1.216472        33.1019 
  71   0.0000       1.230669        33.4882 
  72   0.0000       1.266867        34.4732 
  73   0.0000       1.445861        39.3439 
  74   0.0000       1.461920        39.7809 
  75   0.0000       1.485027        40.4096 
  76   0.0000       1.502681        40.8900 
  77   0.0000       1.662442        45.2373 
  78   0.0000       1.669380        45.4261 
  79   0.0000       1.698929        46.2302 
  80   0.0000       1.709440        46.5162 
  81   0.0000       1.712030        46.5867 
  82   0.0000       1.760441        47.9040 
  83   0.0000       1.805307        49.1249 
  84   0.0000       1.840955        50.0949 
  85   0.0000       1.865670        50.7674 
  86   0.0000       2.008199        54.6459 
  87   0.0000       2.123618        57.7866 
  88   0.0000       2.162328        58.8399 
  89   0.0000       2.293833        62.4184 
  90   0.0000       2.340731        63.6945 
  91   0.0000       2.438020        66.3419 
  92   0.0000       2.492503        67.8245 
  93   0.0000       2.529629        68.8347 
  94   0.0000       2.531436        68.8839 
  95   0.0000       2.543622        69.2155 
  96   0.0000       2.555938        69.5506 
  97   0.0000       2.578529        70.1653 
  98   0.0000       2.668444        72.6121 
  99   0.0000       2.670350        72.6639 
 100   0.0000       2.727133        74.2091 
 101   0.0000       2.766286        75.2745 
 102   0.0000       2.836313        77.1800 
 103   0.0000       2.847450        77.4831 
 104   0.0000       2.856638        77.7331 
 105   0.0000       2.892046        78.6966 
 106   0.0000       2.907873        79.1272 
 107   0.0000       2.947934        80.2174 
 108   0.0000       3.048177        82.9451 
 109   0.0000       3.102291        84.4176 
 110   0.0000       3.159711        85.9801 
 111   0.0000       3.327766        90.5531 
 112   0.0000       3.567969        97.0894 

                    ********************************
                    * MULLIKEN POPULATION ANALYSIS *
                    ********************************

-----------------------
MULLIKEN ATOMIC CHARGES
-----------------------
   0 C :    0.007701
   1 C :   -0.141409
   2 H :    0.062115
   3 H :    0.057965
   4 S :    0.818407
   5 F :   -0.130444
   6 O :   -0.385510
   7 O :   -0.430731
   8 H :    0.051860
   9 H :    0.040861
  10 H :    0.049185
Sum of atomic charges:   -0.0000000

--------------------------------
MULLIKEN REDUCED ORBITAL CHARGES
--------------------------------
  0 C s       :     2.981980  s :     2.981980
      pz      :     1.034384  p :     2.984893
      px      :     1.009599
      py      :     0.940910
      dz2     :     0.005252  d :     0.025425
      dxz     :     0.006688
      dyz     :     0.002428
      dx2y2   :     0.003950
      dxy     :     0.007108
  1 C s       :     3.085470  s :     3.085470
      pz      :     0.982990  p :     3.022448
      px      :     0.973525
      py      :     1.065932
      dz2     :     0.005481  d :     0.033491
      dxz     :     0.009332
      dyz     :     0.004600
      dx2y2   :     0.005833
      dxy     :     0.008245
  2 H s       :     0.915215  s :     0.915215
      pz      :     0.004957  p :     0.022671
      px      :     0.008932
      py      :     0.008782
  3 H s       :     0.919006  s :     0.919006
      pz      :     0.012078  p :     0.023030
      px      :     0.006354
      py      :     0.004597
  4 S s       :     5.333677  s :     5.333677
      pz      :     3.055778  p :     9.018397
      px      :     3.061800
      py      :     2.900820
      dz2     :     0.160998  d :     0.829519
      dxz     :     0.187541
      dyz     :     0.140663
      dx2y2   :     0.191615
      dxy     :     0.148703
  5 F s       :     3.896317  s :     3.896317
      pz      :     1.852411  p :     5.222230
      px      :     1.839104
      py      :     1.530714
      dz2     :     0.001451  d :     0.011897
      dxz     :     0.000311
      dyz     :     0.002954
      dx2y2   :     0.003940
      dxy     :     0.003241
  6 O s       :     3.845066  s :     3.845066
      pz      :     1.655234  p :     4.522350
      px      :     1.500439
      py      :     1.366677
      dz2     :     0.002054  d :     0.018094
      dxz     :     0.002672
      dyz     :     0.002793
      dx2y2   :     0.005120
      dxy     :     0.005455
  7 O s       :     3.865649  s :     3.865649
      pz      :     1.365341  p :     4.548856
      px      :     1.567040
      py      :     1.616475
      dz2     :     0.005346  d :     0.016226
      dxz     :     0.004887
      dyz     :     0.003779
      dx2y2   :     0.001101
      dxy     :     0.001113
  8 H s       :     0.923097  s :     0.923097
      pz      :     0.013106  p :     0.025043
      px      :     0.007075
      py      :     0.004863
  9 H s       :     0.934046  s :     0.934046
      pz      :     0.010271  p :     0.025092
      px      :     0.009776
      py      :     0.005045
 10 H s       :     0.925730  s :     0.925730
      pz      :     0.005888  p :     0.025084
      px      :     0.010145
      py      :     0.009051


                     *******************************
                     * LOEWDIN POPULATION ANALYSIS *
                     *******************************

----------------------
LOEWDIN ATOMIC CHARGES
----------------------
   0 C :   -0.055659
   1 C :   -0.163841
   2 H :    0.033133
   3 H :    0.030600
   4 S :    1.080656
   5 F :   -0.095329
   6 O :   -0.446934
   7 O :   -0.492568
   8 H :    0.036065
   9 H :    0.038007
  10 H :    0.035870

-------------------------------
LOEWDIN REDUCED ORBITAL CHARGES
-------------------------------
  0 C s       :     2.821851  s :     2.821851
      pz      :     1.085847  p :     3.163506
      px      :     1.067771
      py      :     1.009888
      dz2     :     0.015361  d :     0.070303
      dxz     :     0.018541
      dyz     :     0.005052
      dx2y2   :     0.010649
      dxy     :     0.020701
  1 C s       :     2.905860  s :     2.905860
      pz      :     1.050030  p :     3.176639
      px      :     1.044527
      py      :     1.082083
      dz2     :     0.015160  d :     0.081341
      dxz     :     0.023144
      dyz     :     0.008648
      dx2y2   :     0.013191
      dxy     :     0.021198
  2 H s       :     0.894230  s :     0.894230
      pz      :     0.014009  p :     0.072638
      px      :     0.030085
      py      :     0.028543
  3 H s       :     0.895498  s :     0.895498
      pz      :     0.040511  p :     0.073902
      px      :     0.018601
      py      :     0.014790
  4 S s       :     5.044645  s :     5.044645
      pz      :     2.970505  p :     8.781591
      px      :     2.964606
      py      :     2.846480
      dz2     :     0.212738  d :     1.093107
      dxz     :     0.251792
      dyz     :     0.172479
      dx2y2   :     0.252616
      dxy     :     0.203482
  5 F s       :     3.762726  s :     3.762726
      pz      :     1.856495  p :     5.313938
      px      :     1.845813
      py      :     1.611629
      dz2     :     0.002681  d :     0.018665
      dxz     :     0.000416
      dyz     :     0.003836
      dx2y2   :     0.007075
      dxy     :     0.004657
  6 O s       :     3.683412  s :     3.683412
      pz      :     1.681466  p :     4.733423
      px      :     1.579814
      py      :     1.472143
      dz2     :     0.004081  d :     0.030099
      dxz     :     0.003781
      dyz     :     0.003856
      dx2y2   :     0.006251
      dxy     :     0.012130
  7 O s       :     3.711323  s :     3.711323
      pz      :     1.479014  p :     4.754283
      px      :     1.618427
      py      :     1.656842
      dz2     :     0.009320  d :     0.026963
      dxz     :     0.009202
      dyz     :     0.005313
      dx2y2   :     0.001554
      dxy     :     0.001574
  8 H s       :     0.892152  s :     0.892152
      pz      :     0.038142  p :     0.071783
      px      :     0.019308
      py      :     0.014333
  9 H s       :     0.891261  s :     0.891261
      pz      :     0.029004  p :     0.070732
      px      :     0.027470
      py      :     0.014257
 10 H s       :     0.892591  s :     0.892591
      pz      :     0.014669  p :     0.071539
      px      :     0.029072
      py      :     0.027799


                      *****************************
                      * MAYER POPULATION ANALYSIS *
                      *****************************

  NA   - Mulliken gross atomic population
  ZA   - Total nuclear charge
  QA   - Mulliken gross atomic charge
  VA   - Mayer's total valence
  BVA  - Mayer's bonded valence
  FA   - Mayer's free valence

  ATOM       NA         ZA         QA         VA         BVA        FA
  0 C      5.9923     6.0000     0.0077     4.0069     4.0069    -0.0000
  1 C      6.1414     6.0000    -0.1414     4.0148     4.0148    -0.0000
  2 H      0.9379     1.0000     0.0621     0.9844     0.9844     0.0000
  3 H      0.9420     1.0000     0.0580     0.9842     0.9842     0.0000
  4 S     15.1816    16.0000     0.8184     5.5600     5.5600    -0.0000
  5 F      9.1304     9.0000    -0.1304     1.2068     1.2068     0.0000
  6 O      8.3855     8.0000    -0.3855     2.0247     2.0247     0.0000
  7 O      8.4307     8.0000    -0.4307     1.9847     1.9847    -0.0000
  8 H      0.9481     1.0000     0.0519     1.0128     1.0128    -0.0000
  9 H      0.9591     1.0000     0.0409     0.9898     0.9898    -0.0000
 10 H      0.9508     1.0000     0.0492     1.0094     1.0094     0.0000

  Mayer bond orders larger than 0.100000
B(  0-C ,  1-C ) :   1.0893 B(  0-C ,  8-H ) :   0.9657 B(  0-C ,  9-H ) :   0.9563 
B(  0-C , 10-H ) :   0.9651 B(  1-C ,  2-H ) :   0.9231 B(  1-C ,  3-H ) :   0.9213 
B(  1-C ,  4-S ) :   0.9059 B(  4-S ,  5-F ) :   1.0488 B(  4-S ,  6-O ) :   1.7900 
B(  4-S ,  7-O ) :   1.7508 

-------
TIMINGS
-------

Total SCF time: 0 days 0 hours 0 min 2 sec 

Total time                  ....       2.855 sec
Sum of individual times     ....       2.730 sec  ( 95.6%)

Fock matrix formation       ....       2.229 sec  ( 78.1%)
  Split-RI-J                ....       0.545 sec  ( 24.5% of F)
  XC integration            ....       1.660 sec  ( 74.5% of F)
    Basis function eval.    ....       0.709 sec  ( 42.7% of XC)
    Density eval.           ....       0.341 sec  ( 20.5% of XC)
    XC-Functional eval.     ....       0.202 sec  ( 12.2% of XC)
    XC-Potential eval.      ....       0.296 sec  ( 17.8% of XC)
Diagonalization             ....       0.025 sec  (  0.9%)
Density matrix formation    ....       0.002 sec  (  0.1%)
Population analysis         ....       0.004 sec  (  0.1%)
Initial guess               ....       0.056 sec  (  2.0%)
Orbital Transformation      ....       0.000 sec  (  0.0%)
Orbital Orthonormalization  ....       0.000 sec  (  0.0%)
DIIS solution               ....       0.023 sec  (  0.8%)
SOSCF solution              ....       0.022 sec  (  0.8%)
Grid generation             ....       0.368 sec  ( 12.9%)

Maximum memory used throughout the entire SCF-calculation: 15.8 MB


-------------------------------------------------------------------------------
                          DFT DISPERSION CORRECTION                            
                                                                               
                              DFTD3 V3.1  Rev 1                                
                          USING Becke-Johnson damping                          
-------------------------------------------------------------------------------
The PBE functional is recognized
Active option DFTDOPT                   ...         4   

molecular C6(AA) [au] = 1445.576990 


            DFT-D V3
 parameters
 s6 scaling factor         :     1.0000 
 a1 scaling factor         :     0.4289 
 s8 scaling factor         :     0.7875 
 a2 scaling factor         :     4.4407 
 ad hoc parameters k1-k3   :    16.0000     1.3333    -4.0000 

 Edisp/kcal,au: -5.825789448559  -0.009283985450 
 E6   /kcal   :  -4.047537698 
 E8   /kcal   :  -1.778251750 
 % E8         :  30.523790223 

-------------------------   ----------------
Dispersion correction           -0.009283985
-------------------------   ----------------


-------------------------   --------------------
FINAL SINGLE POINT ENERGY      -726.715304689081
-------------------------   --------------------


                            ***************************************
                            *     ORCA property calculations      *
                            ***************************************

                                    ---------------------
                                    Active property flags
                                    ---------------------
   (+) Dipole Moment


------------------------------------------------------------------------------
                       ORCA ELECTRIC PROPERTIES CALCULATION
------------------------------------------------------------------------------

Dipole Moment Calculation                       ... on
Quadrupole Moment Calculation                   ... off
Polarizability Calculation                      ... off
GBWName                                         ... SVP_PBE_C1_wt_dlpno_neg.gbw
Electron density file                           ... SVP_PBE_C1_wt_dlpno_neg.scfp
The origin for moment calculation is the CENTER OF MASS  = ( 1.691100,  0.649044 -5.854738)

-------------
DIPOLE MOMENT
-------------
                                X             Y             Z
Electronic contribution:     -6.92780      -6.42039      -4.21307
Nuclear contribution   :      7.60530       5.82028       5.38743
                        -----------------------------------------
Total Dipole Moment    :      0.67750      -0.60012       1.17436
                        -----------------------------------------
Magnitude (a.u.)       :      1.48266
Magnitude (Debye)      :      3.76861



--------------------
Rotational spectrum 
--------------------
 
Rotational constants in cm-1:     0.157861     0.081452     0.078859 
Rotational constants in MHz :  4732.562506  2441.865430  2364.129821 

 Dipole components along the rotational axes: 
x,y,z [a.u.] :    -0.550827    -1.359277    -0.217311 
x,y,z [Debye]:    -1.400090    -3.455008    -0.552361 

 

Timings for individual modules:

Sum of individual times         ...        3.448 sec (=   0.057 min)
GTO integral calculation        ...        0.386 sec (=   0.006 min)  11.2 %
SCF iterations                  ...        3.062 sec (=   0.051 min)  88.8 %
                             ****ORCA TERMINATED NORMALLY****
TOTAL RUN TIME: 0 days 0 hours 0 minutes 3 seconds 814 msec
