
                                        *****************
                                        * O   R   C   A *
                                        *****************

                                            #,                                       
                                            ###                                      
                                            ####                                     
                                            #####                                    
                                            ######                                   
                                           ########,                                 
                                     ,,################,,,,,                         
                               ,,#################################,,                 
                          ,,##########################################,,             
                       ,#########################################, ''#####,          
                    ,#############################################,,   '####,        
                  ,##################################################,,,,####,       
                ,###########''''           ''''###############################       
              ,#####''   ,,,,##########,,,,          '''####'''          '####       
            ,##' ,,,,###########################,,,                        '##       
           ' ,,###''''                  '''############,,,                           
         ,,##''                                '''############,,,,        ,,,,,,###''
      ,#''                                            '''#######################'''  
     '                                                          ''''####''''         
             ,#######,   #######,   ,#######,      ##                                
            ,#'     '#,  ##    ##  ,#'     '#,    #''#        ######   ,####,        
            ##       ##  ##   ,#'  ##            #'  '#       #        #'  '#        
            ##       ##  #######   ##           ,######,      #####,   #    #        
            '#,     ,#'  ##    ##  '#,     ,#' ,#      #,         ##   #,  ,#        
             '#######'   ##     ##  '#######'  #'      '#     #####' # '####'        



                  #######################################################
                  #                        -***-                        #
                  #          Department of theory and spectroscopy      #
                  #    Directorship and core code : Frank Neese         #
                  #        Max Planck Institute fuer Kohlenforschung    #
                  #                Kaiser Wilhelm Platz 1               #
                  #                 D-45470 Muelheim/Ruhr               #
                  #                      Germany                        #
                  #                                                     #
                  #                  All rights reserved                #
                  #                        -***-                        #
                  #######################################################


                         Program Version 5.0.0 -  RELEASE  -
                                (SVN: $Rev: 19529$)
                ($Date: 2021-06-28 11:36:33 +0200 (Mo, 28 Jun 2021) $)


 With contributions from (in alphabetic order):
   Daniel Aravena         : Magnetic Suceptibility
   Michael Atanasov       : Ab Initio Ligand Field Theory (pilot matlab implementation)
   Alexander A. Auer      : GIAO ZORA, VPT2 properties, NMR spectrum
   Ute Becker             : Parallelization
   Giovanni Bistoni       : ED, misc. LED, open-shell LED, HFLD
   Martin Brehm           : Molecular dynamics
   Dmytro Bykov           : SCF Hessian
   Vijay G. Chilkuri      : MRCI spin determinant printing, contributions to CSF-ICE
   Dipayan Datta          : RHF DLPNO-CCSD density
   Achintya Kumar Dutta   : EOM-CC, STEOM-CC
   Dmitry Ganyushin       : Spin-Orbit,Spin-Spin,Magnetic field MRCI
   Miquel Garcia          : C-PCM Hessian, Gaussian charge scheme
   Yang Guo               : DLPNO-NEVPT2, F12-NEVPT2, CIM, IAO-localization
   Andreas Hansen         : Spin unrestricted coupled pair/coupled cluster methods
   Benjamin Helmich-Paris : MC-RPA, TRAH-SCF, COSX integrals
   Lee Huntington         : MR-EOM, pCC
   Robert Izsak           : Overlap fitted RIJCOSX, COSX-SCS-MP3, EOM
   Marcus Kettner         : VPT2
   Christian Kollmar      : KDIIS, OOCD, Brueckner-CCSD(T), CCSD density, CASPT2, CASPT2-K
   Simone Kossmann        : Meta GGA functionals, TD-DFT gradient, OOMP2, MP2 Hessian
   Martin Krupicka        : Initial AUTO-CI
   Lucas Lang             : DCDCAS
   Marvin Lechner         : AUTO-CI (C++ implementation), FIC-MRCC
   Dagmar Lenk            : GEPOL surface, SMD
   Dimitrios Liakos       : Extrapolation schemes; Compound Job, initial MDCI parallelization
   Dimitrios Manganas     : Further ROCIS development; embedding schemes
   Dimitrios Pantazis     : SARC Basis sets
   Anastasios Papadopoulos: AUTO-CI, single reference methods and gradients
   Taras Petrenko         : DFT Hessian,TD-DFT gradient, ASA, ECA, R-Raman, ABS, FL, XAS/XES, NRVS
   Peter Pinski           : DLPNO-MP2, DLPNO-MP2 Gradient
   Christoph Reimann      : Effective Core Potentials
   Marius Retegan         : Local ZFS, SOC
   Christoph Riplinger    : Optimizer, TS searches, QM/MM, DLPNO-CCSD(T), (RO)-DLPNO pert. Triples
   Tobias Risthaus        : Range-separated hybrids, TD-DFT gradient, RPA, STAB
   Michael Roemelt        : Original ROCIS implementation
   Masaaki Saitow         : Open-shell DLPNO-CCSD energy and density
   Barbara Sandhoefer     : DKH picture change effects
   Avijit Sen             : IP-ROCIS
   Kantharuban Sivalingam : CASSCF convergence, NEVPT2, FIC-MRCI
   Bernardo de Souza      : ESD, SOC TD-DFT
   Georgi Stoychev        : AutoAux, RI-MP2 NMR
   Willem Van den Heuvel  : Paramagnetic NMR
   Boris Wezisla          : Elementary symmetry handling
   Frank Wennmohs         : Technical directorship


 We gratefully acknowledge several colleagues who have allowed us to
 interface, adapt or use parts of their codes:
   Stefan Grimme, W. Hujo, H. Kruse, P. Pracht,  : VdW corrections, initial TS optimization,
                  C. Bannwarth, S. Ehlert          DFT functionals, gCP, sTDA/sTD-DF
   Ed Valeev, F. Pavosevic, A. Kumar             : LibInt (2-el integral package), F12 methods
   Garnet Chan, S. Sharma, J. Yang, R. Olivares  : DMRG
   Ulf Ekstrom                                   : XCFun DFT Library
   Mihaly Kallay                                 : mrcc  (arbitrary order and MRCC methods)
   Jiri Pittner, Ondrej Demel                    : Mk-CCSD
   Frank Weinhold                                : gennbo (NPA and NBO analysis)
   Christopher J. Cramer and Donald G. Truhlar   : smd solvation model
   Lars Goerigk                                  : TD-DFT with DH, B97 family of functionals
   V. Asgeirsson, H. Jonsson                     : NEB implementation
   FAccTs GmbH                                   : IRC, NEB, NEB-TS, DLPNO-Multilevel, CI-OPT
                                                   MM, QMMM, 2- and 3-layer-ONIOM, Crystal-QMMM,
                                                   LR-CPCM, SF, NACMEs, symmetry and pop. for TD-DFT,
                                                   nearIR, NL-DFT gradient (VV10), updates on ESD,
                                                   ML-optimized integration grids
   S Lehtola, MJT Oliveira, MAL Marques          : LibXC Library
   Liviu Ungur et al                             : ANISO software


 Your calculation uses the libint2 library for the computation of 2-el integrals
 For citations please refer to: http://libint.valeyev.net

 Your ORCA version has been built with support for libXC version: 5.1.0
 For citations please refer to: https://tddft.org/programs/libxc/

 This ORCA versions uses:
   CBLAS   interface :  Fast vector & matrix operations
   LAPACKE interface :  Fast linear algebra routines
   SCALAPACK package :  Parallel linear algebra routines
   Shared memory     :  Shared parallel matrices
   BLAS/LAPACK       :  OpenBLAS 0.3.15  USE64BITINT DYNAMIC_ARCH NO_AFFINITY Haswell SINGLE_THREADED
        Core in use  :  Haswell
   Copyright (c) 2011-2014, The OpenBLAS Project




***************************************
The coordinates will be read from file: D3.xyz
***************************************


Your calculation utilizes the atom-pairwise dispersion correction
with the Becke-Johnson damping scheme (D3BJ)
Cite in your paper:
S.Grimme, S.Ehrlich, L.Goerigk, J Comput Chem, (2011), 32, 1456–1465 
S.Grimme, J.Antony, S.Ehrlich and H.Krieg, J.Chem.Phys., 132, (2010), 154104 
   

================================================================================

----- Orbital basis set information -----
Your calculation utilizes the basis: def2-TZVP
   F. Weigend and R. Ahlrichs, Phys. Chem. Chem. Phys. 7, 3297 (2005).

----- AuxJ basis set information -----
Your calculation utilizes the auxiliary basis: def2/J
   F. Weigend, Phys. Chem. Chem. Phys. 8, 1057 (2006).

================================================================================
                                        WARNINGS
                       Please study these warnings very carefully!
================================================================================


INFO   : the flag for use of the SHARK integral package has been found!

================================================================================
                                       INPUT FILE
================================================================================
NAME = PBE0_D3_wb97.com
|  1> !PBE0 D3BJ RIJCOSX def2-TZVP def2/J TightSCF xyzfile                                                                                         
|  2> 
|  3> *xyzfile 0 1 D3.xyz
|  4> 
|  5> %MaxCore 64000
|  6> 
|  7> %pal nprocs 18                                                                                                                                                  
|  8> end  
|  9> 
| 10> %scf
| 11>   MaxIter 150
| 12> end
| 13> 
| 14> 
| 15>                          ****END OF INPUT****
================================================================================

                       ****************************
                       * Single Point Calculation *
                       ****************************

---------------------------------
CARTESIAN COORDINATES (ANGSTROEM)
---------------------------------
  C      3.380928    2.083045   -3.350127
  N      4.535924    1.182447   -3.428518
  C      2.495557    1.816150   -2.136364
  C      1.872181    0.427903   -2.077497
  H      2.614270   -0.365825   -2.198894
  H      1.389953    0.273087   -1.112360
  S      0.579024    0.140472   -3.297943
  C      4.671956    0.122273   -4.220598
  N      5.866023   -0.507849   -4.224284
  C      3.698881   -0.312844   -4.986988
  H      2.731405   -0.050091   -4.849000
  H      3.890046   -1.055172   -5.643730
  H      5.251933    1.303459   -2.721014
  H      6.695165   -0.062322   -3.851596
  H      5.975383   -1.396884   -4.691414
  F      0.228860   -1.246868   -3.127871
  O     -0.439269    1.118966   -3.014550
  O      1.247881    0.403474   -4.595647
  H      1.697003    2.561969   -2.141109
  H      3.080787    1.987436   -1.225838
  H      2.806463    1.986511   -4.268484
  H      3.778714    3.098282   -3.307383

----------------------------
CARTESIAN COORDINATES (A.U.)
----------------------------
  NO LB      ZA    FRAG     MASS         X           Y           Z
   0 C     6.0000    0    12.011    6.389028    3.936384   -6.330822
   1 N     7.0000    0    14.007    8.571653    2.234501   -6.478960
   2 C     6.0000    0    12.011    4.715920    3.432025   -4.037143
   3 C     6.0000    0    12.011    3.537909    0.808619   -3.925901
   4 H     1.0000    0     1.008    4.940255   -0.691309   -4.155307
   5 H     1.0000    0     1.008    2.626630    0.516060   -2.102056
   6 S    16.0000    0    32.060    1.094197    0.265454   -6.232209
   7 C     6.0000    0    12.011    8.828718    0.231062   -7.975775
   8 N     7.0000    0    14.007   11.085178   -0.959696   -7.982739
   9 C     6.0000    0    12.011    6.989872   -0.591189   -9.424042
  10 H     1.0000    0     1.008    5.161608   -0.094658   -9.163282
  11 H     1.0000    0     1.008    7.351122   -1.993986  -10.665104
  12 H     1.0000    0     1.008    9.924714    2.463181   -5.141971
  13 H     1.0000    0     1.008   12.652028   -0.117771   -7.278462
  14 H     1.0000    0     1.008   11.291838   -2.639728   -8.865488
  15 F     9.0000    0    18.998    0.432483   -2.356238   -5.910819
  16 O     8.0000    0    15.999   -0.830098    2.114540   -5.696673
  17 O     8.0000    0    15.999    2.358154    0.762455   -8.684514
  18 H     1.0000    0     1.008    3.206871    4.841420   -4.046109
  19 H     1.0000    0     1.008    5.821845    3.755709   -2.316498
  20 H     1.0000    0     1.008    5.303447    3.753961   -8.066266
  21 H     1.0000    0     1.008    7.140735    5.854904   -6.250048

--------------------------------
INTERNAL COORDINATES (ANGSTROEM)
--------------------------------
 C      0   0   0     0.000000000000     0.00000000     0.00000000
 N      1   0   0     1.466709159152     0.00000000     0.00000000
 C      1   2   0     1.525887598611   113.08106121     0.00000000
 C      3   1   2     1.522922426714   115.32150160   298.98779578
 H      4   3   1     1.093360976858   112.31147686    51.76616417
 H      4   3   1     1.089954594431   110.16986842   171.17309744
 S      4   3   1     1.801210303623   114.40266140   289.23510751
 C      2   1   3     1.330363150639   126.98915710   102.39030975
 N      8   2   1     1.350134350047   117.64436639   174.24681917
 C      8   2   1     1.312842464079   122.40463695   354.61440396
 H     10   8   2     1.011972738098   122.88487069   342.67118838
 H     10   8   2     1.009408202469   118.89300887   173.11229738
 H      2   1   3     1.013841643828   116.45871694   291.29563037
 H      9   8   2     1.012356698497   121.19473046   343.47581302
 H      9   8   2     1.010224236058   120.51235872   170.23230527
 F      7   4   3     1.440920179428   104.36732947   175.27794104
 O      7   4   3     1.440376003423   105.41678409   299.48536641
 O      7   4   3     1.483433803163   103.93008595    57.15043279
 H      3   1   2     1.092683852872   107.52997589   177.35677273
 H      3   1   2     1.095851861430   108.88782929    62.11677368
 H      1   2   3     1.087524204377   108.44120771   237.12593655
 H      1   2   3     1.091223184114   106.63672387   121.10258644

---------------------------
INTERNAL COORDINATES (A.U.)
---------------------------
 C      0   0   0     0.000000000000     0.00000000     0.00000000
 N      1   0   0     2.771678628911     0.00000000     0.00000000
 C      1   2   0     2.883509672521   113.08106121     0.00000000
 C      3   1   2     2.877906309695   115.32150160   298.98779578
 H      4   3   1     2.066152811778   112.31147686    51.76616417
 H      4   3   1     2.059715681884   110.16986842   171.17309744
 S      4   3   1     3.403794183444   114.40266140   289.23510751
 C      2   1   3     2.514022013368   126.98915710   102.39030975
 N      8   2   1     2.551384165588   117.64436639   174.24681917
 C      8   2   1     2.480912714091   122.40463695   354.61440396
 H     10   8   2     1.912351330000   122.88487069   342.67118838
 H     10   8   2     1.907505060000   118.89300887   173.11229738
 H      2   1   3     1.915883050000   116.45871694   291.29563037
 H      9   8   2     1.913076910000   121.19473046   343.47581302
 H      9   8   2     1.909047140000   120.51235872   170.23230527
 F      7   4   3     2.722944519960   104.36732947   175.27794104
 O      7   4   3     2.721916176342   105.41678409   299.48536641
 O      7   4   3     2.803283625779   103.93008595    57.15043279
 H      3   1   2     2.064873232886   107.52997589   177.35677273
 H      3   1   2     2.070859901451   108.88782929    62.11677368
 H      1   2   3     2.055122910283   108.44120771   237.12593655
 H      1   2   3     2.062112968961   106.63672387   121.10258644

---------------------
BASIS SET INFORMATION
---------------------
There are 6 groups of distinct atoms

 Group   1 Type C   : 11s6p2d1f contracted to 5s3p2d1f pattern {62111/411/11/1}
 Group   2 Type N   : 11s6p2d1f contracted to 5s3p2d1f pattern {62111/411/11/1}
 Group   3 Type H   : 5s1p contracted to 3s1p pattern {311/1}
 Group   4 Type S   : 14s9p3d1f contracted to 5s5p2d1f pattern {73211/51111/21/1}
 Group   5 Type F   : 11s6p2d1f contracted to 5s3p2d1f pattern {62111/411/11/1}
 Group   6 Type O   : 11s6p2d1f contracted to 5s3p2d1f pattern {62111/411/11/1}

Atom   0C    basis set group =>   1
Atom   1N    basis set group =>   2
Atom   2C    basis set group =>   1
Atom   3C    basis set group =>   1
Atom   4H    basis set group =>   3
Atom   5H    basis set group =>   3
Atom   6S    basis set group =>   4
Atom   7C    basis set group =>   1
Atom   8N    basis set group =>   2
Atom   9C    basis set group =>   1
Atom  10H    basis set group =>   3
Atom  11H    basis set group =>   3
Atom  12H    basis set group =>   3
Atom  13H    basis set group =>   3
Atom  14H    basis set group =>   3
Atom  15F    basis set group =>   5
Atom  16O    basis set group =>   6
Atom  17O    basis set group =>   6
Atom  18H    basis set group =>   3
Atom  19H    basis set group =>   3
Atom  20H    basis set group =>   3
Atom  21H    basis set group =>   3
---------------------------------
AUXILIARY/J BASIS SET INFORMATION
---------------------------------
There are 6 groups of distinct atoms

 Group   1 Type C   : 12s5p4d2f1g contracted to 6s4p3d1f1g pattern {711111/2111/211/2/1}
 Group   2 Type N   : 12s5p4d2f1g contracted to 6s4p3d1f1g pattern {711111/2111/211/2/1}
 Group   3 Type H   : 5s2p1d contracted to 3s1p1d pattern {311/2/1}
 Group   4 Type S   : 14s5p5d2f1g contracted to 8s4p3d1f1g pattern {71111111/2111/311/2/1}
 Group   5 Type F   : 12s5p4d2f1g contracted to 6s4p3d1f1g pattern {711111/2111/211/2/1}
 Group   6 Type O   : 12s5p4d2f1g contracted to 6s4p3d1f1g pattern {711111/2111/211/2/1}

Atom   0C    basis set group =>   1
Atom   1N    basis set group =>   2
Atom   2C    basis set group =>   1
Atom   3C    basis set group =>   1
Atom   4H    basis set group =>   3
Atom   5H    basis set group =>   3
Atom   6S    basis set group =>   4
Atom   7C    basis set group =>   1
Atom   8N    basis set group =>   2
Atom   9C    basis set group =>   1
Atom  10H    basis set group =>   3
Atom  11H    basis set group =>   3
Atom  12H    basis set group =>   3
Atom  13H    basis set group =>   3
Atom  14H    basis set group =>   3
Atom  15F    basis set group =>   5
Atom  16O    basis set group =>   6
Atom  17O    basis set group =>   6
Atom  18H    basis set group =>   3
Atom  19H    basis set group =>   3
Atom  20H    basis set group =>   3
Atom  21H    basis set group =>   3


           ************************************************************
           *        Program running with 18 parallel MPI-processes    *
           *              working on a common directory               *
           ************************************************************
------------------------------------------------------------------------------
                           ORCA GTO INTEGRAL CALCULATION
                           -- RI-GTO INTEGRALS CHOSEN --
------------------------------------------------------------------------------
------------------------------------------------------------------------------
                   ___                                                        
                  /   \      - P O W E R E D   B Y -                         
                 /     \                                                     
                 |  |  |   _    _      __       _____    __    __             
                 |  |  |  | |  | |    /  \     |  _  \  |  |  /  |          
                  \  \/   | |  | |   /    \    | | | |  |  | /  /          
                 / \  \   | |__| |  /  /\  \   | |_| |  |  |/  /          
                |  |  |   |  __  | /  /__\  \  |    /   |      \           
                |  |  |   | |  | | |   __   |  |    \   |  |\   \          
                \     /   | |  | | |  |  |  |  | |\  \  |  | \   \       
                 \___/    |_|  |_| |__|  |__|  |_| \__\ |__|  \__/        
                                                                              
                      - O R C A' S   B I G   F R I E N D -                    
                                      &                                       
                       - I N T E G R A L  F E E D E R -                       
                                                                              
 v1 FN, 2020, v2 2021                                                         
------------------------------------------------------------------------------


Reading SHARK input file PBE0_D3_wb97.SHARKINP.tmp ... ok
----------------------
SHARK INTEGRAL PACKAGE
----------------------

Number of atoms                             ...     22
Number of basis functions                   ...    413
Number of shells                            ...    167
Maximum angular momentum                    ...      3
Integral batch strategy                     ... SHARK/LIBINT Hybrid
RI-J (if used) integral strategy            ... SPLIT-RIJ (Revised 2003 algorithm where possible)
Printlevel                                  ...      1
Contraction scheme used                     ... SEGMENTED contraction
Coulomb Range Separation                    ... NOT USED
Exchange Range Separation                   ... NOT USED
Finite Nucleus Model                        ... NOT USED
Auxiliary Coulomb fitting basis             ... AVAILABLE
   # of basis functions in Aux-J            ...    662
   # of shells in Aux-J                     ...    222
   Maximum angular momentum in Aux-J        ...      4
Auxiliary J/K fitting basis                 ... NOT available
Auxiliary Correlation fitting basis         ... NOT available
Auxiliary 'external' fitting basis          ... NOT available
Integral threshold                          ...     2.500000e-11
Primitive cut-off                           ...     2.500000e-12
Primitive pair pre-selection threshold      ...     2.500000e-12

Calculating pre-screening integrals         ... done (  0.2 sec) Dimension = 167
Organizing shell pair data                  ... done (  0.2 sec)
Shell pair information
Total number of shell pairs                 ...     14028
Shell pairs after pre-screening             ...     11963
Total number of primitive shell pairs       ...     43360
Primitive shell pairs kept                  ...     26262
          la=0 lb=0:   3243 shell pairs
          la=1 lb=0:   3500 shell pairs
          la=1 lb=1:    982 shell pairs
          la=2 lb=0:   1619 shell pairs
          la=2 lb=1:    891 shell pairs
          la=2 lb=2:    222 shell pairs
          la=3 lb=0:    799 shell pairs
          la=3 lb=1:    445 shell pairs
          la=3 lb=2:    206 shell pairs
          la=3 lb=3:     56 shell pairs

Calculating one electron integrals          ... done (  0.0 sec)
Calculating RI/J V-Matrix + Cholesky decomp.... done (  0.1 sec)
Calculating Nuclear repulsion               ... done (  0.0 sec) ENN=    831.741761863438 Eh

SHARK setup successfully completed in   0.6 seconds

Maximum memory used throughout the entire GTOINT-calculation: 20.5 MB


           ************************************************************
           *        Program running with 18 parallel MPI-processes    *
           *              working on a common directory               *
           ************************************************************
-------------------------------------------------------------------------------
                                 ORCA SCF
-------------------------------------------------------------------------------

------------
SCF SETTINGS
------------
Hamiltonian:
 Density Functional     Method          .... DFT(GTOs)
 Exchange Functional    Exchange        .... PBE
   PBE kappa parameter   XKappa         ....  0.804000
   PBE mue parameter    XMuePBE         ....  0.219520
 Correlation Functional Correlation     .... PBE
   PBE beta parameter  CBetaPBE         ....  0.066725
 LDA part of GGA corr.  LDAOpt          .... PW91-LDA
 Gradients option       PostSCFGGA      .... off
 Hybrid DFT is turned on
   Fraction HF Exchange ScalHFX         ....  0.250000
   Scaling of DF-GGA-X  ScalDFX         ....  0.750000
   Scaling of DF-GGA-C  ScalDFC         ....  1.000000
   Scaling of DF-LDA-C  ScalLDAC        ....  1.000000
   Perturbative correction              ....  0.000000
   Density functional embedding theory  .... OFF
   NL short-range parameter             ....  6.900000
 RI-approximation to the Coulomb term is turned on
   Number of AuxJ basis functions       .... 662
   RIJ-COSX (HFX calculated with COS-X)).... on


General Settings:
 Integral files         IntName         .... PBE0_D3_wb97
 Hartree-Fock type      HFTyp           .... RHF
 Total Charge           Charge          ....    0
 Multiplicity           Mult            ....    1
 Number of Electrons    NEL             ....   96
 Basis Dimension        Dim             ....  413
 Nuclear Repulsion      ENuc            ....    831.7417618634 Eh

Convergence Acceleration:
 DIIS                   CNVDIIS         .... on
   Start iteration      DIISMaxIt       ....    12
   Startup error        DIISStart       ....  0.200000
   # of expansion vecs  DIISMaxEq       ....     5
   Bias factor          DIISBfac        ....   1.050
   Max. coefficient     DIISMaxC        ....  10.000
 Trust-Rad. Augm. Hess. CNVTRAH         .... auto
   Auto Start mean grad. ratio tolernc. ....  1.125000
   Auto Start start iteration           ....    20
   Auto Start num. interpolation iter.  ....    10
   Max. Number of Micro iterations      ....    16
   Max. Number of Macro iterations      .... Maxiter - #DIIS iter
   Number of Davidson start vectors     ....     2
   Converg. threshold I  (grad. norm)   ....   1.000e-05
   Converg. threshold II (energy diff.) ....   1.000e-08
   Grad. Scal. Fac. for Micro threshold ....   0.100
   Minimum threshold for Micro iter.    ....   0.010
   NR start threshold (gradient norm)   ....   0.001
   Initial trust radius                 ....   0.400
   Minimum AH scaling param. (alpha)    ....   1.000
   Maximum AH scaling param. (alpha)    .... 1000.000
   Orbital update algorithm             .... Taylor
   White noise on init. David. guess    .... on
   Maximum white noise                  ....   0.010
   Quad. conv. algorithm                .... NR
 SOSCF                  CNVSOSCF        .... on
   Start iteration      SOSCFMaxIt      ....   150
   Startup grad/error   SOSCFStart      ....  0.003300
 Level Shifting         CNVShift        .... on
   Level shift para.    LevelShift      ....    0.2500
   Turn off err/grad.   ShiftErr        ....    0.0010
 Zerner damping         CNVZerner       .... off
 Static damping         CNVDamp         .... on
   Fraction old density DampFac         ....    0.7000
   Max. Damping (<1)    DampMax         ....    0.9800
   Min. Damping (>=0)   DampMin         ....    0.0000
   Turn off err/grad.   DampErr         ....    0.1000
 Fernandez-Rico         CNVRico         .... off

SCF Procedure:
 Maximum # iterations   MaxIter         ....   150
 SCF integral mode      SCFMode         .... Direct
   Integral package                     .... SHARK and LIBINT hybrid scheme
 Reset frequency        DirectResetFreq ....    20
 Integral Threshold     Thresh          ....  2.500e-11 Eh
 Primitive CutOff       TCut            ....  2.500e-12 Eh

Convergence Tolerance:
 Convergence Check Mode ConvCheckMode   .... Total+1el-Energy
 Convergence forced     ConvForced      .... 0
 Energy Change          TolE            ....  1.000e-08 Eh
 1-El. energy change                    ....  1.000e-05 Eh
 Orbital Gradient       TolG            ....  1.000e-05
 Orbital Rotation angle TolX            ....  1.000e-05
 DIIS Error             TolErr          ....  5.000e-07


Diagonalization of the overlap matrix:
Smallest eigenvalue                        ... 1.224e-04
Time for diagonalization                   ...    0.040 sec
Threshold for overlap eigenvalues          ... 1.000e-08
Number of eigenvalues below threshold      ... 0
Time for construction of square roots      ...    0.062 sec
Total time needed                          ...    0.105 sec

Time for model grid setup =    0.113 sec

------------------------------
INITIAL GUESS: MODEL POTENTIAL
------------------------------
Loading Hartree-Fock densities                     ... done
Calculating cut-offs                               ... done
Initializing the effective Hamiltonian             ... done
Setting up the integral package (SHARK)            ... done
Starting the Coulomb interaction                   ... done (   0.1 sec)
Reading the grid                                   ... done
Mapping shells                                     ... done
Starting the XC term evaluation                    ... done (   0.1 sec)
  promolecular density results
     # of electrons  =     95.994479208
     EX              =    -93.375082516
     EC              =     -3.359582879
     EX+EC           =    -96.734665395
Transforming the Hamiltonian                       ... done (   0.0 sec)
Diagonalizing the Hamiltonian                      ... done (   0.0 sec)
Back transforming the eigenvectors                 ... done (   0.0 sec)
Now organizing SCF variables                       ... done
                      ------------------
                      INITIAL GUESS DONE (   0.3 sec)
                      ------------------
-------------------
DFT GRID GENERATION
-------------------

General Integration Accuracy     IntAcc      ... 4.388
Radial Grid Type                 RadialGrid  ... OptM3 with GC (2021)
Angular Grid (max. ang.)         AngularGrid ... 4 (Lebedev-302)
Angular grid pruning method      GridPruning ... 4 (adaptive)
Weight generation scheme         WeightScheme... Becke
Basis function cutoff            BFCut       ... 1.0000e-11
Integration weight cutoff        WCut        ... 1.0000e-14
Angular grids for H and He will be reduced by one unit
Partially contracted basis set               ... off
Rotationally invariant grid construction     ... off

Total number of grid points                  ...   102524
Total number of batches                      ...     1613
Average number of points per batch           ...       63
Average number of grid points per atom       ...     4660
Time for grid setup =    0.538 sec

--------------------
COSX GRID GENERATION
--------------------

GRIDX 1
-------
General Integration Accuracy     IntAcc      ... 3.816
Radial Grid Type                 RadialGrid  ... OptM3 with GC (2021)
Angular Grid (max. ang.)         AngularGrid ... 1 (Lebedev-50)
Angular grid pruning method      GridPruning ... 4 (adaptive)
Weight generation scheme         WeightScheme... Becke
Basis function cutoff            BFCut       ... 1.0000e-11
Integration weight cutoff        WCut        ... 1.0000e-14
Angular grids for H and He will be reduced by one unit
Partially contracted basis set               ... on
Rotationally invariant grid construction     ... off

Total number of grid points                  ...    12980
Total number of batches                      ...      217
Average number of points per batch           ...       59
Average number of grid points per atom       ...      590
UseSFitting                                  ... on

GRIDX 2
-------
General Integration Accuracy     IntAcc      ... 4.020
Radial Grid Type                 RadialGrid  ... OptM3 with GC (2021)
Angular Grid (max. ang.)         AngularGrid ... 2 (Lebedev-110)
Angular grid pruning method      GridPruning ... 4 (adaptive)
Weight generation scheme         WeightScheme... Becke
Basis function cutoff            BFCut       ... 1.0000e-11
Integration weight cutoff        WCut        ... 1.0000e-14
Angular grids for H and He will be reduced by one unit
Partially contracted basis set               ... on
Rotationally invariant grid construction     ... off

Total number of grid points                  ...    28004
Total number of batches                      ...      451
Average number of points per batch           ...       62
Average number of grid points per atom       ...     1273
UseSFitting                                  ... on

GRIDX 3
-------
General Integration Accuracy     IntAcc      ... 4.338
Radial Grid Type                 RadialGrid  ... OptM3 with GC (2021)
Angular Grid (max. ang.)         AngularGrid ... 3 (Lebedev-194)
Angular grid pruning method      GridPruning ... 4 (adaptive)
Weight generation scheme         WeightScheme... Becke
Basis function cutoff            BFCut       ... 1.0000e-11
Integration weight cutoff        WCut        ... 1.0000e-14
Angular grids for H and He will be reduced by one unit
Partially contracted basis set               ... on
Rotationally invariant grid construction     ... off

Total number of grid points                  ...    61921
Total number of batches                      ...      977
Average number of points per batch           ...       63
Average number of grid points per atom       ...     2815
UseSFitting                                  ... on

Time for X-Grid setup             =    0.650 sec

--------------
SCF ITERATIONS
--------------
ITER       Energy         Delta-E        Max-DP      RMS-DP      [F,P]     Damp
               ***  Starting incremental Fock matrix formation  ***
  0   -953.9703745196   0.000000000000 0.14771181  0.00129824  0.2903404 0.7000
  1   -954.2436385462  -0.273264026652 0.05727242  0.00087457  0.1354522 0.7000
                               ***Turning on DIIS***
  2   -954.3380112530  -0.094372706777 0.06789694  0.00128167  0.0518185 0.0000
  3   -954.5014851233  -0.163473870289 0.04681656  0.00067374  0.0769015 0.0000
  4   -954.5334300396  -0.031944916256 0.01899532  0.00023652  0.0182722 0.0000
  5   -954.5360173274  -0.002587287888 0.00412300  0.00008348  0.0064590 0.0000
                      *** Initiating the SOSCF procedure ***
                           *** Shutting down DIIS ***
                      *** Re-Reading the Fockian *** 
                      *** Removing any level shift *** 
ITER      Energy       Delta-E        Grad      Rot      Max-DP    RMS-DP
  6   -954.53616031  -0.0001429806  0.000348  0.000348  0.002137  0.000037
               *** Restarting incremental Fock matrix formation ***
  7   -954.53615111   0.0000092005  0.000217  0.000903  0.002051  0.000034
  8   -954.53615348  -0.0000023744  0.000110  0.000403  0.000899  0.000016
  9   -954.53615373  -0.0000002522  0.000088  0.000259  0.000628  0.000011
 10   -954.53615423  -0.0000004911  0.000025  0.000059  0.000175  0.000003
 11   -954.53615422   0.0000000074  0.000025  0.000048  0.000128  0.000002
 12   -954.53615428  -0.0000000596  0.000004  0.000007  0.000024  0.000000
 13   -954.53615426   0.0000000145  0.000006  0.000005  0.000013  0.000000
                  ***Gradient check signals convergence***
              ***Rediagonalizing the Fockian in SOSCF/NRSCF***

               *****************************************************
               *                     SUCCESS                       *
               *           SCF CONVERGED AFTER  14 CYCLES          *
               *****************************************************

Old exchange energy                            =    -23.734420270 Eh
New exchange energy                            =    -23.734408444 Eh
Exchange energy change after final integration =      0.000011825 Eh
Total energy after final integration           =   -954.536142446 Eh
Final COS-X integration done in                =     3.140 sec

----------------
TOTAL SCF ENERGY
----------------

Total Energy       :         -954.53614245 Eh          -25974.24894 eV

Components:
Nuclear Repulsion  :          831.74176186 Eh           22632.84397 eV
Electronic Energy  :        -1786.27790431 Eh          -48607.09291 eV
One Electron Energy:        -2962.95077874 Eh          -80625.98964 eV
Two Electron Energy:         1176.67287443 Eh           32018.89672 eV
Max COSX asymmetry :            0.00000605 Eh               0.00016 eV

Virial components:
Potential Energy   :        -1906.76910368 Eh          -51885.82514 eV
Kinetic Energy     :          952.23296123 Eh           25911.57619 eV
Virial Ratio       :            2.00241872


DFT components:
N(Alpha)           :       48.000071346682 electrons
N(Beta)            :       48.000071346682 electrons
N(Total)           :       96.000142693365 electrons
E(X)               :      -71.003470727741 Eh       
E(C)               :       -3.358385366417 Eh       
E(XC)              :      -74.361856094158 Eh       
DFET-embed. en.    :        0.000000000000 Eh       

---------------
SCF CONVERGENCE
---------------

  Last Energy change         ...   -8.6310e-09  Tolerance :   1.0000e-08
  Last MAX-Density change    ...    3.7748e-15  Tolerance :   1.0000e-07
  Last RMS-Density change    ...    1.9491e-17  Tolerance :   5.0000e-09
  Last Orbital Gradient      ...    9.0185e-07  Tolerance :   1.0000e-05
  Last Orbital Rotation      ...    1.5736e-06  Tolerance :   1.0000e-05

             **** THE GBW FILE WAS UPDATED (PBE0_D3_wb97.gbw) ****
             **** DENSITY PBE0_D3_wb97.scfp WAS UPDATED ****
             **** ENERGY FILE WAS UPDATED (PBE0_D3_wb97.en.tmp) ****
             **** THE GBW FILE WAS UPDATED (PBE0_D3_wb97.gbw) ****
             **** DENSITY PBE0_D3_wb97.scfp WAS UPDATED ****
----------------
ORBITAL ENERGIES
----------------

  NO   OCC          E(Eh)            E(eV) 
   0   2.0000     -89.261529     -2428.9297 
   1   2.0000     -24.893332      -677.3820 
   2   2.0000     -19.219420      -522.9870 
   3   2.0000     -19.204798      -522.5891 
   4   2.0000     -14.384676      -391.4269 
   5   2.0000     -14.372491      -391.0954 
   6   2.0000     -10.276592      -279.6403 
   7   2.0000     -10.256598      -279.0962 
   8   2.0000     -10.255077      -279.0548 
   9   2.0000     -10.248851      -278.8854 
  10   2.0000     -10.106925      -275.0234 
  11   2.0000      -8.207871      -223.3475 
  12   2.0000      -6.148098      -167.2983 
  13   2.0000      -6.141895      -167.1295 
  14   2.0000      -6.141753      -167.1256 
  15   2.0000      -1.417536       -38.5731 
  16   2.0000      -1.136252       -30.9190 
  17   2.0000      -1.038194       -28.2507 
  18   2.0000      -0.986487       -26.8437 
  19   2.0000      -0.903494       -24.5853 
  20   2.0000      -0.844702       -22.9855 
  21   2.0000      -0.774543       -21.0764 
  22   2.0000      -0.737011       -20.0551 
  23   2.0000      -0.714698       -19.4479 
  24   2.0000      -0.660298       -17.9676 
  25   2.0000      -0.607063       -16.5190 
  26   2.0000      -0.602865       -16.4048 
  27   2.0000      -0.589177       -16.0323 
  28   2.0000      -0.570235       -15.5169 
  29   2.0000      -0.551873       -15.0172 
  30   2.0000      -0.530076       -14.4241 
  31   2.0000      -0.506348       -13.7784 
  32   2.0000      -0.503956       -13.7133 
  33   2.0000      -0.469755       -12.7827 
  34   2.0000      -0.464574       -12.6417 
  35   2.0000      -0.459440       -12.5020 
  36   2.0000      -0.418406       -11.3854 
  37   2.0000      -0.410396       -11.1674 
  38   2.0000      -0.402722       -10.9586 
  39   2.0000      -0.393356       -10.7038 
  40   2.0000      -0.389420       -10.5967 
  41   2.0000      -0.379780       -10.3343 
  42   2.0000      -0.360517        -9.8102 
  43   2.0000      -0.347482        -9.4555 
  44   2.0000      -0.330029        -8.9805 
  45   2.0000      -0.293571        -7.9885 
  46   2.0000      -0.257706        -7.0125 
  47   2.0000      -0.170205        -4.6315 
  48   0.0000       0.025976         0.7068 
  49   0.0000       0.031404         0.8546 
  50   0.0000       0.047788         1.3004 
  51   0.0000       0.069519         1.8917 
  52   0.0000       0.070341         1.9141 
  53   0.0000       0.081216         2.2100 
  54   0.0000       0.086076         2.3423 
  55   0.0000       0.091001         2.4763 
  56   0.0000       0.095673         2.6034 
  57   0.0000       0.104226         2.8361 
  58   0.0000       0.108939         2.9644 
  59   0.0000       0.125777         3.4226 
  60   0.0000       0.136132         3.7043 
  61   0.0000       0.144557         3.9336 
  62   0.0000       0.162406         4.4193 
  63   0.0000       0.175252         4.7688 
  64   0.0000       0.180740         4.9182 
  65   0.0000       0.184112         5.0100 
  66   0.0000       0.203121         5.5272 
  67   0.0000       0.215641         5.8679 
  68   0.0000       0.231555         6.3009 
  69   0.0000       0.241612         6.5746 
  70   0.0000       0.254493         6.9251 
  71   0.0000       0.270523         7.3613 
  72   0.0000       0.274970         7.4823 
  73   0.0000       0.278278         7.5723 
  74   0.0000       0.293580         7.9887 
  75   0.0000       0.304282         8.2799 
  76   0.0000       0.305399         8.3103 
  77   0.0000       0.320536         8.7222 
  78   0.0000       0.328559         8.9405 
  79   0.0000       0.336109         9.1460 
  80   0.0000       0.349998         9.5239 
  81   0.0000       0.354263         9.6400 
  82   0.0000       0.379613        10.3298 
  83   0.0000       0.388841        10.5809 
  84   0.0000       0.393421        10.7055 
  85   0.0000       0.398511        10.8440 
  86   0.0000       0.412284        11.2188 
  87   0.0000       0.414256        11.2725 
  88   0.0000       0.417391        11.3578 
  89   0.0000       0.428783        11.6678 
  90   0.0000       0.433454        11.7949 
  91   0.0000       0.442945        12.0532 
  92   0.0000       0.446813        12.1584 
  93   0.0000       0.453684        12.3454 
  94   0.0000       0.460852        12.5404 
  95   0.0000       0.470547        12.8042 
  96   0.0000       0.471470        12.8294 
  97   0.0000       0.482172        13.1206 
  98   0.0000       0.488932        13.3045 
  99   0.0000       0.495180        13.4745 
 100   0.0000       0.503334        13.6964 
 101   0.0000       0.509249        13.8574 
 102   0.0000       0.531113        14.4523 
 103   0.0000       0.534920        14.5559 
 104   0.0000       0.544692        14.8218 
 105   0.0000       0.552310        15.0291 
 106   0.0000       0.565591        15.3905 
 107   0.0000       0.574406        15.6304 
 108   0.0000       0.600495        16.3403 
 109   0.0000       0.606667        16.5083 
 110   0.0000       0.620216        16.8769 
 111   0.0000       0.625266        17.0144 
 112   0.0000       0.642850        17.4928 
 113   0.0000       0.660218        17.9654 
 114   0.0000       0.673040        18.3143 
 115   0.0000       0.682223        18.5642 
 116   0.0000       0.684411        18.6238 
 117   0.0000       0.701817        19.0974 
 118   0.0000       0.717299        19.5187 
 119   0.0000       0.738388        20.0925 
 120   0.0000       0.763823        20.7847 
 121   0.0000       0.768268        20.9056 
 122   0.0000       0.782859        21.3027 
 123   0.0000       0.784486        21.3470 
 124   0.0000       0.802485        21.8367 
 125   0.0000       0.805924        21.9303 
 126   0.0000       0.826493        22.4900 
 127   0.0000       0.838987        22.8300 
 128   0.0000       0.845158        22.9979 
 129   0.0000       0.864155        23.5149 
 130   0.0000       0.871616        23.7179 
 131   0.0000       0.886154        24.1135 
 132   0.0000       0.901735        24.5375 
 133   0.0000       0.931776        25.3549 
 134   0.0000       0.947602        25.7856 
 135   0.0000       0.972519        26.4636 
 136   0.0000       1.002118        27.2690 
 137   0.0000       1.006391        27.3853 
 138   0.0000       1.015410        27.6307 
 139   0.0000       1.044583        28.4245 
 140   0.0000       1.047486        28.5036 
 141   0.0000       1.065194        28.9854 
 142   0.0000       1.079400        29.3720 
 143   0.0000       1.096377        29.8339 
 144   0.0000       1.125015        30.6132 
 145   0.0000       1.139794        31.0154 
 146   0.0000       1.148666        31.2568 
 147   0.0000       1.167284        31.7634 
 148   0.0000       1.186419        32.2841 
 149   0.0000       1.200181        32.6586 
 150   0.0000       1.221919        33.2501 
 151   0.0000       1.251041        34.0426 
 152   0.0000       1.258526        34.2462 
 153   0.0000       1.288588        35.0643 
 154   0.0000       1.295125        35.2421 
 155   0.0000       1.318916        35.8895 
 156   0.0000       1.346430        36.6382 
 157   0.0000       1.359116        36.9834 
 158   0.0000       1.381966        37.6052 
 159   0.0000       1.396562        38.0024 
 160   0.0000       1.405978        38.2586 
 161   0.0000       1.437314        39.1113 
 162   0.0000       1.451709        39.5030 
 163   0.0000       1.457953        39.6729 
 164   0.0000       1.474741        40.1298 
 165   0.0000       1.489403        40.5287 
 166   0.0000       1.499636        40.8072 
 167   0.0000       1.524706        41.4894 
 168   0.0000       1.536490        41.8100 
 169   0.0000       1.556655        42.3587 
 170   0.0000       1.562012        42.5045 
 171   0.0000       1.568997        42.6946 
 172   0.0000       1.576545        42.9000 
 173   0.0000       1.588057        43.2132 
 174   0.0000       1.594874        43.3987 
 175   0.0000       1.603911        43.6446 
 176   0.0000       1.614635        43.9365 
 177   0.0000       1.626597        44.2620 
 178   0.0000       1.647928        44.8424 
 179   0.0000       1.661193        45.2033 
 180   0.0000       1.672224        45.5035 
 181   0.0000       1.679458        45.7004 
 182   0.0000       1.697999        46.2049 
 183   0.0000       1.706120        46.4259 
 184   0.0000       1.719829        46.7989 
 185   0.0000       1.724027        46.9132 
 186   0.0000       1.730762        47.0964 
 187   0.0000       1.753895        47.7259 
 188   0.0000       1.767390        48.0931 
 189   0.0000       1.773277        48.2533 
 190   0.0000       1.794267        48.8245 
 191   0.0000       1.815516        49.4027 
 192   0.0000       1.823166        49.6109 
 193   0.0000       1.848734        50.3066 
 194   0.0000       1.863960        50.7209 
 195   0.0000       1.880649        51.1751 
 196   0.0000       1.899397        51.6852 
 197   0.0000       1.904701        51.8296 
 198   0.0000       1.939028        52.7636 
 199   0.0000       1.964200        53.4486 
 200   0.0000       1.967588        53.5408 
 201   0.0000       1.985398        54.0254 
 202   0.0000       1.992095        54.2077 
 203   0.0000       2.007001        54.6133 
 204   0.0000       2.015720        54.8505 
 205   0.0000       2.040574        55.5268 
 206   0.0000       2.043162        55.5973 
 207   0.0000       2.077004        56.5182 
 208   0.0000       2.081300        56.6351 
 209   0.0000       2.116816        57.6015 
 210   0.0000       2.126128        57.8549 
 211   0.0000       2.150056        58.5060 
 212   0.0000       2.185393        59.4676 
 213   0.0000       2.196062        59.7579 
 214   0.0000       2.208852        60.1059 
 215   0.0000       2.231817        60.7308 
 216   0.0000       2.250579        61.2414 
 217   0.0000       2.271186        61.8021 
 218   0.0000       2.291826        62.3638 
 219   0.0000       2.301830        62.6360 
 220   0.0000       2.333520        63.4983 
 221   0.0000       2.346539        63.8526 
 222   0.0000       2.353130        64.0319 
 223   0.0000       2.363463        64.3131 
 224   0.0000       2.372627        64.5625 
 225   0.0000       2.403681        65.4075 
 226   0.0000       2.423257        65.9402 
 227   0.0000       2.432687        66.1968 
 228   0.0000       2.438104        66.3442 
 229   0.0000       2.450427        66.6795 
 230   0.0000       2.466204        67.1088 
 231   0.0000       2.474763        67.3417 
 232   0.0000       2.493092        67.8405 
 233   0.0000       2.509476        68.2863 
 234   0.0000       2.533668        68.9446 
 235   0.0000       2.545572        69.2685 
 236   0.0000       2.573339        70.0241 
 237   0.0000       2.589181        70.4552 
 238   0.0000       2.597895        70.6923 
 239   0.0000       2.602276        70.8115 
 240   0.0000       2.624622        71.4196 
 241   0.0000       2.637123        71.7598 
 242   0.0000       2.647961        72.0547 
 243   0.0000       2.664855        72.5144 
 244   0.0000       2.675397        72.8013 
 245   0.0000       2.683333        73.0172 
 246   0.0000       2.689714        73.1908 
 247   0.0000       2.693520        73.2944 
 248   0.0000       2.706430        73.6457 
 249   0.0000       2.726723        74.1979 
 250   0.0000       2.741795        74.6080 
 251   0.0000       2.748596        74.7931 
 252   0.0000       2.776914        75.5637 
 253   0.0000       2.780520        75.6618 
 254   0.0000       2.788952        75.8912 
 255   0.0000       2.804107        76.3036 
 256   0.0000       2.830324        77.0170 
 257   0.0000       2.848841        77.5209 
 258   0.0000       2.866429        77.9995 
 259   0.0000       2.891298        78.6762 
 260   0.0000       2.930677        79.7478 
 261   0.0000       2.948018        80.2196 
 262   0.0000       2.956139        80.4406 
 263   0.0000       2.985646        81.2436 
 264   0.0000       2.995958        81.5242 
 265   0.0000       3.013836        82.0106 
 266   0.0000       3.039600        82.7117 
 267   0.0000       3.054463        83.1162 
 268   0.0000       3.061675        83.3124 
 269   0.0000       3.080073        83.8130 
 270   0.0000       3.093369        84.1749 
 271   0.0000       3.107268        84.5531 
 272   0.0000       3.119121        84.8756 
 273   0.0000       3.138927        85.4145 
 274   0.0000       3.155493        85.8653 
 275   0.0000       3.170405        86.2711 
 276   0.0000       3.178699        86.4968 
 277   0.0000       3.198555        87.0371 
 278   0.0000       3.213602        87.4466 
 279   0.0000       3.235307        88.0372 
 280   0.0000       3.253459        88.5311 
 281   0.0000       3.271982        89.0352 
 282   0.0000       3.287113        89.4469 
 283   0.0000       3.307899        90.0125 
 284   0.0000       3.309312        90.0509 
 285   0.0000       3.321423        90.3805 
 286   0.0000       3.353883        91.2638 
 287   0.0000       3.363568        91.5273 
 288   0.0000       3.364222        91.5451 
 289   0.0000       3.389448        92.2316 
 290   0.0000       3.392023        92.3016 
 291   0.0000       3.421433        93.1019 
 292   0.0000       3.448384        93.8353 
 293   0.0000       3.451370        93.9165 
 294   0.0000       3.466160        94.3190 
 295   0.0000       3.470802        94.4453 
 296   0.0000       3.484304        94.8127 
 297   0.0000       3.495739        95.1239 
 298   0.0000       3.515711        95.6674 
 299   0.0000       3.550587        96.6164 
 300   0.0000       3.556614        96.7804 
 301   0.0000       3.581759        97.4646 
 302   0.0000       3.614670        98.3602 
 303   0.0000       3.623787        98.6083 
 304   0.0000       3.667390        99.7947 
 305   0.0000       3.685503       100.2876 
 306   0.0000       3.742433       101.8368 
 307   0.0000       3.760654       102.3326 
 308   0.0000       3.797420       103.3330 
 309   0.0000       3.821364       103.9846 
 310   0.0000       3.847043       104.6833 
 311   0.0000       3.864574       105.1604 
 312   0.0000       3.872422       105.3740 
 313   0.0000       3.886034       105.7444 
 314   0.0000       3.899225       106.1033 
 315   0.0000       3.911986       106.4506 
 316   0.0000       3.961737       107.8043 
 317   0.0000       3.991820       108.6229 
 318   0.0000       4.011054       109.1463 
 319   0.0000       4.082298       111.0850 
 320   0.0000       4.108384       111.7948 
 321   0.0000       4.131413       112.4215 
 322   0.0000       4.184463       113.8650 
 323   0.0000       4.202799       114.3640 
 324   0.0000       4.242442       115.4427 
 325   0.0000       4.277907       116.4078 
 326   0.0000       4.304027       117.1185 
 327   0.0000       4.325598       117.7055 
 328   0.0000       4.369680       118.9050 
 329   0.0000       4.407401       119.9315 
 330   0.0000       4.439178       120.7962 
 331   0.0000       4.452002       121.1451 
 332   0.0000       4.532646       123.3396 
 333   0.0000       4.573744       124.4579 
 334   0.0000       4.583378       124.7201 
 335   0.0000       4.607855       125.3861 
 336   0.0000       4.628866       125.9578 
 337   0.0000       4.643158       126.3467 
 338   0.0000       4.680998       127.3764 
 339   0.0000       4.724010       128.5468 
 340   0.0000       4.786961       130.2598 
 341   0.0000       4.810346       130.8962 
 342   0.0000       4.849718       131.9675 
 343   0.0000       4.924842       134.0118 
 344   0.0000       4.938292       134.3777 
 345   0.0000       5.019323       136.5827 
 346   0.0000       5.028111       136.8218 
 347   0.0000       5.118184       139.2729 
 348   0.0000       5.137997       139.8120 
 349   0.0000       5.139616       139.8561 
 350   0.0000       5.149018       140.1119 
 351   0.0000       5.157847       140.3522 
 352   0.0000       5.169983       140.6824 
 353   0.0000       5.184291       141.0717 
 354   0.0000       5.196639       141.4077 
 355   0.0000       5.212138       141.8295 
 356   0.0000       5.225046       142.1807 
 357   0.0000       5.242488       142.6554 
 358   0.0000       5.271641       143.4486 
 359   0.0000       5.290430       143.9599 
 360   0.0000       5.309233       144.4716 
 361   0.0000       5.348046       145.5277 
 362   0.0000       5.363321       145.9434 
 363   0.0000       5.402979       147.0225 
 364   0.0000       5.432888       147.8364 
 365   0.0000       5.445725       148.1857 
 366   0.0000       5.484991       149.2542 
 367   0.0000       5.527476       150.4103 
 368   0.0000       5.536575       150.6579 
 369   0.0000       5.599746       152.3768 
 370   0.0000       5.654348       153.8626 
 371   0.0000       5.691819       154.8823 
 372   0.0000       5.696750       155.0165 
 373   0.0000       5.819913       158.3679 
 374   0.0000       5.962476       162.2472 
 375   0.0000       6.066467       165.0770 
 376   0.0000       6.228051       169.4739 
 377   0.0000       6.339004       172.4931 
 378   0.0000       6.357228       172.9890 
 379   0.0000       6.461473       175.8256 
 380   0.0000       6.531451       177.7298 
 381   0.0000       6.627589       180.3459 
 382   0.0000       6.696666       182.2256 
 383   0.0000       6.731837       183.1826 
 384   0.0000       6.769182       184.1988 
 385   0.0000       6.797489       184.9691 
 386   0.0000       6.840293       186.1338 
 387   0.0000       6.859370       186.6529 
 388   0.0000       6.876999       187.1327 
 389   0.0000       6.924105       188.4145 
 390   0.0000       6.944725       188.9756 
 391   0.0000       6.964280       189.5077 
 392   0.0000       7.051848       191.8905 
 393   0.0000       7.097190       193.1244 
 394   0.0000       8.266410       224.9404 
 395   0.0000       8.270848       225.0612 
 396   0.0000       8.635326       234.9792 
 397   0.0000       8.666832       235.8365 
 398   0.0000       8.730134       237.5590 
 399   0.0000       9.397018       255.7059 
 400   0.0000       9.617366       261.7018 
 401   0.0000       9.781593       266.1707 
 402   0.0000      22.234548       605.0328 
 403   0.0000      22.534812       613.2034 
 404   0.0000      22.618715       615.4865 
 405   0.0000      22.665037       616.7470 
 406   0.0000      22.882459       622.6634 
 407   0.0000      23.530810       640.3059 
 408   0.0000      32.143014       874.6559 
 409   0.0000      32.740417       890.9120 
 410   0.0000      43.712946      1189.4897 
 411   0.0000      43.924149      1195.2369 
 412   0.0000      57.184671      1556.0740 

                    ********************************
                    * MULLIKEN POPULATION ANALYSIS *
                    ********************************

-----------------------
MULLIKEN ATOMIC CHARGES
-----------------------
   0 C :   -0.175908
   1 N :   -0.346383
   2 C :   -0.202689
   3 C :   -0.294909
   4 H :    0.178766
   5 H :    0.151114
   6 S :    0.835483
   7 C :    0.394691
   8 N :   -0.521268
   9 C :   -0.601157
  10 H :    0.163947
  11 H :    0.083016
  12 H :    0.191567
  13 H :    0.217889
  14 H :    0.246531
  15 F :   -0.084000
  16 O :   -0.396399
  17 O :   -0.407927
  18 H :    0.134433
  19 H :    0.114629
  20 H :    0.196109
  21 H :    0.122465
Sum of atomic charges:    0.0000000

--------------------------------
MULLIKEN REDUCED ORBITAL CHARGES
--------------------------------
  0 C s       :     3.226341  s :     3.226341
      pz      :     1.020887  p :     2.824722
      px      :     0.866211
      py      :     0.937624
      dz2     :     0.023000  d :     0.116894
      dxz     :     0.031570
      dyz     :     0.012032
      dx2y2   :     0.030224
      dxy     :     0.020068
      f0      :     0.001205  f :     0.007950
      f+1     :     0.001329
      f-1     :     0.000586
      f+2     :     0.000386
      f-2     :     0.001460
      f+3     :     0.001922
      f-3     :     0.001061
  1 N s       :     3.430132  s :     3.430132
      pz      :     1.301148  p :     3.847723
      px      :     1.252655
      py      :     1.293921
      dz2     :     0.010868  d :     0.064315
      dxz     :     0.014661
      dyz     :     0.009260
      dx2y2   :     0.015934
      dxy     :     0.013592
      f0      :     0.000449  f :     0.004213
      f+1     :     0.000381
      f-1     :     0.000728
      f+2     :     0.000679
      f-2     :     0.000740
      f+3     :     0.000673
      f-3     :     0.000563
  2 C s       :     3.161315  s :     3.161315
      pz      :     0.985105  p :     2.936817
      px      :     1.008121
      py      :     0.943591
      dz2     :     0.023398  d :     0.098858
      dxz     :     0.015810
      dyz     :     0.017303
      dx2y2   :     0.013564
      dxy     :     0.028783
      f0      :     0.000958  f :     0.005699
      f+1     :     0.001194
      f-1     :     0.000396
      f+2     :     0.000532
      f-2     :     0.000768
      f+3     :     0.000738
      f-3     :     0.001114
  3 C s       :     3.199035  s :     3.199035
      pz      :     0.997821  p :     2.997205
      px      :     0.974662
      py      :     1.024721
      dz2     :     0.013167  d :     0.093882
      dxz     :     0.022142
      dyz     :     0.016552
      dx2y2   :     0.017427
      dxy     :     0.024595
      f0      :     0.000706  f :     0.004788
      f+1     :     0.000912
      f-1     :     0.000130
      f+2     :     0.000657
      f-2     :     0.000553
      f+3     :     0.000775
      f-3     :     0.001055
  4 H s       :     0.798618  s :     0.798618
      pz      :     0.004508  p :     0.022616
      px      :     0.009015
      py      :     0.009094
  5 H s       :     0.826524  s :     0.826524
      pz      :     0.011613  p :     0.022363
      px      :     0.005851
      py      :     0.004899
  6 S s       :     5.380483  s :     5.380483
      pz      :     2.916955  p :     8.538735
      px      :     2.899619
      py      :     2.722161
      dz2     :     0.215092  d :     1.120450
      dxz     :     0.261840
      dyz     :     0.201095
      dx2y2   :     0.249827
      dxy     :     0.192597
      f0      :     0.019927  f :     0.124849
      f+1     :     0.009315
      f-1     :     0.017550
      f+2     :     0.017705
      f-2     :     0.018145
      f+3     :     0.023385
      f-3     :     0.018823
  7 C s       :     2.982925  s :     2.982925
      pz      :     0.824327  p :     2.400706
      px      :     0.789801
      py      :     0.786579
      dz2     :     0.044733  d :     0.203812
      dxz     :     0.046665
      dyz     :     0.024628
      dx2y2   :     0.043391
      dxy     :     0.044396
      f0      :     0.002082  f :     0.017867
      f+1     :     0.001873
      f-1     :     0.002704
      f+2     :     0.002292
      f-2     :     0.003280
      f+3     :     0.003505
      f-3     :     0.002131
  8 N s       :     3.430615  s :     3.430615
      pz      :     1.668601  p :     4.050051
      px      :     1.133852
      py      :     1.247598
      dz2     :     0.003298  d :     0.036961
      dxz     :     0.007700
      dyz     :     0.005196
      dx2y2   :     0.011422
      dxy     :     0.009345
      f0      :     0.000706  f :     0.003641
      f+1     :     0.000408
      f-1     :     0.000348
      f+2     :     0.000547
      f-2     :     0.000558
      f+3     :     0.000492
      f-3     :     0.000582
  9 C s       :     3.272258  s :     3.272258
      pz      :     1.093047  p :     3.286194
      px      :     1.017218
      py      :     1.175929
      dz2     :     0.008923  d :     0.037459
      dxz     :     0.007116
      dyz     :     0.007320
      dx2y2   :     0.007347
      dxy     :     0.006753
      f0      :     0.000527  f :     0.005246
      f+1     :     0.000901
      f-1     :     0.000747
      f+2     :     0.001052
      f-2     :     0.000738
      f+3     :     0.000716
      f-3     :     0.000565
 10 H s       :     0.792908  s :     0.792908
      pz      :     0.007482  p :     0.043146
      px      :     0.026877
      py      :     0.008786
 11 H s       :     0.891013  s :     0.891013
      pz      :     0.010151  p :     0.025972
      px      :     0.004983
      py      :     0.010838
 12 H s       :     0.769655  s :     0.769655
      pz      :     0.015022  p :     0.038778
      px      :     0.015031
      py      :     0.008724
 13 H s       :     0.743923  s :     0.743923
      pz      :     0.013941  p :     0.038188
      px      :     0.015248
      py      :     0.008999
 14 H s       :     0.715190  s :     0.715190
      pz      :     0.014850  p :     0.038279
      px      :     0.005609
      py      :     0.017820
 15 F s       :     3.894925  s :     3.894925
      pz      :     1.835273  p :     5.166420
      px      :     1.822306
      py      :     1.508841
      dz2     :     0.002594  d :     0.021721
      dxz     :     0.000682
      dyz     :     0.005460
      dx2y2   :     0.006931
      dxy     :     0.006053
      f0      :     0.000092  f :     0.000934
      f+1     :     0.000023
      f-1     :     0.000155
      f+2     :     0.000126
      f-2     :     0.000056
      f+3     :     0.000238
      f-3     :     0.000245
 16 O s       :     3.834966  s :     3.834966
      pz      :     1.646280  p :     4.523378
      px      :     1.496204
      py      :     1.380894
      dz2     :     0.003885  d :     0.035983
      dxz     :     0.005538
      dyz     :     0.005726
      dx2y2   :     0.010794
      dxy     :     0.010040
      f0      :     0.000229  f :     0.002072
      f+1     :     0.000196
      f-1     :     0.000197
      f+2     :     0.000083
      f-2     :     0.000389
      f+3     :     0.000507
      f-3     :     0.000470
 17 O s       :     3.843534  s :     3.843534
      pz      :     1.364529  p :     4.527468
      px      :     1.534715
      py      :     1.628224
      dz2     :     0.011272  d :     0.035031
      dxz     :     0.009531
      dyz     :     0.007962
      dx2y2   :     0.003389
      dxy     :     0.002877
      f0      :     0.000447  f :     0.001894
      f+1     :     0.000500
      f-1     :     0.000306
      f+2     :     0.000257
      f-2     :     0.000268
      f+3     :     0.000051
      f-3     :     0.000064
 18 H s       :     0.843721  s :     0.843721
      pz      :     0.004416  p :     0.021845
      px      :     0.009158
      py      :     0.008272
 19 H s       :     0.864030  s :     0.864030
      pz      :     0.010438  p :     0.021341
      px      :     0.006495
      py      :     0.004408
 20 H s       :     0.780368  s :     0.780368
      pz      :     0.012018  p :     0.023523
      px      :     0.007116
      py      :     0.004389
 21 H s       :     0.856411  s :     0.856411
      pz      :     0.004418  p :     0.021124
      px      :     0.004860
      py      :     0.011846


                     *******************************
                     * LOEWDIN POPULATION ANALYSIS *
                     *******************************

----------------------
LOEWDIN ATOMIC CHARGES
----------------------
   0 C :   -0.271980
   1 N :    0.111640
   2 C :   -0.285017
   3 C :   -0.372998
   4 H :    0.149077
   5 H :    0.140207
   6 S :    0.534037
   7 C :   -0.488816
   8 N :   -0.032116
   9 C :   -0.334168
  10 H :    0.079219
  11 H :    0.096788
  12 H :    0.174418
  13 H :    0.154400
  14 H :    0.172722
  15 F :    0.106467
  16 O :   -0.255267
  17 O :   -0.262030
  18 H :    0.151433
  19 H :    0.144975
  20 H :    0.152817
  21 H :    0.134192

-------------------------------
LOEWDIN REDUCED ORBITAL CHARGES
-------------------------------
  0 C s       :     2.782526  s :     2.782526
      pz      :     1.052778  p :     2.977626
      px      :     0.952103
      py      :     0.972745
      dz2     :     0.095822  d :     0.459048
      dxz     :     0.120945
      dyz     :     0.038017
      dx2y2   :     0.111326
      dxy     :     0.092938
      f0      :     0.007301  f :     0.052780
      f+1     :     0.006577
      f-1     :     0.006163
      f+2     :     0.004383
      f-2     :     0.008989
      f+3     :     0.012173
      f-3     :     0.007194
  1 N s       :     2.909907  s :     2.909907
      pz      :     1.267701  p :     3.731690
      px      :     1.183631
      py      :     1.280358
      dz2     :     0.037916  d :     0.231138
      dxz     :     0.053641
      dyz     :     0.035433
      dx2y2   :     0.052980
      dxy     :     0.051168
      f0      :     0.001787  f :     0.015624
      f+1     :     0.001056
      f-1     :     0.002737
      f+2     :     0.002256
      f-2     :     0.002856
      f+3     :     0.003077
      f-3     :     0.001856
  2 C s       :     2.784542  s :     2.784542
      pz      :     1.030425  p :     3.063560
      px      :     1.026783
      py      :     1.006352
      dz2     :     0.094380  d :     0.398587
      dxz     :     0.078078
      dyz     :     0.060990
      dx2y2   :     0.056580
      dxy     :     0.108559
      f0      :     0.005746  f :     0.038329
      f+1     :     0.005498
      f-1     :     0.005032
      f+2     :     0.005709
      f-2     :     0.004898
      f+3     :     0.004463
      f-3     :     0.006982
  3 C s       :     2.844986  s :     2.844986
      pz      :     1.026786  p :     3.133073
      px      :     1.029903
      py      :     1.076384
      dz2     :     0.059339  d :     0.363900
      dxz     :     0.088943
      dyz     :     0.054958
      dx2y2   :     0.067250
      dxy     :     0.093411
      f0      :     0.003552  f :     0.031039
      f+1     :     0.004380
      f-1     :     0.002967
      f+2     :     0.006188
      f-2     :     0.003444
      f+3     :     0.004347
      f-3     :     0.006161
  4 H s       :     0.784674  s :     0.784674
      pz      :     0.013558  p :     0.066248
      px      :     0.026914
      py      :     0.025776
  5 H s       :     0.795120  s :     0.795120
      pz      :     0.033149  p :     0.064673
      px      :     0.017428
      py      :     0.014095
  6 S s       :     4.755094  s :     4.755094
      pz      :     2.896087  p :     8.552478
      px      :     2.882093
      py      :     2.774298
      dz2     :     0.347263  d :     1.776223
      dxz     :     0.413670
      dyz     :     0.291956
      dx2y2   :     0.395090
      dxy     :     0.328245
      f0      :     0.054988  f :     0.382168
      f+1     :     0.034841
      f-1     :     0.056130
      f+2     :     0.051114
      f-2     :     0.054113
      f+3     :     0.071249
      f-3     :     0.059733
  7 C s       :     2.695313  s :     2.695313
      pz      :     0.923631  p :     2.806605
      px      :     0.982074
      py      :     0.900901
      dz2     :     0.172840  d :     0.869984
      dxz     :     0.173988
      dyz     :     0.129522
      dx2y2   :     0.196233
      dxy     :     0.197401
      f0      :     0.014598  f :     0.116913
      f+1     :     0.012578
      f-1     :     0.015332
      f+2     :     0.014268
      f-2     :     0.018844
      f+3     :     0.025703
      f-3     :     0.015592
  8 N s       :     2.970307  s :     2.970307
      pz      :     1.496853  p :     3.902430
      px      :     1.167547
      py      :     1.238031
      dz2     :     0.008178  d :     0.148667
      dxz     :     0.030991
      dyz     :     0.015575
      dx2y2   :     0.052136
      dxy     :     0.041788
      f0      :     0.001844  f :     0.010712
      f+1     :     0.001155
      f-1     :     0.000376
      f+2     :     0.001422
      f-2     :     0.001814
      f+3     :     0.002542
      f-3     :     0.001559
  9 C s       :     2.800162  s :     2.800162
      pz      :     1.106691  p :     3.279569
      px      :     1.075993
      py      :     1.096885
      dz2     :     0.037940  d :     0.223896
      dxz     :     0.043537
      dyz     :     0.042782
      dx2y2   :     0.065052
      dxy     :     0.034586
      f0      :     0.003148  f :     0.030541
      f+1     :     0.006087
      f-1     :     0.002293
      f+2     :     0.005363
      f-2     :     0.005767
      f+3     :     0.004635
      f-3     :     0.003248
 10 H s       :     0.785225  s :     0.785225
      pz      :     0.023681  p :     0.135555
      px      :     0.084710
      py      :     0.027165
 11 H s       :     0.823848  s :     0.823848
      pz      :     0.028492  p :     0.079364
      px      :     0.018952
      py      :     0.031920
 12 H s       :     0.717784  s :     0.717784
      pz      :     0.043577  p :     0.107798
      px      :     0.040294
      py      :     0.023927
 13 H s       :     0.733942  s :     0.733942
      pz      :     0.039375  p :     0.111658
      px      :     0.042951
      py      :     0.029333
 14 H s       :     0.716616  s :     0.716616
      pz      :     0.042435  p :     0.110662
      px      :     0.015798
      py      :     0.052428
 15 F s       :     3.656218  s :     3.656218
      pz      :     1.785008  p :     5.194987
      px      :     1.778428
      py      :     1.631551
      dz2     :     0.005939  d :     0.040541
      dxz     :     0.001121
      dyz     :     0.008014
      dx2y2   :     0.015202
      dxy     :     0.010265
      f0      :     0.000154  f :     0.001787
      f+1     :     0.000043
      f-1     :     0.000332
      f+2     :     0.000202
      f-2     :     0.000111
      f+3     :     0.000466
      f-3     :     0.000478
 16 O s       :     3.563943  s :     3.563943
      pz      :     1.599534  p :     4.616950
      px      :     1.551292
      py      :     1.466123
      dz2     :     0.009807  d :     0.069688
      dxz     :     0.009306
      dyz     :     0.008503
      dx2y2   :     0.013000
      dxy     :     0.029072
      f0      :     0.000451  f :     0.004686
      f+1     :     0.000499
      f-1     :     0.000464
      f+2     :     0.000160
      f-2     :     0.000813
      f+3     :     0.001168
      f-3     :     0.001130
 17 O s       :     3.567281  s :     3.567281
      pz      :     1.492308  p :     4.618454
      px      :     1.537654
      py      :     1.588492
      dz2     :     0.024105  d :     0.071813
      dxz     :     0.023568
      dyz     :     0.011122
      dx2y2   :     0.008068
      dxy     :     0.004950
      f0      :     0.000927  f :     0.004482
      f+1     :     0.001615
      f-1     :     0.000622
      f+2     :     0.000485
      f-2     :     0.000533
      f+3     :     0.000111
      f-3     :     0.000189
 18 H s       :     0.787486  s :     0.787486
      pz      :     0.013198  p :     0.061080
      px      :     0.025523
      py      :     0.022359
 19 H s       :     0.795384  s :     0.795384
      pz      :     0.027556  p :     0.059641
      px      :     0.019375
      py      :     0.012710
 20 H s       :     0.780939  s :     0.780939
      pz      :     0.033394  p :     0.066244
      px      :     0.019979
      py      :     0.012870
 21 H s       :     0.806107  s :     0.806107
      pz      :     0.013768  p :     0.059702
      px      :     0.014246
      py      :     0.031688


                      *****************************
                      * MAYER POPULATION ANALYSIS *
                      *****************************

  NA   - Mulliken gross atomic population
  ZA   - Total nuclear charge
  QA   - Mulliken gross atomic charge
  VA   - Mayer's total valence
  BVA  - Mayer's bonded valence
  FA   - Mayer's free valence

  ATOM       NA         ZA         QA         VA         BVA        FA
  0 C      6.1759     6.0000    -0.1759     3.9453     3.9453     0.0000
  1 N      7.3464     7.0000    -0.3464     3.1029     3.1029    -0.0000
  2 C      6.2027     6.0000    -0.2027     3.9338     3.9338     0.0000
  3 C      6.2949     6.0000    -0.2949     3.9259     3.9259    -0.0000
  4 H      0.8212     1.0000     0.1788     0.9593     0.9593     0.0000
  5 H      0.8489     1.0000     0.1511     0.9665     0.9665     0.0000
  6 S     15.1645    16.0000     0.8355     5.9234     5.9234    -0.0000
  7 C      5.6053     6.0000     0.3947     3.8714     3.8714    -0.0000
  8 N      7.5213     7.0000    -0.5213     3.0420     3.0420     0.0000
  9 C      6.6012     6.0000    -0.6012     3.7679     3.7679    -0.0000
 10 H      0.8361     1.0000     0.1639     1.0447     1.0447    -0.0000
 11 H      0.9170     1.0000     0.0830     1.0080     1.0080     0.0000
 12 H      0.8084     1.0000     0.1916     0.9739     0.9739     0.0000
 13 H      0.7821     1.0000     0.2179     0.9640     0.9640     0.0000
 14 H      0.7535     1.0000     0.2465     0.9523     0.9523    -0.0000
 15 F      9.0840     9.0000    -0.0840     1.2417     1.2417     0.0000
 16 O      8.3964     8.0000    -0.3964     2.0712     2.0712     0.0000
 17 O      8.4079     8.0000    -0.4079     1.9587     1.9587    -0.0000
 18 H      0.8656     1.0000     0.1344     0.9884     0.9884     0.0000
 19 H      0.8854     1.0000     0.1146     0.9711     0.9711     0.0000
 20 H      0.8039     1.0000     0.1961     0.9690     0.9690    -0.0000
 21 H      0.8775     1.0000     0.1225     0.9720     0.9720     0.0000

  Mayer bond orders larger than 0.100000
B(  0-C ,  1-N ) :   0.9023 B(  0-C ,  2-C ) :   1.0102 B(  0-C , 20-H ) :   0.9551 
B(  0-C , 21-H ) :   0.9649 B(  1-N ,  7-C ) :   1.1529 B(  1-N , 12-H ) :   0.9213 
B(  2-C ,  3-C ) :   1.0063 B(  2-C , 18-H ) :   0.9445 B(  2-C , 19-H ) :   0.9451 
B(  3-C ,  4-H ) :   0.9262 B(  3-C ,  5-H ) :   0.9304 B(  3-C ,  6-S ) :   0.9315 
B(  6-S , 15-F ) :   1.1573 B(  6-S , 16-O ) :   1.9463 B(  6-S , 17-O ) :   1.8043 
B(  7-C ,  8-N ) :   1.0907 B(  7-C ,  9-C ) :   1.6326 B(  8-N , 13-H ) :   0.9191 
B(  8-N , 14-H ) :   0.9166 B(  9-C , 10-H ) :   0.9744 B(  9-C , 11-H ) :   1.0021 


-------
TIMINGS
-------

Total SCF time: 0 days 0 hours 0 min 31 sec 

Total time                  ....      31.352 sec
Sum of individual times     ....      30.710 sec  ( 98.0%)

Fock matrix formation       ....      28.105 sec  ( 89.6%)
  Split-RI-J                ....       3.248 sec  ( 11.6% of F)
  Chain of spheres X        ....      21.451 sec  ( 76.3% of F)
  XC integration            ....       3.169 sec  ( 11.3% of F)
    Basis function eval.    ....       0.806 sec  ( 25.4% of XC)
    Density eval.           ....       0.812 sec  ( 25.6% of XC)
    XC-Functional eval.     ....       0.086 sec  (  2.7% of XC)
    XC-Potential eval.      ....       0.804 sec  ( 25.4% of XC)
Diagonalization             ....       0.386 sec  (  1.2%)
Density matrix formation    ....       0.037 sec  (  0.1%)
Population analysis         ....       0.050 sec  (  0.2%)
Initial guess               ....       0.208 sec  (  0.7%)
Orbital Transformation      ....       0.000 sec  (  0.0%)
Orbital Orthonormalization  ....       0.000 sec  (  0.0%)
DIIS solution               ....       0.220 sec  (  0.7%)
SOSCF solution              ....       0.404 sec  (  1.3%)
Grid generation             ....       1.300 sec  (  4.1%)

Maximum memory used throughout the entire SCF-calculation: 91.1 MB


-------------------------------------------------------------------------------
                          DFT DISPERSION CORRECTION                            
                                                                               
                              DFTD3 V3.1  Rev 1                                
                          USING Becke-Johnson damping                          
-------------------------------------------------------------------------------
The PBE0 functional is recognized
Active option DFTDOPT                   ...         4   

molecular C6(AA) [au] = 4998.986766 


            DFT-D V3
 parameters
 s6 scaling factor         :     1.0000 
 a1 scaling factor         :     0.4145 
 s8 scaling factor         :     1.2177 
 a2 scaling factor         :     4.8593 
 ad hoc parameters k1-k3   :    16.0000     1.3333    -4.0000 

 Edisp/kcal,au: -13.852964278953  -0.022076101436 
 E6   /kcal   :  -8.757970459 
 E8   /kcal   :  -5.094993820 
 % E8         :  36.779087258 

-------------------------   ----------------
Dispersion correction           -0.022076101
-------------------------   ----------------


-------------------------   --------------------
FINAL SINGLE POINT ENERGY      -954.558218547733
-------------------------   --------------------


                            ***************************************
                            *     ORCA property calculations      *
                            ***************************************

                                    ---------------------
                                    Active property flags
                                    ---------------------
   (+) Dipole Moment


------------------------------------------------------------------------------
                       ORCA ELECTRIC PROPERTIES CALCULATION
------------------------------------------------------------------------------

Dipole Moment Calculation                       ... on
Quadrupole Moment Calculation                   ... off
Polarizability Calculation                      ... off
GBWName                                         ... PBE0_D3_wb97.gbw
Electron density file                           ... PBE0_D3_wb97.scfp
The origin for moment calculation is the CENTER OF MASS  = ( 4.308001,  0.753479 -6.552857)

-------------
DIPOLE MOMENT
-------------
                                X             Y             Z
Electronic contribution:    -14.66214      -5.49848       0.05984
Nuclear contribution   :     15.84345       5.19593       1.66752
                        -----------------------------------------
Total Dipole Moment    :      1.18131      -0.30254       1.72736
                        -----------------------------------------
Magnitude (a.u.)       :      2.11442
Magnitude (Debye)      :      5.37444



--------------------
Rotational spectrum 
--------------------
 
Rotational constants in cm-1:     0.059060     0.020573     0.017713 
Rotational constants in MHz :  1770.576058   616.749938   531.036486 

 Dipole components along the rotational axes: 
x,y,z [a.u.] :    -0.822515     0.749524     1.797906 
x,y,z [Debye]:    -2.090668     1.905138     4.569914 

 

Timings for individual modules:

Sum of individual times         ...       32.842 sec (=   0.547 min)
GTO integral calculation        ...        1.042 sec (=   0.017 min)   3.2 %
SCF iterations                  ...       31.800 sec (=   0.530 min)  96.8 %
                             ****ORCA TERMINATED NORMALLY****
TOTAL RUN TIME: 0 days 0 hours 0 minutes 33 seconds 528 msec
