
                                        *****************
                                        * O   R   C   A *
                                        *****************

                                            #,                                       
                                            ###                                      
                                            ####                                     
                                            #####                                    
                                            ######                                   
                                           ########,                                 
                                     ,,################,,,,,                         
                               ,,#################################,,                 
                          ,,##########################################,,             
                       ,#########################################, ''#####,          
                    ,#############################################,,   '####,        
                  ,##################################################,,,,####,       
                ,###########''''           ''''###############################       
              ,#####''   ,,,,##########,,,,          '''####'''          '####       
            ,##' ,,,,###########################,,,                        '##       
           ' ,,###''''                  '''############,,,                           
         ,,##''                                '''############,,,,        ,,,,,,###''
      ,#''                                            '''#######################'''  
     '                                                          ''''####''''         
             ,#######,   #######,   ,#######,      ##                                
            ,#'     '#,  ##    ##  ,#'     '#,    #''#        ######   ,####,        
            ##       ##  ##   ,#'  ##            #'  '#       #        #'  '#        
            ##       ##  #######   ##           ,######,      #####,   #    #        
            '#,     ,#'  ##    ##  '#,     ,#' ,#      #,         ##   #,  ,#        
             '#######'   ##     ##  '#######'  #'      '#     #####' # '####'        



                  #######################################################
                  #                        -***-                        #
                  #          Department of theory and spectroscopy      #
                  #    Directorship and core code : Frank Neese         #
                  #        Max Planck Institute fuer Kohlenforschung    #
                  #                Kaiser Wilhelm Platz 1               #
                  #                 D-45470 Muelheim/Ruhr               #
                  #                      Germany                        #
                  #                                                     #
                  #                  All rights reserved                #
                  #                        -***-                        #
                  #######################################################


                         Program Version 5.0.0 -  RELEASE  -
                                (SVN: $Rev: 19529$)
                ($Date: 2021-06-28 11:36:33 +0200 (Mo, 28 Jun 2021) $)


 With contributions from (in alphabetic order):
   Daniel Aravena         : Magnetic Suceptibility
   Michael Atanasov       : Ab Initio Ligand Field Theory (pilot matlab implementation)
   Alexander A. Auer      : GIAO ZORA, VPT2 properties, NMR spectrum
   Ute Becker             : Parallelization
   Giovanni Bistoni       : ED, misc. LED, open-shell LED, HFLD
   Martin Brehm           : Molecular dynamics
   Dmytro Bykov           : SCF Hessian
   Vijay G. Chilkuri      : MRCI spin determinant printing, contributions to CSF-ICE
   Dipayan Datta          : RHF DLPNO-CCSD density
   Achintya Kumar Dutta   : EOM-CC, STEOM-CC
   Dmitry Ganyushin       : Spin-Orbit,Spin-Spin,Magnetic field MRCI
   Miquel Garcia          : C-PCM Hessian, Gaussian charge scheme
   Yang Guo               : DLPNO-NEVPT2, F12-NEVPT2, CIM, IAO-localization
   Andreas Hansen         : Spin unrestricted coupled pair/coupled cluster methods
   Benjamin Helmich-Paris : MC-RPA, TRAH-SCF, COSX integrals
   Lee Huntington         : MR-EOM, pCC
   Robert Izsak           : Overlap fitted RIJCOSX, COSX-SCS-MP3, EOM
   Marcus Kettner         : VPT2
   Christian Kollmar      : KDIIS, OOCD, Brueckner-CCSD(T), CCSD density, CASPT2, CASPT2-K
   Simone Kossmann        : Meta GGA functionals, TD-DFT gradient, OOMP2, MP2 Hessian
   Martin Krupicka        : Initial AUTO-CI
   Lucas Lang             : DCDCAS
   Marvin Lechner         : AUTO-CI (C++ implementation), FIC-MRCC
   Dagmar Lenk            : GEPOL surface, SMD
   Dimitrios Liakos       : Extrapolation schemes; Compound Job, initial MDCI parallelization
   Dimitrios Manganas     : Further ROCIS development; embedding schemes
   Dimitrios Pantazis     : SARC Basis sets
   Anastasios Papadopoulos: AUTO-CI, single reference methods and gradients
   Taras Petrenko         : DFT Hessian,TD-DFT gradient, ASA, ECA, R-Raman, ABS, FL, XAS/XES, NRVS
   Peter Pinski           : DLPNO-MP2, DLPNO-MP2 Gradient
   Christoph Reimann      : Effective Core Potentials
   Marius Retegan         : Local ZFS, SOC
   Christoph Riplinger    : Optimizer, TS searches, QM/MM, DLPNO-CCSD(T), (RO)-DLPNO pert. Triples
   Tobias Risthaus        : Range-separated hybrids, TD-DFT gradient, RPA, STAB
   Michael Roemelt        : Original ROCIS implementation
   Masaaki Saitow         : Open-shell DLPNO-CCSD energy and density
   Barbara Sandhoefer     : DKH picture change effects
   Avijit Sen             : IP-ROCIS
   Kantharuban Sivalingam : CASSCF convergence, NEVPT2, FIC-MRCI
   Bernardo de Souza      : ESD, SOC TD-DFT
   Georgi Stoychev        : AutoAux, RI-MP2 NMR
   Willem Van den Heuvel  : Paramagnetic NMR
   Boris Wezisla          : Elementary symmetry handling
   Frank Wennmohs         : Technical directorship


 We gratefully acknowledge several colleagues who have allowed us to
 interface, adapt or use parts of their codes:
   Stefan Grimme, W. Hujo, H. Kruse, P. Pracht,  : VdW corrections, initial TS optimization,
                  C. Bannwarth, S. Ehlert          DFT functionals, gCP, sTDA/sTD-DF
   Ed Valeev, F. Pavosevic, A. Kumar             : LibInt (2-el integral package), F12 methods
   Garnet Chan, S. Sharma, J. Yang, R. Olivares  : DMRG
   Ulf Ekstrom                                   : XCFun DFT Library
   Mihaly Kallay                                 : mrcc  (arbitrary order and MRCC methods)
   Jiri Pittner, Ondrej Demel                    : Mk-CCSD
   Frank Weinhold                                : gennbo (NPA and NBO analysis)
   Christopher J. Cramer and Donald G. Truhlar   : smd solvation model
   Lars Goerigk                                  : TD-DFT with DH, B97 family of functionals
   V. Asgeirsson, H. Jonsson                     : NEB implementation
   FAccTs GmbH                                   : IRC, NEB, NEB-TS, DLPNO-Multilevel, CI-OPT
                                                   MM, QMMM, 2- and 3-layer-ONIOM, Crystal-QMMM,
                                                   LR-CPCM, SF, NACMEs, symmetry and pop. for TD-DFT,
                                                   nearIR, NL-DFT gradient (VV10), updates on ESD,
                                                   ML-optimized integration grids
   S Lehtola, MJT Oliveira, MAL Marques          : LibXC Library
   Liviu Ungur et al                             : ANISO software


 Your calculation uses the libint2 library for the computation of 2-el integrals
 For citations please refer to: http://libint.valeyev.net

 Your ORCA version has been built with support for libXC version: 5.1.0
 For citations please refer to: https://tddft.org/programs/libxc/

 This ORCA versions uses:
   CBLAS   interface :  Fast vector & matrix operations
   LAPACKE interface :  Fast linear algebra routines
   SCALAPACK package :  Parallel linear algebra routines
   Shared memory     :  Shared parallel matrices
   BLAS/LAPACK       :  OpenBLAS 0.3.15  USE64BITINT DYNAMIC_ARCH NO_AFFINITY Haswell SINGLE_THREADED
        Core in use  :  Haswell
   Copyright (c) 2011-2014, The OpenBLAS Project




***************************************
The coordinates will be read from file: D6.xyz
***************************************


Your calculation utilizes the atom-pairwise dispersion correction
with the Becke-Johnson damping scheme (D3BJ)
Cite in your paper:
S.Grimme, S.Ehrlich, L.Goerigk, J Comput Chem, (2011), 32, 1456–1465 
S.Grimme, J.Antony, S.Ehrlich and H.Krieg, J.Chem.Phys., 132, (2010), 154104 
   

================================================================================

----- Orbital basis set information -----
Your calculation utilizes the basis: def2-TZVP
   F. Weigend and R. Ahlrichs, Phys. Chem. Chem. Phys. 7, 3297 (2005).

----- AuxJ basis set information -----
Your calculation utilizes the auxiliary basis: def2/J
   F. Weigend, Phys. Chem. Chem. Phys. 8, 1057 (2006).

================================================================================
                                        WARNINGS
                       Please study these warnings very carefully!
================================================================================


INFO   : the flag for use of the SHARK integral package has been found!

================================================================================
                                       INPUT FILE
================================================================================
NAME = PBE0_D6_wb97.com
|  1> !PBE0 D3BJ RIJCOSX def2-TZVP def2/J TightSCF xyzfile                                                                                         
|  2> 
|  3> *xyzfile 0 1 D6.xyz
|  4> 
|  5> %MaxCore 64000
|  6> 
|  7> %pal nprocs 18                                                                                                                                                  
|  8> end  
|  9> 
| 10> %scf
| 11>   MaxIter 150
| 12> end
| 13> 
| 14> 
| 15>                          ****END OF INPUT****
================================================================================

                       ****************************
                       * Single Point Calculation *
                       ****************************

---------------------------------
CARTESIAN COORDINATES (ANGSTROEM)
---------------------------------
  C      3.380928    2.083045   -3.350127
  N      4.535924    1.182447   -3.428518
  C      2.495557    1.816150   -2.136364
  C      1.872181    0.427903   -2.077497
  H      2.614270   -0.365825   -2.198894
  H      1.389953    0.273087   -1.112360
  S      0.579024    0.140472   -3.297943
  C      4.671956    0.122273   -4.220598
  N      5.866023   -0.507849   -4.224284
  C      3.698881   -0.312844   -4.986988
  H      2.731405   -0.050091   -4.849000
  H      3.890046   -1.055172   -5.643730
  H      5.251933    1.303459   -2.721014
  H      6.695165   -0.062322   -3.851596
  H      5.975383   -1.396884   -4.691414
  O      0.228860   -1.246868   -3.127871
  F     -0.439269    1.118966   -3.014550
  O      1.247881    0.403474   -4.595647
  H      1.697003    2.561969   -2.141109
  H      3.080787    1.987436   -1.225838
  H      2.806463    1.986511   -4.268484
  H      3.778714    3.098282   -3.307383

----------------------------
CARTESIAN COORDINATES (A.U.)
----------------------------
  NO LB      ZA    FRAG     MASS         X           Y           Z
   0 C     6.0000    0    12.011    6.389028    3.936384   -6.330822
   1 N     7.0000    0    14.007    8.571653    2.234501   -6.478960
   2 C     6.0000    0    12.011    4.715920    3.432025   -4.037143
   3 C     6.0000    0    12.011    3.537909    0.808619   -3.925901
   4 H     1.0000    0     1.008    4.940255   -0.691309   -4.155307
   5 H     1.0000    0     1.008    2.626630    0.516060   -2.102056
   6 S    16.0000    0    32.060    1.094197    0.265454   -6.232209
   7 C     6.0000    0    12.011    8.828718    0.231062   -7.975775
   8 N     7.0000    0    14.007   11.085178   -0.959696   -7.982739
   9 C     6.0000    0    12.011    6.989872   -0.591189   -9.424042
  10 H     1.0000    0     1.008    5.161608   -0.094658   -9.163282
  11 H     1.0000    0     1.008    7.351122   -1.993986  -10.665104
  12 H     1.0000    0     1.008    9.924714    2.463181   -5.141971
  13 H     1.0000    0     1.008   12.652028   -0.117771   -7.278462
  14 H     1.0000    0     1.008   11.291838   -2.639728   -8.865488
  15 O     8.0000    0    15.999    0.432483   -2.356238   -5.910819
  16 F     9.0000    0    18.998   -0.830098    2.114540   -5.696673
  17 O     8.0000    0    15.999    2.358154    0.762455   -8.684514
  18 H     1.0000    0     1.008    3.206871    4.841420   -4.046109
  19 H     1.0000    0     1.008    5.821845    3.755709   -2.316498
  20 H     1.0000    0     1.008    5.303447    3.753961   -8.066266
  21 H     1.0000    0     1.008    7.140735    5.854904   -6.250048

--------------------------------
INTERNAL COORDINATES (ANGSTROEM)
--------------------------------
 C      0   0   0     0.000000000000     0.00000000     0.00000000
 N      1   0   0     1.466709159152     0.00000000     0.00000000
 C      1   2   0     1.525887598611   113.08106121     0.00000000
 C      3   1   2     1.522922426714   115.32150160   298.98779578
 H      4   3   1     1.093360976858   112.31147686    51.76616417
 H      4   3   1     1.089954594431   110.16986842   171.17309744
 S      4   3   1     1.801210303623   114.40266140   289.23510751
 C      2   1   3     1.330363150639   126.98915710   102.39030975
 N      8   2   1     1.350134350047   117.64436639   174.24681917
 C      8   2   1     1.312842464079   122.40463695   354.61440396
 H     10   8   2     1.011972738098   122.88487069   342.67118838
 H     10   8   2     1.009408202469   118.89300887   173.11229738
 H      2   1   3     1.013841643828   116.45871694   291.29563037
 H      9   8   2     1.012356698497   121.19473046   343.47581302
 H      9   8   2     1.010224236058   120.51235872   170.23230527
 O      7   4   3     1.440920179428   104.36732947   175.27794104
 F      7   4   3     1.440376003423   105.41678409   299.48536641
 O      7   4   3     1.483433803163   103.93008595    57.15043279
 H      3   1   2     1.092683852872   107.52997589   177.35677273
 H      3   1   2     1.095851861430   108.88782929    62.11677368
 H      1   2   3     1.087524204377   108.44120771   237.12593655
 H      1   2   3     1.091223184114   106.63672387   121.10258644

---------------------------
INTERNAL COORDINATES (A.U.)
---------------------------
 C      0   0   0     0.000000000000     0.00000000     0.00000000
 N      1   0   0     2.771678628911     0.00000000     0.00000000
 C      1   2   0     2.883509672521   113.08106121     0.00000000
 C      3   1   2     2.877906309695   115.32150160   298.98779578
 H      4   3   1     2.066152811778   112.31147686    51.76616417
 H      4   3   1     2.059715681884   110.16986842   171.17309744
 S      4   3   1     3.403794183444   114.40266140   289.23510751
 C      2   1   3     2.514022013368   126.98915710   102.39030975
 N      8   2   1     2.551384165588   117.64436639   174.24681917
 C      8   2   1     2.480912714091   122.40463695   354.61440396
 H     10   8   2     1.912351330000   122.88487069   342.67118838
 H     10   8   2     1.907505060000   118.89300887   173.11229738
 H      2   1   3     1.915883050000   116.45871694   291.29563037
 H      9   8   2     1.913076910000   121.19473046   343.47581302
 H      9   8   2     1.909047140000   120.51235872   170.23230527
 O      7   4   3     2.722944519960   104.36732947   175.27794104
 F      7   4   3     2.721916176342   105.41678409   299.48536641
 O      7   4   3     2.803283625779   103.93008595    57.15043279
 H      3   1   2     2.064873232886   107.52997589   177.35677273
 H      3   1   2     2.070859901451   108.88782929    62.11677368
 H      1   2   3     2.055122910283   108.44120771   237.12593655
 H      1   2   3     2.062112968961   106.63672387   121.10258644

---------------------
BASIS SET INFORMATION
---------------------
There are 6 groups of distinct atoms

 Group   1 Type C   : 11s6p2d1f contracted to 5s3p2d1f pattern {62111/411/11/1}
 Group   2 Type N   : 11s6p2d1f contracted to 5s3p2d1f pattern {62111/411/11/1}
 Group   3 Type H   : 5s1p contracted to 3s1p pattern {311/1}
 Group   4 Type S   : 14s9p3d1f contracted to 5s5p2d1f pattern {73211/51111/21/1}
 Group   5 Type O   : 11s6p2d1f contracted to 5s3p2d1f pattern {62111/411/11/1}
 Group   6 Type F   : 11s6p2d1f contracted to 5s3p2d1f pattern {62111/411/11/1}

Atom   0C    basis set group =>   1
Atom   1N    basis set group =>   2
Atom   2C    basis set group =>   1
Atom   3C    basis set group =>   1
Atom   4H    basis set group =>   3
Atom   5H    basis set group =>   3
Atom   6S    basis set group =>   4
Atom   7C    basis set group =>   1
Atom   8N    basis set group =>   2
Atom   9C    basis set group =>   1
Atom  10H    basis set group =>   3
Atom  11H    basis set group =>   3
Atom  12H    basis set group =>   3
Atom  13H    basis set group =>   3
Atom  14H    basis set group =>   3
Atom  15O    basis set group =>   5
Atom  16F    basis set group =>   6
Atom  17O    basis set group =>   5
Atom  18H    basis set group =>   3
Atom  19H    basis set group =>   3
Atom  20H    basis set group =>   3
Atom  21H    basis set group =>   3
---------------------------------
AUXILIARY/J BASIS SET INFORMATION
---------------------------------
There are 6 groups of distinct atoms

 Group   1 Type C   : 12s5p4d2f1g contracted to 6s4p3d1f1g pattern {711111/2111/211/2/1}
 Group   2 Type N   : 12s5p4d2f1g contracted to 6s4p3d1f1g pattern {711111/2111/211/2/1}
 Group   3 Type H   : 5s2p1d contracted to 3s1p1d pattern {311/2/1}
 Group   4 Type S   : 14s5p5d2f1g contracted to 8s4p3d1f1g pattern {71111111/2111/311/2/1}
 Group   5 Type O   : 12s5p4d2f1g contracted to 6s4p3d1f1g pattern {711111/2111/211/2/1}
 Group   6 Type F   : 12s5p4d2f1g contracted to 6s4p3d1f1g pattern {711111/2111/211/2/1}

Atom   0C    basis set group =>   1
Atom   1N    basis set group =>   2
Atom   2C    basis set group =>   1
Atom   3C    basis set group =>   1
Atom   4H    basis set group =>   3
Atom   5H    basis set group =>   3
Atom   6S    basis set group =>   4
Atom   7C    basis set group =>   1
Atom   8N    basis set group =>   2
Atom   9C    basis set group =>   1
Atom  10H    basis set group =>   3
Atom  11H    basis set group =>   3
Atom  12H    basis set group =>   3
Atom  13H    basis set group =>   3
Atom  14H    basis set group =>   3
Atom  15O    basis set group =>   5
Atom  16F    basis set group =>   6
Atom  17O    basis set group =>   5
Atom  18H    basis set group =>   3
Atom  19H    basis set group =>   3
Atom  20H    basis set group =>   3
Atom  21H    basis set group =>   3


           ************************************************************
           *        Program running with 18 parallel MPI-processes    *
           *              working on a common directory               *
           ************************************************************
------------------------------------------------------------------------------
                           ORCA GTO INTEGRAL CALCULATION
                           -- RI-GTO INTEGRALS CHOSEN --
------------------------------------------------------------------------------
------------------------------------------------------------------------------
                   ___                                                        
                  /   \      - P O W E R E D   B Y -                         
                 /     \                                                     
                 |  |  |   _    _      __       _____    __    __             
                 |  |  |  | |  | |    /  \     |  _  \  |  |  /  |          
                  \  \/   | |  | |   /    \    | | | |  |  | /  /          
                 / \  \   | |__| |  /  /\  \   | |_| |  |  |/  /          
                |  |  |   |  __  | /  /__\  \  |    /   |      \           
                |  |  |   | |  | | |   __   |  |    \   |  |\   \          
                \     /   | |  | | |  |  |  |  | |\  \  |  | \   \       
                 \___/    |_|  |_| |__|  |__|  |_| \__\ |__|  \__/        
                                                                              
                      - O R C A' S   B I G   F R I E N D -                    
                                      &                                       
                       - I N T E G R A L  F E E D E R -                       
                                                                              
 v1 FN, 2020, v2 2021                                                         
------------------------------------------------------------------------------


Reading SHARK input file PBE0_D6_wb97.SHARKINP.tmp ... ok
----------------------
SHARK INTEGRAL PACKAGE
----------------------

Number of atoms                             ...     22
Number of basis functions                   ...    413
Number of shells                            ...    167
Maximum angular momentum                    ...      3
Integral batch strategy                     ... SHARK/LIBINT Hybrid
RI-J (if used) integral strategy            ... SPLIT-RIJ (Revised 2003 algorithm where possible)
Printlevel                                  ...      1
Contraction scheme used                     ... SEGMENTED contraction
Coulomb Range Separation                    ... NOT USED
Exchange Range Separation                   ... NOT USED
Finite Nucleus Model                        ... NOT USED
Auxiliary Coulomb fitting basis             ... AVAILABLE
   # of basis functions in Aux-J            ...    662
   # of shells in Aux-J                     ...    222
   Maximum angular momentum in Aux-J        ...      4
Auxiliary J/K fitting basis                 ... NOT available
Auxiliary Correlation fitting basis         ... NOT available
Auxiliary 'external' fitting basis          ... NOT available
Integral threshold                          ...     2.500000e-11
Primitive cut-off                           ...     2.500000e-12
Primitive pair pre-selection threshold      ...     2.500000e-12

Calculating pre-screening integrals         ... done (  0.1 sec) Dimension = 167
Organizing shell pair data                  ... done (  0.1 sec)
Shell pair information
Total number of shell pairs                 ...     14028
Shell pairs after pre-screening             ...     11971
Total number of primitive shell pairs       ...     43360
Primitive shell pairs kept                  ...     26279
          la=0 lb=0:   3248 shell pairs
          la=1 lb=0:   3500 shell pairs
          la=1 lb=1:    979 shell pairs
          la=2 lb=0:   1624 shell pairs
          la=2 lb=1:    893 shell pairs
          la=2 lb=2:    224 shell pairs
          la=3 lb=0:    795 shell pairs
          la=3 lb=1:    445 shell pairs
          la=3 lb=2:    207 shell pairs
          la=3 lb=3:     56 shell pairs

Calculating one electron integrals          ... done (  0.0 sec)
Calculating RI/J V-Matrix + Cholesky decomp.... done (  0.1 sec)
Calculating Nuclear repulsion               ... done (  0.0 sec) ENN=    831.796089165771 Eh

SHARK setup successfully completed in   0.5 seconds

Maximum memory used throughout the entire GTOINT-calculation: 20.5 MB


           ************************************************************
           *        Program running with 18 parallel MPI-processes    *
           *              working on a common directory               *
           ************************************************************
-------------------------------------------------------------------------------
                                 ORCA SCF
-------------------------------------------------------------------------------

------------
SCF SETTINGS
------------
Hamiltonian:
 Density Functional     Method          .... DFT(GTOs)
 Exchange Functional    Exchange        .... PBE
   PBE kappa parameter   XKappa         ....  0.804000
   PBE mue parameter    XMuePBE         ....  0.219520
 Correlation Functional Correlation     .... PBE
   PBE beta parameter  CBetaPBE         ....  0.066725
 LDA part of GGA corr.  LDAOpt          .... PW91-LDA
 Gradients option       PostSCFGGA      .... off
 Hybrid DFT is turned on
   Fraction HF Exchange ScalHFX         ....  0.250000
   Scaling of DF-GGA-X  ScalDFX         ....  0.750000
   Scaling of DF-GGA-C  ScalDFC         ....  1.000000
   Scaling of DF-LDA-C  ScalLDAC        ....  1.000000
   Perturbative correction              ....  0.000000
   Density functional embedding theory  .... OFF
   NL short-range parameter             ....  6.900000
 RI-approximation to the Coulomb term is turned on
   Number of AuxJ basis functions       .... 662
   RIJ-COSX (HFX calculated with COS-X)).... on


General Settings:
 Integral files         IntName         .... PBE0_D6_wb97
 Hartree-Fock type      HFTyp           .... RHF
 Total Charge           Charge          ....    0
 Multiplicity           Mult            ....    1
 Number of Electrons    NEL             ....   96
 Basis Dimension        Dim             ....  413
 Nuclear Repulsion      ENuc            ....    831.7960891658 Eh

Convergence Acceleration:
 DIIS                   CNVDIIS         .... on
   Start iteration      DIISMaxIt       ....    12
   Startup error        DIISStart       ....  0.200000
   # of expansion vecs  DIISMaxEq       ....     5
   Bias factor          DIISBfac        ....   1.050
   Max. coefficient     DIISMaxC        ....  10.000
 Trust-Rad. Augm. Hess. CNVTRAH         .... auto
   Auto Start mean grad. ratio tolernc. ....  1.125000
   Auto Start start iteration           ....    20
   Auto Start num. interpolation iter.  ....    10
   Max. Number of Micro iterations      ....    16
   Max. Number of Macro iterations      .... Maxiter - #DIIS iter
   Number of Davidson start vectors     ....     2
   Converg. threshold I  (grad. norm)   ....   1.000e-05
   Converg. threshold II (energy diff.) ....   1.000e-08
   Grad. Scal. Fac. for Micro threshold ....   0.100
   Minimum threshold for Micro iter.    ....   0.010
   NR start threshold (gradient norm)   ....   0.001
   Initial trust radius                 ....   0.400
   Minimum AH scaling param. (alpha)    ....   1.000
   Maximum AH scaling param. (alpha)    .... 1000.000
   Orbital update algorithm             .... Taylor
   White noise on init. David. guess    .... on
   Maximum white noise                  ....   0.010
   Quad. conv. algorithm                .... NR
 SOSCF                  CNVSOSCF        .... on
   Start iteration      SOSCFMaxIt      ....   150
   Startup grad/error   SOSCFStart      ....  0.003300
 Level Shifting         CNVShift        .... on
   Level shift para.    LevelShift      ....    0.2500
   Turn off err/grad.   ShiftErr        ....    0.0010
 Zerner damping         CNVZerner       .... off
 Static damping         CNVDamp         .... on
   Fraction old density DampFac         ....    0.7000
   Max. Damping (<1)    DampMax         ....    0.9800
   Min. Damping (>=0)   DampMin         ....    0.0000
   Turn off err/grad.   DampErr         ....    0.1000
 Fernandez-Rico         CNVRico         .... off

SCF Procedure:
 Maximum # iterations   MaxIter         ....   150
 SCF integral mode      SCFMode         .... Direct
   Integral package                     .... SHARK and LIBINT hybrid scheme
 Reset frequency        DirectResetFreq ....    20
 Integral Threshold     Thresh          ....  2.500e-11 Eh
 Primitive CutOff       TCut            ....  2.500e-12 Eh

Convergence Tolerance:
 Convergence Check Mode ConvCheckMode   .... Total+1el-Energy
 Convergence forced     ConvForced      .... 0
 Energy Change          TolE            ....  1.000e-08 Eh
 1-El. energy change                    ....  1.000e-05 Eh
 Orbital Gradient       TolG            ....  1.000e-05
 Orbital Rotation angle TolX            ....  1.000e-05
 DIIS Error             TolErr          ....  5.000e-07


Diagonalization of the overlap matrix:
Smallest eigenvalue                        ... 1.226e-04
Time for diagonalization                   ...    0.046 sec
Threshold for overlap eigenvalues          ... 1.000e-08
Number of eigenvalues below threshold      ... 0
Time for construction of square roots      ...    0.069 sec
Total time needed                          ...    0.117 sec

Time for model grid setup =    0.155 sec

------------------------------
INITIAL GUESS: MODEL POTENTIAL
------------------------------
Loading Hartree-Fock densities                     ... done
Calculating cut-offs                               ... done
Initializing the effective Hamiltonian             ... done
Setting up the integral package (SHARK)            ... done
Starting the Coulomb interaction                   ... done (   0.1 sec)
Reading the grid                                   ... done
Mapping shells                                     ... done
Starting the XC term evaluation                    ... done (   0.1 sec)
  promolecular density results
     # of electrons  =     95.994458161
     EX              =    -93.375080909
     EC              =     -3.359407715
     EX+EC           =    -96.734488624
Transforming the Hamiltonian                       ... done (   0.0 sec)
Diagonalizing the Hamiltonian                      ... done (   0.0 sec)
Back transforming the eigenvectors                 ... done (   0.0 sec)
Now organizing SCF variables                       ... done
                      ------------------
                      INITIAL GUESS DONE (   0.5 sec)
                      ------------------
-------------------
DFT GRID GENERATION
-------------------

General Integration Accuracy     IntAcc      ... 4.388
Radial Grid Type                 RadialGrid  ... OptM3 with GC (2021)
Angular Grid (max. ang.)         AngularGrid ... 4 (Lebedev-302)
Angular grid pruning method      GridPruning ... 4 (adaptive)
Weight generation scheme         WeightScheme... Becke
Basis function cutoff            BFCut       ... 1.0000e-11
Integration weight cutoff        WCut        ... 1.0000e-14
Angular grids for H and He will be reduced by one unit
Partially contracted basis set               ... off
Rotationally invariant grid construction     ... off

Total number of grid points                  ...   102520
Total number of batches                      ...     1612
Average number of points per batch           ...       63
Average number of grid points per atom       ...     4660
Time for grid setup =    0.787 sec

--------------------
COSX GRID GENERATION
--------------------

GRIDX 1
-------
General Integration Accuracy     IntAcc      ... 3.816
Radial Grid Type                 RadialGrid  ... OptM3 with GC (2021)
Angular Grid (max. ang.)         AngularGrid ... 1 (Lebedev-50)
Angular grid pruning method      GridPruning ... 4 (adaptive)
Weight generation scheme         WeightScheme... Becke
Basis function cutoff            BFCut       ... 1.0000e-11
Integration weight cutoff        WCut        ... 1.0000e-14
Angular grids for H and He will be reduced by one unit
Partially contracted basis set               ... on
Rotationally invariant grid construction     ... off

Total number of grid points                  ...    12981
Total number of batches                      ...      217
Average number of points per batch           ...       59
Average number of grid points per atom       ...      590
UseSFitting                                  ... on

GRIDX 2
-------
General Integration Accuracy     IntAcc      ... 4.020
Radial Grid Type                 RadialGrid  ... OptM3 with GC (2021)
Angular Grid (max. ang.)         AngularGrid ... 2 (Lebedev-110)
Angular grid pruning method      GridPruning ... 4 (adaptive)
Weight generation scheme         WeightScheme... Becke
Basis function cutoff            BFCut       ... 1.0000e-11
Integration weight cutoff        WCut        ... 1.0000e-14
Angular grids for H and He will be reduced by one unit
Partially contracted basis set               ... on
Rotationally invariant grid construction     ... off

Total number of grid points                  ...    28005
Total number of batches                      ...      451
Average number of points per batch           ...       62
Average number of grid points per atom       ...     1273
UseSFitting                                  ... on

GRIDX 3
-------
General Integration Accuracy     IntAcc      ... 4.338
Radial Grid Type                 RadialGrid  ... OptM3 with GC (2021)
Angular Grid (max. ang.)         AngularGrid ... 3 (Lebedev-194)
Angular grid pruning method      GridPruning ... 4 (adaptive)
Weight generation scheme         WeightScheme... Becke
Basis function cutoff            BFCut       ... 1.0000e-11
Integration weight cutoff        WCut        ... 1.0000e-14
Angular grids for H and He will be reduced by one unit
Partially contracted basis set               ... on
Rotationally invariant grid construction     ... off

Total number of grid points                  ...    61926
Total number of batches                      ...      978
Average number of points per batch           ...       63
Average number of grid points per atom       ...     2815
UseSFitting                                  ... on

Time for X-Grid setup             =    0.761 sec

--------------
SCF ITERATIONS
--------------
ITER       Energy         Delta-E        Max-DP      RMS-DP      [F,P]     Damp
               ***  Starting incremental Fock matrix formation  ***
  0   -953.9646981078   0.000000000000 0.14948851  0.00136371  0.2867758 0.7000
  1   -954.2410953205  -0.276397212631 0.05721782  0.00092458  0.1331332 0.7000
                               ***Turning on DIIS***
  2   -954.3354056840  -0.094310363484 0.06727456  0.00131807  0.0494537 0.0000
  3   -954.5010494009  -0.165643716922 0.04660230  0.00070920  0.0753542 0.0000
  4   -954.5327424388  -0.031693037893 0.01932825  0.00023454  0.0182568 0.0000
  5   -954.5354543727  -0.002711933963 0.00464957  0.00008309  0.0059448 0.0000
                      *** Initiating the SOSCF procedure ***
                           *** Shutting down DIIS ***
                      *** Re-Reading the Fockian *** 
                      *** Removing any level shift *** 
ITER      Energy       Delta-E        Grad      Rot      Max-DP    RMS-DP
  6   -954.53558392  -0.0001295513  0.000424  0.000424  0.001614  0.000036
               *** Restarting incremental Fock matrix formation ***
  7   -954.53558722  -0.0000032911  0.000210  0.000815  0.001647  0.000032
  8   -954.53558967  -0.0000024544  0.000115  0.000360  0.000715  0.000015
  9   -954.53558977  -0.0000001007  0.000116  0.000236  0.000521  0.000010
 10   -954.53559033  -0.0000005560  0.000019  0.000045  0.000143  0.000002
 11   -954.53559033   0.0000000008  0.000020  0.000036  0.000085  0.000002
 12   -954.53559035  -0.0000000281  0.000004  0.000009  0.000018  0.000000
 13   -954.53559034   0.0000000135  0.000007  0.000006  0.000011  0.000000
                  ***Gradient check signals convergence***
              ***Rediagonalizing the Fockian in SOSCF/NRSCF***

               *****************************************************
               *                     SUCCESS                       *
               *           SCF CONVERGED AFTER  14 CYCLES          *
               *****************************************************

Old exchange energy                            =    -23.734238079 Eh
New exchange energy                            =    -23.734296249 Eh
Exchange energy change after final integration =     -0.000058170 Eh
Total energy after final integration           =   -954.535648516 Eh
Final COS-X integration done in                =     3.163 sec

----------------
TOTAL SCF ENERGY
----------------

Total Energy       :         -954.53564852 Eh          -25974.23550 eV

Components:
Nuclear Repulsion  :          831.79608917 Eh           22634.32229 eV
Electronic Energy  :        -1786.33173768 Eh          -48608.55779 eV
One Electron Energy:        -2963.05032423 Eh          -80628.69841 eV
Two Electron Energy:         1176.71858655 Eh           32020.14061 eV
Max COSX asymmetry :            0.00000995 Eh               0.00027 eV

Virial components:
Potential Energy   :        -1906.77369911 Eh          -51885.95018 eV
Kinetic Energy     :          952.23805060 Eh           25911.71468 eV
Virial Ratio       :            2.00241284


DFT components:
N(Alpha)           :       48.000055413652 electrons
N(Beta)            :       48.000055413652 electrons
N(Total)           :       96.000110827304 electrons
E(X)               :      -71.003616446391 Eh       
E(C)               :       -3.358303091784 Eh       
E(XC)              :      -74.361919538175 Eh       
DFET-embed. en.    :        0.000000000000 Eh       

---------------
SCF CONVERGENCE
---------------

  Last Energy change         ...   -6.2051e-09  Tolerance :   1.0000e-08
  Last MAX-Density change    ...    5.7732e-15  Tolerance :   1.0000e-07
  Last RMS-Density change    ...    2.7122e-17  Tolerance :   5.0000e-09
  Last Orbital Gradient      ...    6.9545e-07  Tolerance :   1.0000e-05
  Last Orbital Rotation      ...    1.7871e-06  Tolerance :   1.0000e-05

             **** THE GBW FILE WAS UPDATED (PBE0_D6_wb97.gbw) ****
             **** DENSITY PBE0_D6_wb97.scfp WAS UPDATED ****
             **** ENERGY FILE WAS UPDATED (PBE0_D6_wb97.en.tmp) ****
             **** THE GBW FILE WAS UPDATED (PBE0_D6_wb97.gbw) ****
             **** DENSITY PBE0_D6_wb97.scfp WAS UPDATED ****
----------------
ORBITAL ENERGIES
----------------

  NO   OCC          E(Eh)            E(eV) 
   0   2.0000     -89.260470     -2428.9009 
   1   2.0000     -24.893291      -677.3809 
   2   2.0000     -19.218717      -522.9679 
   3   2.0000     -19.206195      -522.6271 
   4   2.0000     -14.385058      -391.4373 
   5   2.0000     -14.370952      -391.0535 
   6   2.0000     -10.276424      -279.6357 
   7   2.0000     -10.258709      -279.1537 
   8   2.0000     -10.253560      -279.0136 
   9   2.0000     -10.251182      -278.9488 
  10   2.0000     -10.106433      -275.0100 
  11   2.0000      -8.206860      -223.3200 
  12   2.0000      -6.147217      -167.2743 
  13   2.0000      -6.140870      -167.1016 
  14   2.0000      -6.140634      -167.0951 
  15   2.0000      -1.418273       -38.5932 
  16   2.0000      -1.134772       -30.8787 
  17   2.0000      -1.038401       -28.2563 
  18   2.0000      -0.986071       -26.8324 
  19   2.0000      -0.903168       -24.5764 
  20   2.0000      -0.847402       -23.0590 
  21   2.0000      -0.771634       -20.9972 
  22   2.0000      -0.738352       -20.0916 
  23   2.0000      -0.715009       -19.4564 
  24   2.0000      -0.660721       -17.9791 
  25   2.0000      -0.614687       -16.7265 
  26   2.0000      -0.607314       -16.5259 
  27   2.0000      -0.584453       -15.9038 
  28   2.0000      -0.568965       -15.4823 
  29   2.0000      -0.548468       -14.9246 
  30   2.0000      -0.528702       -14.3867 
  31   2.0000      -0.506505       -13.7827 
  32   2.0000      -0.500326       -13.6146 
  33   2.0000      -0.477534       -12.9943 
  34   2.0000      -0.463655       -12.6167 
  35   2.0000      -0.457035       -12.4365 
  36   2.0000      -0.427754       -11.6398 
  37   2.0000      -0.410815       -11.1788 
  38   2.0000      -0.405182       -11.0256 
  39   2.0000      -0.396832       -10.7983 
  40   2.0000      -0.386462       -10.5162 
  41   2.0000      -0.377937       -10.2842 
  42   2.0000      -0.361967        -9.8496 
  43   2.0000      -0.335226        -9.1220 
  44   2.0000      -0.322117        -8.7652 
  45   2.0000      -0.307583        -8.3697 
  46   2.0000      -0.257531        -7.0078 
  47   2.0000      -0.168592        -4.5876 
  48   0.0000       0.020493         0.5576 
  49   0.0000       0.035052         0.9538 
  50   0.0000       0.047155         1.2831 
  51   0.0000       0.062062         1.6888 
  52   0.0000       0.070883         1.9288 
  53   0.0000       0.077495         2.1087 
  54   0.0000       0.083239         2.2650 
  55   0.0000       0.091011         2.4765 
  56   0.0000       0.101279         2.7559 
  57   0.0000       0.111544         3.0353 
  58   0.0000       0.115324         3.1381 
  59   0.0000       0.121112         3.2956 
  60   0.0000       0.133553         3.6342 
  61   0.0000       0.144269         3.9258 
  62   0.0000       0.162631         4.4254 
  63   0.0000       0.170686         4.6446 
  64   0.0000       0.178713         4.8630 
  65   0.0000       0.182888         4.9766 
  66   0.0000       0.206953         5.6315 
  67   0.0000       0.213623         5.8130 
  68   0.0000       0.232756         6.3336 
  69   0.0000       0.242178         6.5900 
  70   0.0000       0.255971         6.9653 
  71   0.0000       0.264857         7.2071 
  72   0.0000       0.272367         7.4115 
  73   0.0000       0.283031         7.7017 
  74   0.0000       0.292768         7.9666 
  75   0.0000       0.304463         8.2849 
  76   0.0000       0.311009         8.4630 
  77   0.0000       0.317730         8.6459 
  78   0.0000       0.329907         8.9772 
  79   0.0000       0.332840         9.0571 
  80   0.0000       0.348329         9.4785 
  81   0.0000       0.349892         9.5210 
  82   0.0000       0.379538        10.3278 
  83   0.0000       0.385670        10.4946 
  84   0.0000       0.396557        10.7909 
  85   0.0000       0.398656        10.8480 
  86   0.0000       0.411043        11.1851 
  87   0.0000       0.415345        11.3021 
  88   0.0000       0.418747        11.3947 
  89   0.0000       0.423773        11.5315 
  90   0.0000       0.428562        11.6618 
  91   0.0000       0.440928        11.9983 
  92   0.0000       0.447211        12.1692 
  93   0.0000       0.456471        12.4212 
  94   0.0000       0.458595        12.4790 
  95   0.0000       0.465848        12.6764 
  96   0.0000       0.473902        12.8955 
  97   0.0000       0.482488        13.1292 
  98   0.0000       0.488787        13.3006 
  99   0.0000       0.493513        13.4292 
 100   0.0000       0.503031        13.6882 
 101   0.0000       0.511814        13.9272 
 102   0.0000       0.528115        14.3707 
 103   0.0000       0.535879        14.5820 
 104   0.0000       0.545136        14.8339 
 105   0.0000       0.558141        15.1878 
 106   0.0000       0.564779        15.3684 
 107   0.0000       0.570097        15.5131 
 108   0.0000       0.597497        16.2587 
 109   0.0000       0.607200        16.5227 
 110   0.0000       0.615599        16.7513 
 111   0.0000       0.627331        17.0706 
 112   0.0000       0.645390        17.5619 
 113   0.0000       0.666888        18.1469 
 114   0.0000       0.669841        18.2273 
 115   0.0000       0.680275        18.5112 
 116   0.0000       0.689688        18.7674 
 117   0.0000       0.703818        19.1519 
 118   0.0000       0.711289        19.3552 
 119   0.0000       0.734934        19.9986 
 120   0.0000       0.764704        20.8087 
 121   0.0000       0.773735        21.0544 
 122   0.0000       0.779398        21.2085 
 123   0.0000       0.787114        21.4185 
 124   0.0000       0.802556        21.8387 
 125   0.0000       0.808426        21.9984 
 126   0.0000       0.825025        22.4501 
 127   0.0000       0.834882        22.7183 
 128   0.0000       0.847069        23.0499 
 129   0.0000       0.856023        23.2936 
 130   0.0000       0.867585        23.6082 
 131   0.0000       0.896791        24.4029 
 132   0.0000       0.902733        24.5646 
 133   0.0000       0.936491        25.4832 
 134   0.0000       0.955468        25.9996 
 135   0.0000       0.962812        26.1994 
 136   0.0000       0.982221        26.7276 
 137   0.0000       1.015609        27.6361 
 138   0.0000       1.017636        27.6913 
 139   0.0000       1.026798        27.9406 
 140   0.0000       1.045734        28.4559 
 141   0.0000       1.066038        29.0084 
 142   0.0000       1.079904        29.3857 
 143   0.0000       1.095272        29.8039 
 144   0.0000       1.127511        30.6811 
 145   0.0000       1.143140        31.1064 
 146   0.0000       1.162589        31.6357 
 147   0.0000       1.167406        31.7667 
 148   0.0000       1.186053        32.2741 
 149   0.0000       1.194467        32.5031 
 150   0.0000       1.221983        33.2518 
 151   0.0000       1.246587        33.9214 
 152   0.0000       1.260124        34.2897 
 153   0.0000       1.286582        35.0097 
 154   0.0000       1.293646        35.2019 
 155   0.0000       1.319933        35.9172 
 156   0.0000       1.342068        36.5195 
 157   0.0000       1.355410        36.8826 
 158   0.0000       1.383128        37.6368 
 159   0.0000       1.390667        37.8420 
 160   0.0000       1.405052        38.2334 
 161   0.0000       1.435638        39.0657 
 162   0.0000       1.438971        39.1564 
 163   0.0000       1.466465        39.9045 
 164   0.0000       1.475799        40.1585 
 165   0.0000       1.493953        40.6525 
 166   0.0000       1.502497        40.8850 
 167   0.0000       1.523757        41.4635 
 168   0.0000       1.528653        41.5968 
 169   0.0000       1.556273        42.3483 
 170   0.0000       1.558972        42.4218 
 171   0.0000       1.573306        42.8118 
 172   0.0000       1.582015        43.0488 
 173   0.0000       1.586909        43.1820 
 174   0.0000       1.597324        43.4654 
 175   0.0000       1.607805        43.7506 
 176   0.0000       1.611628        43.8546 
 177   0.0000       1.623557        44.1792 
 178   0.0000       1.636516        44.5319 
 179   0.0000       1.659484        45.1569 
 180   0.0000       1.666252        45.3410 
 181   0.0000       1.676858        45.6296 
 182   0.0000       1.696248        46.1573 
 183   0.0000       1.710653        46.5492 
 184   0.0000       1.716647        46.7123 
 185   0.0000       1.725626        46.9567 
 186   0.0000       1.727615        47.0108 
 187   0.0000       1.754778        47.7499 
 188   0.0000       1.767751        48.1030 
 189   0.0000       1.778192        48.3871 
 190   0.0000       1.793651        48.8077 
 191   0.0000       1.821051        49.5533 
 192   0.0000       1.826492        49.7014 
 193   0.0000       1.843659        50.1685 
 194   0.0000       1.857163        50.5360 
 195   0.0000       1.899044        51.6756 
 196   0.0000       1.904910        51.8352 
 197   0.0000       1.911597        52.0172 
 198   0.0000       1.927872        52.4601 
 199   0.0000       1.937578        52.7242 
 200   0.0000       1.965424        53.4819 
 201   0.0000       1.975300        53.7507 
 202   0.0000       1.997800        54.3629 
 203   0.0000       2.005172        54.5635 
 204   0.0000       2.027494        55.1709 
 205   0.0000       2.040344        55.5206 
 206   0.0000       2.050908        55.8081 
 207   0.0000       2.079256        56.5794 
 208   0.0000       2.104313        57.2613 
 209   0.0000       2.116714        57.5987 
 210   0.0000       2.128221        57.9118 
 211   0.0000       2.149296        58.4853 
 212   0.0000       2.165277        58.9202 
 213   0.0000       2.206207        60.0339 
 214   0.0000       2.209507        60.1237 
 215   0.0000       2.228534        60.6415 
 216   0.0000       2.249962        61.2246 
 217   0.0000       2.263645        61.5969 
 218   0.0000       2.280736        62.0620 
 219   0.0000       2.303910        62.6926 
 220   0.0000       2.331498        63.4433 
 221   0.0000       2.332179        63.4618 
 222   0.0000       2.347323        63.8739 
 223   0.0000       2.363940        64.3261 
 224   0.0000       2.380048        64.7644 
 225   0.0000       2.397123        65.2290 
 226   0.0000       2.427459        66.0545 
 227   0.0000       2.430379        66.1340 
 228   0.0000       2.452620        66.7392 
 229   0.0000       2.459486        66.9260 
 230   0.0000       2.464453        67.0612 
 231   0.0000       2.478200        67.4352 
 232   0.0000       2.489365        67.7391 
 233   0.0000       2.505564        68.1798 
 234   0.0000       2.528259        68.7974 
 235   0.0000       2.546630        69.2973 
 236   0.0000       2.560210        69.6669 
 237   0.0000       2.573085        70.0172 
 238   0.0000       2.604102        70.8612 
 239   0.0000       2.616113        71.1881 
 240   0.0000       2.625048        71.4312 
 241   0.0000       2.634819        71.6971 
 242   0.0000       2.641799        71.8870 
 243   0.0000       2.646929        72.0266 
 244   0.0000       2.660119        72.3855 
 245   0.0000       2.681636        72.9710 
 246   0.0000       2.683926        73.0333 
 247   0.0000       2.700946        73.4965 
 248   0.0000       2.704201        73.5850 
 249   0.0000       2.726983        74.2050 
 250   0.0000       2.742076        74.6157 
 251   0.0000       2.749126        74.8075 
 252   0.0000       2.777425        75.5776 
 253   0.0000       2.780350        75.6572 
 254   0.0000       2.781415        75.6861 
 255   0.0000       2.809037        76.4378 
 256   0.0000       2.841151        77.3116 
 257   0.0000       2.851723        77.5993 
 258   0.0000       2.881107        78.3989 
 259   0.0000       2.904049        79.0232 
 260   0.0000       2.933682        79.8295 
 261   0.0000       2.955868        80.4333 
 262   0.0000       2.958689        80.5100 
 263   0.0000       2.992103        81.4193 
 264   0.0000       3.014851        82.0383 
 265   0.0000       3.019863        82.1747 
 266   0.0000       3.024713        82.3066 
 267   0.0000       3.046309        82.8943 
 268   0.0000       3.065098        83.4056 
 269   0.0000       3.079883        83.8079 
 270   0.0000       3.095511        84.2331 
 271   0.0000       3.099566        84.3435 
 272   0.0000       3.111712        84.6740 
 273   0.0000       3.131129        85.2024 
 274   0.0000       3.150689        85.7346 
 275   0.0000       3.169310        86.2413 
 276   0.0000       3.178935        86.5032 
 277   0.0000       3.188470        86.7627 
 278   0.0000       3.195378        86.9506 
 279   0.0000       3.239314        88.1462 
 280   0.0000       3.252926        88.5166 
 281   0.0000       3.260564        88.7245 
 282   0.0000       3.274609        89.1067 
 283   0.0000       3.304500        89.9200 
 284   0.0000       3.313989        90.1782 
 285   0.0000       3.327470        90.5451 
 286   0.0000       3.336691        90.7960 
 287   0.0000       3.356622        91.3383 
 288   0.0000       3.367072        91.6227 
 289   0.0000       3.389069        92.2213 
 290   0.0000       3.400387        92.5292 
 291   0.0000       3.420535        93.0775 
 292   0.0000       3.450329        93.8882 
 293   0.0000       3.462017        94.2063 
 294   0.0000       3.467021        94.3424 
 295   0.0000       3.476577        94.6025 
 296   0.0000       3.482031        94.7509 
 297   0.0000       3.495751        95.1242 
 298   0.0000       3.528148        96.0058 
 299   0.0000       3.552214        96.6607 
 300   0.0000       3.556611        96.7803 
 301   0.0000       3.580070        97.4187 
 302   0.0000       3.619341        98.4873 
 303   0.0000       3.632593        98.8479 
 304   0.0000       3.657209        99.5177 
 305   0.0000       3.686105       100.3040 
 306   0.0000       3.746106       101.9367 
 307   0.0000       3.763626       102.4135 
 308   0.0000       3.798035       103.3498 
 309   0.0000       3.820098       103.9501 
 310   0.0000       3.837154       104.4143 
 311   0.0000       3.859112       105.0118 
 312   0.0000       3.867335       105.2355 
 313   0.0000       3.888965       105.8241 
 314   0.0000       3.901067       106.1534 
 315   0.0000       3.913279       106.4857 
 316   0.0000       3.962439       107.8234 
 317   0.0000       3.990301       108.5816 
 318   0.0000       4.008544       109.0780 
 319   0.0000       4.085636       111.1758 
 320   0.0000       4.103673       111.6666 
 321   0.0000       4.131195       112.4155 
 322   0.0000       4.179992       113.7434 
 323   0.0000       4.215769       114.7169 
 324   0.0000       4.241661       115.4215 
 325   0.0000       4.278057       116.4118 
 326   0.0000       4.302093       117.0659 
 327   0.0000       4.327317       117.7523 
 328   0.0000       4.368831       118.8819 
 329   0.0000       4.406563       119.9087 
 330   0.0000       4.439595       120.8075 
 331   0.0000       4.449316       121.0720 
 332   0.0000       4.528199       123.2186 
 333   0.0000       4.568669       124.3198 
 334   0.0000       4.583788       124.7312 
 335   0.0000       4.595273       125.0437 
 336   0.0000       4.626792       125.9014 
 337   0.0000       4.645470       126.4097 
 338   0.0000       4.670879       127.1011 
 339   0.0000       4.724229       128.5528 
 340   0.0000       4.785998       130.2336 
 341   0.0000       4.810615       130.9035 
 342   0.0000       4.848769       131.9417 
 343   0.0000       4.925652       134.0338 
 344   0.0000       4.942270       134.4860 
 345   0.0000       5.020328       136.6101 
 346   0.0000       5.028689       136.8376 
 347   0.0000       5.119662       139.3131 
 348   0.0000       5.138193       139.8173 
 349   0.0000       5.141291       139.9016 
 350   0.0000       5.146594       140.0459 
 351   0.0000       5.161142       140.4418 
 352   0.0000       5.167784       140.6225 
 353   0.0000       5.177815       140.8955 
 354   0.0000       5.201084       141.5287 
 355   0.0000       5.211140       141.8023 
 356   0.0000       5.232243       142.3766 
 357   0.0000       5.255362       143.0057 
 358   0.0000       5.281841       143.7262 
 359   0.0000       5.293697       144.0488 
 360   0.0000       5.311102       144.5224 
 361   0.0000       5.347607       145.5158 
 362   0.0000       5.350964       145.6071 
 363   0.0000       5.382593       146.4678 
 364   0.0000       5.434421       147.8781 
 365   0.0000       5.450483       148.3152 
 366   0.0000       5.497060       149.5826 
 367   0.0000       5.534253       150.5947 
 368   0.0000       5.548662       150.9868 
 369   0.0000       5.617816       152.8685 
 370   0.0000       5.640409       153.4833 
 371   0.0000       5.669838       154.2841 
 372   0.0000       5.701973       155.1586 
 373   0.0000       5.817578       158.3043 
 374   0.0000       5.962009       162.2345 
 375   0.0000       6.067603       165.1079 
 376   0.0000       6.228138       169.4763 
 377   0.0000       6.318047       171.9228 
 378   0.0000       6.349028       172.7658 
 379   0.0000       6.465508       175.9354 
 380   0.0000       6.543770       178.0650 
 381   0.0000       6.620529       180.1538 
 382   0.0000       6.696276       182.2149 
 383   0.0000       6.759031       183.9226 
 384   0.0000       6.768886       184.1908 
 385   0.0000       6.833554       185.9504 
 386   0.0000       6.838270       186.0788 
 387   0.0000       6.852861       186.4758 
 388   0.0000       6.864716       186.7984 
 389   0.0000       6.892970       187.5672 
 390   0.0000       6.935102       188.7137 
 391   0.0000       6.964392       189.5107 
 392   0.0000       7.035495       191.4456 
 393   0.0000       7.104132       193.3133 
 394   0.0000       8.272046       225.0938 
 395   0.0000       8.274030       225.1478 
 396   0.0000       8.633389       234.9265 
 397   0.0000       8.669994       235.9225 
 398   0.0000       8.727943       237.4994 
 399   0.0000       9.396593       255.6943 
 400   0.0000       9.619260       261.7534 
 401   0.0000       9.782711       266.2011 
 402   0.0000      22.224131       604.7494 
 403   0.0000      22.532952       613.1528 
 404   0.0000      22.635581       615.9455 
 405   0.0000      22.660567       616.6254 
 406   0.0000      22.884180       622.7102 
 407   0.0000      23.532307       640.3466 
 408   0.0000      32.143760       874.6762 
 409   0.0000      32.740183       890.9057 
 410   0.0000      43.710834      1189.4322 
 411   0.0000      43.940723      1195.6879 
 412   0.0000      57.180608      1555.9634 

                    ********************************
                    * MULLIKEN POPULATION ANALYSIS *
                    ********************************

-----------------------
MULLIKEN ATOMIC CHARGES
-----------------------
   0 C :   -0.160592
   1 N :   -0.347249
   2 C :   -0.211582
   3 C :   -0.297109
   4 H :    0.198051
   5 H :    0.152412
   6 S :    0.824316
   7 C :    0.379502
   8 N :   -0.522342
   9 C :   -0.580542
  10 H :    0.175622
  11 H :    0.083455
  12 H :    0.191820
  13 H :    0.217108
  14 H :    0.247958
  15 O :   -0.386552
  16 F :   -0.087791
  17 O :   -0.413026
  18 H :    0.112117
  19 H :    0.115213
  20 H :    0.187571
  21 H :    0.121639
Sum of atomic charges:    0.0000000

--------------------------------
MULLIKEN REDUCED ORBITAL CHARGES
--------------------------------
  0 C s       :     3.213823  s :     3.213823
      pz      :     1.017762  p :     2.820623
      px      :     0.859151
      py      :     0.943709
      dz2     :     0.023006  d :     0.118162
      dxz     :     0.032431
      dyz     :     0.012043
      dx2y2   :     0.030578
      dxy     :     0.020105
      f0      :     0.001214  f :     0.007984
      f+1     :     0.001335
      f-1     :     0.000576
      f+2     :     0.000396
      f-2     :     0.001468
      f+3     :     0.001933
      f-3     :     0.001064
  1 N s       :     3.429155  s :     3.429155
      pz      :     1.302157  p :     3.849378
      px      :     1.251901
      py      :     1.295320
      dz2     :     0.010971  d :     0.064504
      dxz     :     0.014636
      dyz     :     0.009273
      dx2y2   :     0.015985
      dxy     :     0.013638
      f0      :     0.000448  f :     0.004213
      f+1     :     0.000381
      f-1     :     0.000728
      f+2     :     0.000678
      f-2     :     0.000740
      f+3     :     0.000674
      f-3     :     0.000563
  2 C s       :     3.158877  s :     3.158877
      pz      :     1.003307  p :     2.948416
      px      :     1.010519
      py      :     0.934590
      dz2     :     0.024213  d :     0.098670
      dxz     :     0.015585
      dyz     :     0.017672
      dx2y2   :     0.012887
      dxy     :     0.028312
      f0      :     0.000963  f :     0.005619
      f+1     :     0.001188
      f-1     :     0.000380
      f+2     :     0.000534
      f-2     :     0.000765
      f+3     :     0.000684
      f-3     :     0.001105
  3 C s       :     3.203166  s :     3.203166
      pz      :     0.989053  p :     2.997346
      px      :     0.979137
      py      :     1.029157
      dz2     :     0.013278  d :     0.091854
      dxz     :     0.022275
      dyz     :     0.015194
      dx2y2   :     0.018296
      dxy     :     0.022811
      f0      :     0.000703  f :     0.004743
      f+1     :     0.000896
      f-1     :     0.000116
      f+2     :     0.000705
      f-2     :     0.000554
      f+3     :     0.000767
      f-3     :     0.001002
  4 H s       :     0.779025  s :     0.779025
      pz      :     0.004294  p :     0.022924
      px      :     0.009029
      py      :     0.009600
  5 H s       :     0.825291  s :     0.825291
      pz      :     0.011560  p :     0.022297
      px      :     0.005766
      py      :     0.004971
  6 S s       :     5.384135  s :     5.384135
      pz      :     2.921476  p :     8.546266
      px      :     2.858914
      py      :     2.765876
      dz2     :     0.209788  d :     1.120697
      dxz     :     0.225141
      dyz     :     0.242271
      dx2y2   :     0.202292
      dxy     :     0.241206
      f0      :     0.020044  f :     0.124586
      f+1     :     0.010069
      f-1     :     0.016348
      f+2     :     0.016816
      f-2     :     0.019319
      f+3     :     0.020333
      f-3     :     0.021657
  7 C s       :     2.987756  s :     2.987756
      pz      :     0.827576  p :     2.411396
      px      :     0.796155
      py      :     0.787665
      dz2     :     0.044445  d :     0.203504
      dxz     :     0.047711
      dyz     :     0.024537
      dx2y2   :     0.043785
      dxy     :     0.043027
      f0      :     0.002079  f :     0.017842
      f+1     :     0.001881
      f-1     :     0.002696
      f+2     :     0.002291
      f-2     :     0.003277
      f+3     :     0.003500
      f-3     :     0.002118
  8 N s       :     3.431753  s :     3.431753
      pz      :     1.669025  p :     4.049969
      px      :     1.133319
      py      :     1.247625
      dz2     :     0.003310  d :     0.036975
      dxz     :     0.007676
      dyz     :     0.005231
      dx2y2   :     0.011407
      dxy     :     0.009352
      f0      :     0.000708  f :     0.003645
      f+1     :     0.000409
      f-1     :     0.000349
      f+2     :     0.000546
      f-2     :     0.000559
      f+3     :     0.000492
      f-3     :     0.000582
  9 C s       :     3.266219  s :     3.266219
      pz      :     1.084048  p :     3.271700
      px      :     1.018103
      py      :     1.169549
      dz2     :     0.008996  d :     0.037343
      dxz     :     0.007127
      dyz     :     0.007164
      dx2y2   :     0.007247
      dxy     :     0.006809
      f0      :     0.000523  f :     0.005281
      f+1     :     0.000920
      f-1     :     0.000751
      f+2     :     0.001070
      f-2     :     0.000736
      f+3     :     0.000713
      f-3     :     0.000569
 10 H s       :     0.782022  s :     0.782022
      pz      :     0.007546  p :     0.042356
      px      :     0.025996
      py      :     0.008815
 11 H s       :     0.890586  s :     0.890586
      pz      :     0.010182  p :     0.025959
      px      :     0.004924
      py      :     0.010853
 12 H s       :     0.769401  s :     0.769401
      pz      :     0.015007  p :     0.038779
      px      :     0.015047
      py      :     0.008724
 13 H s       :     0.744676  s :     0.744676
      pz      :     0.013958  p :     0.038215
      px      :     0.015259
      py      :     0.008998
 14 H s       :     0.713763  s :     0.713763
      pz      :     0.014845  p :     0.038280
      px      :     0.005599
      py      :     0.017835
 15 O s       :     3.835205  s :     3.835205
      pz      :     1.646452  p :     4.513114
      px      :     1.615465
      py      :     1.251198
      dz2     :     0.003671  d :     0.036156
      dxz     :     0.000879
      dyz     :     0.010278
      dx2y2   :     0.010712
      dxy     :     0.010617
      f0      :     0.000241  f :     0.002077
      f+1     :     0.000056
      f-1     :     0.000310
      f+2     :     0.000323
      f-2     :     0.000116
      f+3     :     0.000511
      f-3     :     0.000521
 16 F s       :     3.892617  s :     3.892617
      pz      :     1.828865  p :     5.172597
      px      :     1.671183
      py      :     1.672549
      dz2     :     0.002635  d :     0.021646
      dxz     :     0.003435
      dyz     :     0.002946
      dx2y2   :     0.005589
      dxy     :     0.007042
      f0      :     0.000093  f :     0.000931
      f+1     :     0.000092
      f-1     :     0.000086
      f+2     :     0.000034
      f-2     :     0.000170
      f+3     :     0.000228
      f-3     :     0.000228
 17 O s       :     3.840869  s :     3.840869
      pz      :     1.358390  p :     4.535283
      px      :     1.504086
      py      :     1.672807
      dz2     :     0.011349  d :     0.034973
      dxz     :     0.009965
      dyz     :     0.007545
      dx2y2   :     0.003503
      dxy     :     0.002611
      f0      :     0.000451  f :     0.001901
      f+1     :     0.000515
      f-1     :     0.000295
      f+2     :     0.000275
      f-2     :     0.000248
      f+3     :     0.000057
      f-3     :     0.000060
 18 H s       :     0.866235  s :     0.866235
      pz      :     0.004506  p :     0.021648
      px      :     0.008633
      py      :     0.008508
 19 H s       :     0.863354  s :     0.863354
      pz      :     0.010405  p :     0.021433
      px      :     0.006559
      py      :     0.004468
 20 H s       :     0.788704  s :     0.788704
      pz      :     0.012106  p :     0.023725
      px      :     0.007189
      py      :     0.004431
 21 H s       :     0.857244  s :     0.857244
      pz      :     0.004422  p :     0.021117
      px      :     0.004898
      py      :     0.011797


                     *******************************
                     * LOEWDIN POPULATION ANALYSIS *
                     *******************************

----------------------
LOEWDIN ATOMIC CHARGES
----------------------
   0 C :   -0.275710
   1 N :    0.110968
   2 C :   -0.297510
   3 C :   -0.367156
   4 H :    0.161662
   5 H :    0.140340
   6 S :    0.529791
   7 C :   -0.489026
   8 N :   -0.031916
   9 C :   -0.322403
  10 H :    0.082687
  11 H :    0.098060
  12 H :    0.174418
  13 H :    0.154153
  14 H :    0.173428
  15 O :   -0.248540
  16 F :    0.102503
  17 O :   -0.264611
  18 H :    0.141431
  19 H :    0.143569
  20 H :    0.150534
  21 H :    0.133330

-------------------------------
LOEWDIN REDUCED ORBITAL CHARGES
-------------------------------
  0 C s       :     2.782527  s :     2.782527
      pz      :     1.052894  p :     2.980031
      px      :     0.953716
      py      :     0.973420
      dz2     :     0.095759  d :     0.460413
      dxz     :     0.121721
      dyz     :     0.038320
      dx2y2   :     0.112078
      dxy     :     0.092535
      f0      :     0.007317  f :     0.052739
      f+1     :     0.006574
      f-1     :     0.006139
      f+2     :     0.004355
      f-2     :     0.009007
      f+3     :     0.012152
      f-3     :     0.007195
  1 N s       :     2.909731  s :     2.909731
      pz      :     1.268499  p :     3.732234
      px      :     1.182823
      py      :     1.280912
      dz2     :     0.038310  d :     0.231427
      dxz     :     0.053548
      dyz     :     0.035370
      dx2y2   :     0.052828
      dxy     :     0.051371
      f0      :     0.001788  f :     0.015641
      f+1     :     0.001057
      f-1     :     0.002750
      f+2     :     0.002250
      f-2     :     0.002859
      f+3     :     0.003073
      f-3     :     0.001863
  2 C s       :     2.785365  s :     2.785365
      pz      :     1.033777  p :     3.070168
      px      :     1.024975
      py      :     1.011416
      dz2     :     0.095244  d :     0.403530
      dxz     :     0.078749
      dyz     :     0.062354
      dx2y2   :     0.056706
      dxy     :     0.110477
      f0      :     0.005796  f :     0.038447
      f+1     :     0.005526
      f-1     :     0.005064
      f+2     :     0.005754
      f-2     :     0.004908
      f+3     :     0.004241
      f-3     :     0.007157
  3 C s       :     2.844319  s :     2.844319
      pz      :     1.026684  p :     3.131804
      px      :     1.027310
      py      :     1.077810
      dz2     :     0.058523  d :     0.359696
      dxz     :     0.089687
      dyz     :     0.052088
      dx2y2   :     0.068656
      dxy     :     0.090742
      f0      :     0.003548  f :     0.031336
      f+1     :     0.004383
      f-1     :     0.002974
      f+2     :     0.006550
      f-2     :     0.003431
      f+3     :     0.004086
      f-3     :     0.006365
  4 H s       :     0.772065  s :     0.772065
      pz      :     0.013092  p :     0.066273
      px      :     0.026540
      py      :     0.026642
  5 H s       :     0.795018  s :     0.795018
      pz      :     0.033050  p :     0.064642
      px      :     0.017329
      py      :     0.014263
  6 S s       :     4.755514  s :     4.755514
      pz      :     2.895610  p :     8.555687
      px      :     2.832181
      py      :     2.827897
      dz2     :     0.340906  d :     1.777081
      dxz     :     0.372824
      dyz     :     0.340221
      dx2y2   :     0.329390
      dxy     :     0.393740
      f0      :     0.056012  f :     0.381926
      f+1     :     0.038615
      f-1     :     0.050692
      f+2     :     0.049778
      f-2     :     0.056418
      f+3     :     0.061988
      f-3     :     0.068422
  7 C s       :     2.695028  s :     2.695028
      pz      :     0.924546  p :     2.808156
      px      :     0.982309
      py      :     0.901300
      dz2     :     0.172428  d :     0.868942
      dxz     :     0.173955
      dyz     :     0.129769
      dx2y2   :     0.195716
      dxy     :     0.197074
      f0      :     0.014599  f :     0.116900
      f+1     :     0.012554
      f-1     :     0.015366
      f+2     :     0.014275
      f-2     :     0.018828
      f+3     :     0.025671
      f-3     :     0.015607
  8 N s       :     2.970152  s :     2.970152
      pz      :     1.497137  p :     3.902383
      px      :     1.167105
      py      :     1.238140
      dz2     :     0.008159  d :     0.148661
      dxz     :     0.030973
      dyz     :     0.015566
      dx2y2   :     0.052095
      dxy     :     0.041868
      f0      :     0.001848  f :     0.010720
      f+1     :     0.001155
      f-1     :     0.000375
      f+2     :     0.001421
      f-2     :     0.001815
      f+3     :     0.002547
      f-3     :     0.001559
  9 C s       :     2.799222  s :     2.799222
      pz      :     1.104324  p :     3.269078
      px      :     1.071549
      py      :     1.093205
      dz2     :     0.037950  d :     0.223552
      dxz     :     0.043467
      dyz     :     0.042531
      dx2y2   :     0.064599
      dxy     :     0.035004
      f0      :     0.003147  f :     0.030551
      f+1     :     0.006107
      f-1     :     0.002295
      f+2     :     0.005361
      f-2     :     0.005768
      f+3     :     0.004627
      f-3     :     0.003246
 10 H s       :     0.785658  s :     0.785658
      pz      :     0.023604  p :     0.131654
      px      :     0.081002
      py      :     0.027049
 11 H s       :     0.822788  s :     0.822788
      pz      :     0.028508  p :     0.079153
      px      :     0.018710
      py      :     0.031935
 12 H s       :     0.717676  s :     0.717676
      pz      :     0.043665  p :     0.107906
      px      :     0.040295
      py      :     0.023946
 13 H s       :     0.734185  s :     0.734185
      pz      :     0.039393  p :     0.111662
      px      :     0.042935
      py      :     0.029333
 14 H s       :     0.715874  s :     0.715874
      pz      :     0.042434  p :     0.110698
      px      :     0.015769
      py      :     0.052495
 15 O s       :     3.565634  s :     3.565634
      pz      :     1.594505  p :     4.608727
      px      :     1.569482
      py      :     1.444740
      dz2     :     0.010172  d :     0.069506
      dxz     :     0.001624
      dyz     :     0.014210
      dx2y2   :     0.026932
      dxy     :     0.016568
      f0      :     0.000420  f :     0.004673
      f+1     :     0.000109
      f-1     :     0.000899
      f+2     :     0.000557
      f-2     :     0.000263
      f+3     :     0.001118
      f-3     :     0.001305
 16 F s       :     3.655485  s :     3.655485
      pz      :     1.783860  p :     5.199383
      px      :     1.706568
      py      :     1.708956
      dz2     :     0.005711  d :     0.040836
      dxz     :     0.005764
      dyz     :     0.004614
      dx2y2   :     0.007969
      dxy     :     0.016778
      f0      :     0.000166  f :     0.001794
      f+1     :     0.000187
      f-1     :     0.000169
      f+2     :     0.000064
      f-2     :     0.000308
      f+3     :     0.000432
      f-3     :     0.000467
 17 O s       :     3.568667  s :     3.568667
      pz      :     1.487809  p :     4.618921
      px      :     1.505616
      py      :     1.625495
      dz2     :     0.024364  d :     0.072574
      dxz     :     0.024178
      dyz     :     0.010487
      dx2y2   :     0.008499
      dxy     :     0.005045
      f0      :     0.000949  f :     0.004450
      f+1     :     0.001666
      f-1     :     0.000562
      f+2     :     0.000511
      f-2     :     0.000484
      f+3     :     0.000105
      f-3     :     0.000173
 18 H s       :     0.798310  s :     0.798310
      pz      :     0.013471  p :     0.060259
      px      :     0.024339
      py      :     0.022449
 19 H s       :     0.796777  s :     0.796777
      pz      :     0.027575  p :     0.059654
      px      :     0.019229
      py      :     0.012851
 20 H s       :     0.782720  s :     0.782720
      pz      :     0.033562  p :     0.066746
      px      :     0.020205
      py      :     0.012979
 21 H s       :     0.806932  s :     0.806932
      pz      :     0.013794  p :     0.059738
      px      :     0.014339
      py      :     0.031605


                      *****************************
                      * MAYER POPULATION ANALYSIS *
                      *****************************

  NA   - Mulliken gross atomic population
  ZA   - Total nuclear charge
  QA   - Mulliken gross atomic charge
  VA   - Mayer's total valence
  BVA  - Mayer's bonded valence
  FA   - Mayer's free valence

  ATOM       NA         ZA         QA         VA         BVA        FA
  0 C      6.1606     6.0000    -0.1606     3.9158     3.9158     0.0000
  1 N      7.3472     7.0000    -0.3472     3.0978     3.0978    -0.0000
  2 C      6.2116     6.0000    -0.2116     3.9037     3.9037     0.0000
  3 C      6.2971     6.0000    -0.2971     3.9089     3.9089     0.0000
  4 H      0.8019     1.0000     0.1981     0.9640     0.9640     0.0000
  5 H      0.8476     1.0000     0.1524     0.9686     0.9686     0.0000
  6 S     15.1757    16.0000     0.8243     5.9256     5.9256     0.0000
  7 C      5.6205     6.0000     0.3795     3.8894     3.8894     0.0000
  8 N      7.5223     7.0000    -0.5223     3.0431     3.0431    -0.0000
  9 C      6.5805     6.0000    -0.5805     3.7776     3.7776    -0.0000
 10 H      0.8244     1.0000     0.1756     1.0369     1.0369    -0.0000
 11 H      0.9165     1.0000     0.0835     1.0094     1.0094     0.0000
 12 H      0.8082     1.0000     0.1918     0.9739     0.9739    -0.0000
 13 H      0.7829     1.0000     0.2171     0.9641     0.9641     0.0000
 14 H      0.7520     1.0000     0.2480     0.9516     0.9516    -0.0000
 15 O      8.3866     8.0000    -0.3866     2.0881     2.0881    -0.0000
 16 F      9.0878     9.0000    -0.0878     1.2275     1.2275     0.0000
 17 O      8.4130     8.0000    -0.4130     1.9576     1.9576    -0.0000
 18 H      0.8879     1.0000     0.1121     0.9848     0.9848     0.0000
 19 H      0.8848     1.0000     0.1152     0.9751     0.9751     0.0000
 20 H      0.8124     1.0000     0.1876     0.9838     0.9838     0.0000
 21 H      0.8784     1.0000     0.1216     0.9719     0.9719    -0.0000

  Mayer bond orders larger than 0.100000
B(  0-C ,  1-N ) :   0.9061 B(  0-C ,  2-C ) :   0.9950 B(  0-C , 20-H ) :   0.9548 
B(  0-C , 21-H ) :   0.9648 B(  1-N ,  7-C ) :   1.1429 B(  1-N , 12-H ) :   0.9210 
B(  2-C ,  3-C ) :   0.9903 B(  2-C , 18-H ) :   0.9549 B(  2-C , 19-H ) :   0.9449 
B(  3-C ,  4-H ) :   0.9288 B(  3-C ,  5-H ) :   0.9393 B(  3-C ,  6-S ) :   0.9277 
B(  6-S , 15-O ) :   1.9698 B(  6-S , 16-F ) :   1.1430 B(  6-S , 17-O ) :   1.8036 
B(  7-C ,  8-N ) :   1.0894 B(  7-C ,  9-C ) :   1.6443 B(  8-N , 13-H ) :   0.9196 
B(  8-N , 14-H ) :   0.9161 B(  9-C , 10-H ) :   0.9733 B(  9-C , 11-H ) :   1.0003 


-------
TIMINGS
-------

Total SCF time: 0 days 0 hours 0 min 31 sec 

Total time                  ....      31.877 sec
Sum of individual times     ....      31.133 sec  ( 97.7%)

Fock matrix formation       ....      27.971 sec  ( 87.7%)
  Split-RI-J                ....       3.235 sec  ( 11.6% of F)
  Chain of spheres X        ....      21.141 sec  ( 75.6% of F)
  XC integration            ....       3.367 sec  ( 12.0% of F)
    Basis function eval.    ....       0.909 sec  ( 27.0% of XC)
    Density eval.           ....       0.917 sec  ( 27.2% of XC)
    XC-Functional eval.     ....       0.094 sec  (  2.8% of XC)
    XC-Potential eval.      ....       0.918 sec  ( 27.3% of XC)
Diagonalization             ....       0.438 sec  (  1.4%)
Density matrix formation    ....       0.038 sec  (  0.1%)
Population analysis         ....       0.051 sec  (  0.2%)
Initial guess               ....       0.314 sec  (  1.0%)
Orbital Transformation      ....       0.000 sec  (  0.0%)
Orbital Orthonormalization  ....       0.000 sec  (  0.0%)
DIIS solution               ....       0.238 sec  (  0.7%)
SOSCF solution              ....       0.379 sec  (  1.2%)
Grid generation             ....       1.703 sec  (  5.3%)

Maximum memory used throughout the entire SCF-calculation: 91.2 MB


-------------------------------------------------------------------------------
                          DFT DISPERSION CORRECTION                            
                                                                               
                              DFTD3 V3.1  Rev 1                                
                          USING Becke-Johnson damping                          
-------------------------------------------------------------------------------
The PBE0 functional is recognized
Active option DFTDOPT                   ...         4   

molecular C6(AA) [au] = 4998.992108 


            DFT-D V3
 parameters
 s6 scaling factor         :     1.0000 
 a1 scaling factor         :     0.4145 
 s8 scaling factor         :     1.2177 
 a2 scaling factor         :     4.8593 
 ad hoc parameters k1-k3   :    16.0000     1.3333    -4.0000 

 Edisp/kcal,au: -13.840145876792  -0.022055674014 
 E6   /kcal   :  -8.751520818 
 E8   /kcal   :  -5.088625059 
 % E8         :  36.767134571 

-------------------------   ----------------
Dispersion correction           -0.022055674
-------------------------   ----------------


-------------------------   --------------------
FINAL SINGLE POINT ENERGY      -954.557704190060
-------------------------   --------------------


                            ***************************************
                            *     ORCA property calculations      *
                            ***************************************

                                    ---------------------
                                    Active property flags
                                    ---------------------
   (+) Dipole Moment


------------------------------------------------------------------------------
                       ORCA ELECTRIC PROPERTIES CALCULATION
------------------------------------------------------------------------------

Dipole Moment Calculation                       ... on
Quadrupole Moment Calculation                   ... off
Polarizability Calculation                      ... off
GBWName                                         ... PBE0_D6_wb97.gbw
Electron density file                           ... PBE0_D6_wb97.scfp
The origin for moment calculation is the CENTER OF MASS  = ( 4.287220,  0.827062 -6.549333)

-------------
DIPOLE MOMENT
-------------
                                X             Y             Z
Electronic contribution:    -15.78868      -1.45172       0.24208
Nuclear contribution   :     16.57580       2.60270       1.54331
                        -----------------------------------------
Total Dipole Moment    :      0.78712       1.15098       1.78539
                        -----------------------------------------
Magnitude (a.u.)       :      2.26537
Magnitude (Debye)      :      5.75812



--------------------
Rotational spectrum 
--------------------
 
Rotational constants in cm-1:     0.060402     0.020377     0.017632 
Rotational constants in MHz :  1810.792194   610.900365   528.582827 

 Dipole components along the rotational axes: 
x,y,z [a.u.] :    -0.430719    -2.009651    -0.952735 
x,y,z [Debye]:    -1.094800    -5.108127    -2.421661 

 

Timings for individual modules:

Sum of individual times         ...       33.284 sec (=   0.555 min)
GTO integral calculation        ...        0.963 sec (=   0.016 min)   2.9 %
SCF iterations                  ...       32.321 sec (=   0.539 min)  97.1 %
                             ****ORCA TERMINATED NORMALLY****
TOTAL RUN TIME: 0 days 0 hours 0 minutes 33 seconds 975 msec
