
                                        *****************
                                        * O   R   C   A *
                                        *****************

                                            #,                                       
                                            ###                                      
                                            ####                                     
                                            #####                                    
                                            ######                                   
                                           ########,                                 
                                     ,,################,,,,,                         
                               ,,#################################,,                 
                          ,,##########################################,,             
                       ,#########################################, ''#####,          
                    ,#############################################,,   '####,        
                  ,##################################################,,,,####,       
                ,###########''''           ''''###############################       
              ,#####''   ,,,,##########,,,,          '''####'''          '####       
            ,##' ,,,,###########################,,,                        '##       
           ' ,,###''''                  '''############,,,                           
         ,,##''                                '''############,,,,        ,,,,,,###''
      ,#''                                            '''#######################'''  
     '                                                          ''''####''''         
             ,#######,   #######,   ,#######,      ##                                
            ,#'     '#,  ##    ##  ,#'     '#,    #''#        ######   ,####,        
            ##       ##  ##   ,#'  ##            #'  '#       #        #'  '#        
            ##       ##  #######   ##           ,######,      #####,   #    #        
            '#,     ,#'  ##    ##  '#,     ,#' ,#      #,         ##   #,  ,#        
             '#######'   ##     ##  '#######'  #'      '#     #####' # '####'        



                  #######################################################
                  #                        -***-                        #
                  #          Department of theory and spectroscopy      #
                  #    Directorship and core code : Frank Neese         #
                  #        Max Planck Institute fuer Kohlenforschung    #
                  #                Kaiser Wilhelm Platz 1               #
                  #                 D-45470 Muelheim/Ruhr               #
                  #                      Germany                        #
                  #                                                     #
                  #                  All rights reserved                #
                  #                        -***-                        #
                  #######################################################


                         Program Version 5.0.0 -  RELEASE  -
                                (SVN: $Rev: 19529$)
                ($Date: 2021-06-28 11:36:33 +0200 (Mo, 28 Jun 2021) $)


 With contributions from (in alphabetic order):
   Daniel Aravena         : Magnetic Suceptibility
   Michael Atanasov       : Ab Initio Ligand Field Theory (pilot matlab implementation)
   Alexander A. Auer      : GIAO ZORA, VPT2 properties, NMR spectrum
   Ute Becker             : Parallelization
   Giovanni Bistoni       : ED, misc. LED, open-shell LED, HFLD
   Martin Brehm           : Molecular dynamics
   Dmytro Bykov           : SCF Hessian
   Vijay G. Chilkuri      : MRCI spin determinant printing, contributions to CSF-ICE
   Dipayan Datta          : RHF DLPNO-CCSD density
   Achintya Kumar Dutta   : EOM-CC, STEOM-CC
   Dmitry Ganyushin       : Spin-Orbit,Spin-Spin,Magnetic field MRCI
   Miquel Garcia          : C-PCM Hessian, Gaussian charge scheme
   Yang Guo               : DLPNO-NEVPT2, F12-NEVPT2, CIM, IAO-localization
   Andreas Hansen         : Spin unrestricted coupled pair/coupled cluster methods
   Benjamin Helmich-Paris : MC-RPA, TRAH-SCF, COSX integrals
   Lee Huntington         : MR-EOM, pCC
   Robert Izsak           : Overlap fitted RIJCOSX, COSX-SCS-MP3, EOM
   Marcus Kettner         : VPT2
   Christian Kollmar      : KDIIS, OOCD, Brueckner-CCSD(T), CCSD density, CASPT2, CASPT2-K
   Simone Kossmann        : Meta GGA functionals, TD-DFT gradient, OOMP2, MP2 Hessian
   Martin Krupicka        : Initial AUTO-CI
   Lucas Lang             : DCDCAS
   Marvin Lechner         : AUTO-CI (C++ implementation), FIC-MRCC
   Dagmar Lenk            : GEPOL surface, SMD
   Dimitrios Liakos       : Extrapolation schemes; Compound Job, initial MDCI parallelization
   Dimitrios Manganas     : Further ROCIS development; embedding schemes
   Dimitrios Pantazis     : SARC Basis sets
   Anastasios Papadopoulos: AUTO-CI, single reference methods and gradients
   Taras Petrenko         : DFT Hessian,TD-DFT gradient, ASA, ECA, R-Raman, ABS, FL, XAS/XES, NRVS
   Peter Pinski           : DLPNO-MP2, DLPNO-MP2 Gradient
   Christoph Reimann      : Effective Core Potentials
   Marius Retegan         : Local ZFS, SOC
   Christoph Riplinger    : Optimizer, TS searches, QM/MM, DLPNO-CCSD(T), (RO)-DLPNO pert. Triples
   Tobias Risthaus        : Range-separated hybrids, TD-DFT gradient, RPA, STAB
   Michael Roemelt        : Original ROCIS implementation
   Masaaki Saitow         : Open-shell DLPNO-CCSD energy and density
   Barbara Sandhoefer     : DKH picture change effects
   Avijit Sen             : IP-ROCIS
   Kantharuban Sivalingam : CASSCF convergence, NEVPT2, FIC-MRCI
   Bernardo de Souza      : ESD, SOC TD-DFT
   Georgi Stoychev        : AutoAux, RI-MP2 NMR
   Willem Van den Heuvel  : Paramagnetic NMR
   Boris Wezisla          : Elementary symmetry handling
   Frank Wennmohs         : Technical directorship


 We gratefully acknowledge several colleagues who have allowed us to
 interface, adapt or use parts of their codes:
   Stefan Grimme, W. Hujo, H. Kruse, P. Pracht,  : VdW corrections, initial TS optimization,
                  C. Bannwarth, S. Ehlert          DFT functionals, gCP, sTDA/sTD-DF
   Ed Valeev, F. Pavosevic, A. Kumar             : LibInt (2-el integral package), F12 methods
   Garnet Chan, S. Sharma, J. Yang, R. Olivares  : DMRG
   Ulf Ekstrom                                   : XCFun DFT Library
   Mihaly Kallay                                 : mrcc  (arbitrary order and MRCC methods)
   Jiri Pittner, Ondrej Demel                    : Mk-CCSD
   Frank Weinhold                                : gennbo (NPA and NBO analysis)
   Christopher J. Cramer and Donald G. Truhlar   : smd solvation model
   Lars Goerigk                                  : TD-DFT with DH, B97 family of functionals
   V. Asgeirsson, H. Jonsson                     : NEB implementation
   FAccTs GmbH                                   : IRC, NEB, NEB-TS, DLPNO-Multilevel, CI-OPT
                                                   MM, QMMM, 2- and 3-layer-ONIOM, Crystal-QMMM,
                                                   LR-CPCM, SF, NACMEs, symmetry and pop. for TD-DFT,
                                                   nearIR, NL-DFT gradient (VV10), updates on ESD,
                                                   ML-optimized integration grids
   S Lehtola, MJT Oliveira, MAL Marques          : LibXC Library
   Liviu Ungur et al                             : ANISO software


 Your calculation uses the libint2 library for the computation of 2-el integrals
 For citations please refer to: http://libint.valeyev.net

 Your ORCA version has been built with support for libXC version: 5.1.0
 For citations please refer to: https://tddft.org/programs/libxc/

 This ORCA versions uses:
   CBLAS   interface :  Fast vector & matrix operations
   LAPACKE interface :  Fast linear algebra routines
   SCALAPACK package :  Parallel linear algebra routines
   Shared memory     :  Shared parallel matrices
   BLAS/LAPACK       :  OpenBLAS 0.3.15  USE64BITINT DYNAMIC_ARCH NO_AFFINITY Haswell SINGLE_THREADED
        Core in use  :  Haswell
   Copyright (c) 2011-2014, The OpenBLAS Project




***************************************
The coordinates will be read from file: D9.xyz
***************************************


Your calculation utilizes the atom-pairwise dispersion correction
with the Becke-Johnson damping scheme (D3BJ)
Cite in your paper:
S.Grimme, S.Ehrlich, L.Goerigk, J Comput Chem, (2011), 32, 1456–1465 
S.Grimme, J.Antony, S.Ehrlich and H.Krieg, J.Chem.Phys., 132, (2010), 154104 
   

================================================================================

----- Orbital basis set information -----
Your calculation utilizes the basis: def2-TZVPD
   F. Weigend and R. Ahlrichs, Phys. Chem. Chem. Phys. 7, 3297 (2005).
   D. Rappoport and F. Furche, J. Chem. Phys. 133 134105 (2010).

----- AuxJ basis set information -----
Your calculation utilizes the auxiliary basis: def2/J
   F. Weigend, Phys. Chem. Chem. Phys. 8, 1057 (2006).

================================================================================
                                        WARNINGS
                       Please study these warnings very carefully!
================================================================================


INFO   : the flag for use of the SHARK integral package has been found!

================================================================================
                                       INPUT FILE
================================================================================
NAME = 28Oct_TZVPD_B3LYP_D9_wb97.com
|  1> !B3LYP D3BJ RIJCOSX def2-TZVPD def2/J TightSCF xyzfile                                                                                         
|  2> 
|  3> *xyzfile 0 1 D9.xyz
|  4> 
|  5> %MaxCore 64000
|  6> 
|  7> %pal nprocs 4                                                                                                                                                  
|  8> end  
|  9> 
| 10> %scf
| 11>   MaxIter 150
| 12> end
| 13> 
| 14> 
| 15>                          ****END OF INPUT****
================================================================================

                       ****************************
                       * Single Point Calculation *
                       ****************************

---------------------------------
CARTESIAN COORDINATES (ANGSTROEM)
---------------------------------
  C      3.380928    2.083045   -3.350127
  N      4.535924    1.182447   -3.428518
  C      2.495557    1.816150   -2.136364
  C      1.872181    0.427903   -2.077497
  H      2.614270   -0.365825   -2.198894
  H      1.389953    0.273087   -1.112360
  S      0.579024    0.140472   -3.297943
  C      4.671956    0.122273   -4.220598
  N      5.866023   -0.507849   -4.224284
  C      3.698881   -0.312844   -4.986988
  H      2.731405   -0.050091   -4.849000
  H      3.890046   -1.055172   -5.643730
  H      5.251933    1.303459   -2.721014
  H      6.695165   -0.062322   -3.851596
  H      5.975383   -1.396884   -4.691414
  O      0.228860   -1.246868   -3.127871
  O     -0.439269    1.118966   -3.014550
  F      1.247881    0.403474   -4.595647
  H      1.697003    2.561969   -2.141109
  H      3.080787    1.987436   -1.225838
  H      2.806463    1.986511   -4.268484
  H      3.778714    3.098282   -3.307383

----------------------------
CARTESIAN COORDINATES (A.U.)
----------------------------
  NO LB      ZA    FRAG     MASS         X           Y           Z
   0 C     6.0000    0    12.011    6.389028    3.936384   -6.330822
   1 N     7.0000    0    14.007    8.571653    2.234501   -6.478960
   2 C     6.0000    0    12.011    4.715920    3.432025   -4.037143
   3 C     6.0000    0    12.011    3.537909    0.808619   -3.925901
   4 H     1.0000    0     1.008    4.940255   -0.691309   -4.155307
   5 H     1.0000    0     1.008    2.626630    0.516060   -2.102056
   6 S    16.0000    0    32.060    1.094197    0.265454   -6.232209
   7 C     6.0000    0    12.011    8.828718    0.231062   -7.975775
   8 N     7.0000    0    14.007   11.085178   -0.959696   -7.982739
   9 C     6.0000    0    12.011    6.989872   -0.591189   -9.424042
  10 H     1.0000    0     1.008    5.161608   -0.094658   -9.163282
  11 H     1.0000    0     1.008    7.351122   -1.993986  -10.665104
  12 H     1.0000    0     1.008    9.924714    2.463181   -5.141971
  13 H     1.0000    0     1.008   12.652028   -0.117771   -7.278462
  14 H     1.0000    0     1.008   11.291838   -2.639728   -8.865488
  15 O     8.0000    0    15.999    0.432483   -2.356238   -5.910819
  16 O     8.0000    0    15.999   -0.830098    2.114540   -5.696673
  17 F     9.0000    0    18.998    2.358154    0.762455   -8.684514
  18 H     1.0000    0     1.008    3.206871    4.841420   -4.046109
  19 H     1.0000    0     1.008    5.821845    3.755709   -2.316498
  20 H     1.0000    0     1.008    5.303447    3.753961   -8.066266
  21 H     1.0000    0     1.008    7.140735    5.854904   -6.250048

--------------------------------
INTERNAL COORDINATES (ANGSTROEM)
--------------------------------
 C      0   0   0     0.000000000000     0.00000000     0.00000000
 N      1   0   0     1.466709159152     0.00000000     0.00000000
 C      1   2   0     1.525887598611   113.08106121     0.00000000
 C      3   1   2     1.522922426714   115.32150160   298.98779578
 H      4   3   1     1.093360976858   112.31147686    51.76616417
 H      4   3   1     1.089954594431   110.16986842   171.17309744
 S      4   3   1     1.801210303623   114.40266140   289.23510751
 C      2   1   3     1.330363150639   126.98915710   102.39030975
 N      8   2   1     1.350134350047   117.64436639   174.24681917
 C      8   2   1     1.312842464079   122.40463695   354.61440396
 H     10   8   2     1.011972738098   122.88487069   342.67118838
 H     10   8   2     1.009408202469   118.89300887   173.11229738
 H      2   1   3     1.013841643828   116.45871694   291.29563037
 H      9   8   2     1.012356698497   121.19473046   343.47581302
 H      9   8   2     1.010224236058   120.51235872   170.23230527
 O      7   4   3     1.440920179428   104.36732947   175.27794104
 O      7   4   3     1.440376003423   105.41678409   299.48536641
 F      7   4   3     1.483433803163   103.93008595    57.15043279
 H      3   1   2     1.092683852872   107.52997589   177.35677273
 H      3   1   2     1.095851861430   108.88782929    62.11677368
 H      1   2   3     1.087524204377   108.44120771   237.12593655
 H      1   2   3     1.091223184114   106.63672387   121.10258644

---------------------------
INTERNAL COORDINATES (A.U.)
---------------------------
 C      0   0   0     0.000000000000     0.00000000     0.00000000
 N      1   0   0     2.771678628911     0.00000000     0.00000000
 C      1   2   0     2.883509672521   113.08106121     0.00000000
 C      3   1   2     2.877906309695   115.32150160   298.98779578
 H      4   3   1     2.066152811778   112.31147686    51.76616417
 H      4   3   1     2.059715681884   110.16986842   171.17309744
 S      4   3   1     3.403794183444   114.40266140   289.23510751
 C      2   1   3     2.514022013368   126.98915710   102.39030975
 N      8   2   1     2.551384165588   117.64436639   174.24681917
 C      8   2   1     2.480912714091   122.40463695   354.61440396
 H     10   8   2     1.912351330000   122.88487069   342.67118838
 H     10   8   2     1.907505060000   118.89300887   173.11229738
 H      2   1   3     1.915883050000   116.45871694   291.29563037
 H      9   8   2     1.913076910000   121.19473046   343.47581302
 H      9   8   2     1.909047140000   120.51235872   170.23230527
 O      7   4   3     2.722944519960   104.36732947   175.27794104
 O      7   4   3     2.721916176342   105.41678409   299.48536641
 F      7   4   3     2.803283625779   103.93008595    57.15043279
 H      3   1   2     2.064873232886   107.52997589   177.35677273
 H      3   1   2     2.070859901451   108.88782929    62.11677368
 H      1   2   3     2.055122910283   108.44120771   237.12593655
 H      1   2   3     2.062112968961   106.63672387   121.10258644

---------------------
BASIS SET INFORMATION
---------------------
There are 6 groups of distinct atoms

 Group   1 Type C   : 12s6p3d1f contracted to 6s3p3d1f pattern {621111/411/111/1}
 Group   2 Type N   : 12s6p3d1f contracted to 6s3p3d1f pattern {621111/411/111/1}
 Group   3 Type H   : 5s2p contracted to 3s2p pattern {311/11}
 Group   4 Type S   : 15s10p4d1f contracted to 6s6p3d1f pattern {732111/511111/211/1}
 Group   5 Type O   : 12s7p3d1f contracted to 6s4p3d1f pattern {621111/4111/111/1}
 Group   6 Type F   : 12s7p3d1f contracted to 6s4p3d1f pattern {621111/4111/111/1}

Atom   0C    basis set group =>   1
Atom   1N    basis set group =>   2
Atom   2C    basis set group =>   1
Atom   3C    basis set group =>   1
Atom   4H    basis set group =>   3
Atom   5H    basis set group =>   3
Atom   6S    basis set group =>   4
Atom   7C    basis set group =>   1
Atom   8N    basis set group =>   2
Atom   9C    basis set group =>   1
Atom  10H    basis set group =>   3
Atom  11H    basis set group =>   3
Atom  12H    basis set group =>   3
Atom  13H    basis set group =>   3
Atom  14H    basis set group =>   3
Atom  15O    basis set group =>   5
Atom  16O    basis set group =>   5
Atom  17F    basis set group =>   6
Atom  18H    basis set group =>   3
Atom  19H    basis set group =>   3
Atom  20H    basis set group =>   3
Atom  21H    basis set group =>   3
---------------------------------
AUXILIARY/J BASIS SET INFORMATION
---------------------------------
There are 6 groups of distinct atoms

 Group   1 Type C   : 12s5p4d2f1g contracted to 6s4p3d1f1g pattern {711111/2111/211/2/1}
 Group   2 Type N   : 12s5p4d2f1g contracted to 6s4p3d1f1g pattern {711111/2111/211/2/1}
 Group   3 Type H   : 5s2p1d contracted to 3s1p1d pattern {311/2/1}
 Group   4 Type S   : 14s5p5d2f1g contracted to 8s4p3d1f1g pattern {71111111/2111/311/2/1}
 Group   5 Type O   : 12s5p4d2f1g contracted to 6s4p3d1f1g pattern {711111/2111/211/2/1}
 Group   6 Type F   : 12s5p4d2f1g contracted to 6s4p3d1f1g pattern {711111/2111/211/2/1}

Atom   0C    basis set group =>   1
Atom   1N    basis set group =>   2
Atom   2C    basis set group =>   1
Atom   3C    basis set group =>   1
Atom   4H    basis set group =>   3
Atom   5H    basis set group =>   3
Atom   6S    basis set group =>   4
Atom   7C    basis set group =>   1
Atom   8N    basis set group =>   2
Atom   9C    basis set group =>   1
Atom  10H    basis set group =>   3
Atom  11H    basis set group =>   3
Atom  12H    basis set group =>   3
Atom  13H    basis set group =>   3
Atom  14H    basis set group =>   3
Atom  15O    basis set group =>   5
Atom  16O    basis set group =>   5
Atom  17F    basis set group =>   6
Atom  18H    basis set group =>   3
Atom  19H    basis set group =>   3
Atom  20H    basis set group =>   3
Atom  21H    basis set group =>   3


           ************************************************************
           *        Program running with 4 parallel MPI-processes     *
           *              working on a common directory               *
           ************************************************************
------------------------------------------------------------------------------
                           ORCA GTO INTEGRAL CALCULATION
                           -- RI-GTO INTEGRALS CHOSEN --
------------------------------------------------------------------------------
------------------------------------------------------------------------------
                   ___                                                        
                  /   \      - P O W E R E D   B Y -                         
                 /     \                                                     
                 |  |  |   _    _      __       _____    __    __             
                 |  |  |  | |  | |    /  \     |  _  \  |  |  /  |          
                  \  \/   | |  | |   /    \    | | | |  |  | /  /          
                 / \  \   | |__| |  /  /\  \   | |_| |  |  |/  /          
                |  |  |   |  __  | /  /__\  \  |    /   |      \           
                |  |  |   | |  | | |   __   |  |    \   |  |\   \          
                \     /   | |  | | |  |  |  |  | |\  \  |  | \   \       
                 \___/    |_|  |_| |__|  |__|  |_| \__\ |__|  \__/        
                                                                              
                      - O R C A' S   B I G   F R I E N D -                    
                                      &                                       
                       - I N T E G R A L  F E E D E R -                       
                                                                              
 v1 FN, 2020, v2 2021                                                         
------------------------------------------------------------------------------


Reading SHARK input file 28Oct_TZVPD_B3LYP_D9_wb97.SHARKINP.tmp ... ok
----------------------
SHARK INTEGRAL PACKAGE
----------------------

Number of atoms                             ...     22
Number of basis functions                   ...    524
Number of shells                            ...    204
Maximum angular momentum                    ...      3
Integral batch strategy                     ... SHARK/LIBINT Hybrid
RI-J (if used) integral strategy            ... SPLIT-RIJ (Revised 2003 algorithm where possible)
Printlevel                                  ...      1
Contraction scheme used                     ... SEGMENTED contraction
Coulomb Range Separation                    ... NOT USED
Exchange Range Separation                   ... NOT USED
Finite Nucleus Model                        ... NOT USED
Auxiliary Coulomb fitting basis             ... AVAILABLE
   # of basis functions in Aux-J            ...    662
   # of shells in Aux-J                     ...    222
   Maximum angular momentum in Aux-J        ...      4
Auxiliary J/K fitting basis                 ... NOT available
Auxiliary Correlation fitting basis         ... NOT available
Auxiliary 'external' fitting basis          ... NOT available
Integral threshold                          ...     2.500000e-11
Primitive cut-off                           ...     2.500000e-12
Primitive pair pre-selection threshold      ...     2.500000e-12

Calculating pre-screening integrals         ... done (  0.2 sec) Dimension = 204
Organizing shell pair data                  ... done (  0.2 sec)
Shell pair information
Total number of shell pairs                 ...     20910
Shell pairs after pre-screening             ...     18850
Total number of primitive shell pairs       ...     54904
Primitive shell pairs kept                  ...     37790
          la=0 lb=0:   4282 shell pairs
          la=1 lb=0:   5492 shell pairs
          la=1 lb=1:   1792 shell pairs
          la=2 lb=0:   2948 shell pairs
          la=2 lb=1:   1897 shell pairs
          la=2 lb=2:    530 shell pairs
          la=3 lb=0:    916 shell pairs
          la=3 lb=1:    610 shell pairs
          la=3 lb=2:    327 shell pairs
          la=3 lb=3:     56 shell pairs

Calculating one electron integrals          ... done (  0.1 sec)
Calculating RI/J V-Matrix + Cholesky decomp.... done (  0.0 sec)
Calculating Nuclear repulsion               ... done (  0.0 sec) ENN=    833.741718090192 Eh

SHARK setup successfully completed in   0.6 seconds

Maximum memory used throughout the entire GTOINT-calculation: 29.3 MB


           ************************************************************
           *        Program running with 4 parallel MPI-processes     *
           *              working on a common directory               *
           ************************************************************
-------------------------------------------------------------------------------
                                 ORCA SCF
-------------------------------------------------------------------------------

------------
SCF SETTINGS
------------
Hamiltonian:
 Density Functional     Method          .... DFT(GTOs)
 Exchange Functional    Exchange        .... B88
   X-Alpha parameter    XAlpha          ....  0.666667
   Becke's b parameter  XBeta           ....  0.004200
 Correlation Functional Correlation     .... LYP
 LDA part of GGA corr.  LDAOpt          .... VWN-5
 Gradients option       PostSCFGGA      .... off
 Hybrid DFT is turned on
   Fraction HF Exchange ScalHFX         ....  0.200000
   Scaling of DF-GGA-X  ScalDFX         ....  0.720000
   Scaling of DF-GGA-C  ScalDFC         ....  0.810000
   Scaling of DF-LDA-C  ScalLDAC        ....  1.000000
   Perturbative correction              ....  0.000000
   Density functional embedding theory  .... OFF
   NL short-range parameter             ....  4.800000
 RI-approximation to the Coulomb term is turned on
   Number of AuxJ basis functions       .... 662
   RIJ-COSX (HFX calculated with COS-X)).... on


General Settings:
 Integral files         IntName         .... 28Oct_TZVPD_B3LYP_D9_wb97
 Hartree-Fock type      HFTyp           .... RHF
 Total Charge           Charge          ....    0
 Multiplicity           Mult            ....    1
 Number of Electrons    NEL             ....   96
 Basis Dimension        Dim             ....  524
 Nuclear Repulsion      ENuc            ....    833.7417180902 Eh

Convergence Acceleration:
 DIIS                   CNVDIIS         .... on
   Start iteration      DIISMaxIt       ....    12
   Startup error        DIISStart       ....  0.200000
   # of expansion vecs  DIISMaxEq       ....     5
   Bias factor          DIISBfac        ....   1.050
   Max. coefficient     DIISMaxC        ....  10.000
 Trust-Rad. Augm. Hess. CNVTRAH         .... auto
   Auto Start mean grad. ratio tolernc. ....  1.125000
   Auto Start start iteration           ....    20
   Auto Start num. interpolation iter.  ....    10
   Max. Number of Micro iterations      ....    16
   Max. Number of Macro iterations      .... Maxiter - #DIIS iter
   Number of Davidson start vectors     ....     2
   Converg. threshold I  (grad. norm)   ....   1.000e-05
   Converg. threshold II (energy diff.) ....   1.000e-08
   Grad. Scal. Fac. for Micro threshold ....   0.100
   Minimum threshold for Micro iter.    ....   0.010
   NR start threshold (gradient norm)   ....   0.001
   Initial trust radius                 ....   0.400
   Minimum AH scaling param. (alpha)    ....   1.000
   Maximum AH scaling param. (alpha)    .... 1000.000
   Orbital update algorithm             .... Taylor
   White noise on init. David. guess    .... on
   Maximum white noise                  ....   0.010
   Quad. conv. algorithm                .... NR
 SOSCF                  CNVSOSCF        .... on
   Start iteration      SOSCFMaxIt      ....   150
   Startup grad/error   SOSCFStart      ....  0.003300
 Level Shifting         CNVShift        .... on
   Level shift para.    LevelShift      ....    0.2500
   Turn off err/grad.   ShiftErr        ....    0.0010
 Zerner damping         CNVZerner       .... off
 Static damping         CNVDamp         .... on
   Fraction old density DampFac         ....    0.7000
   Max. Damping (<1)    DampMax         ....    0.9800
   Min. Damping (>=0)   DampMin         ....    0.0000
   Turn off err/grad.   DampErr         ....    0.1000
 Fernandez-Rico         CNVRico         .... off

SCF Procedure:
 Maximum # iterations   MaxIter         ....   150
 SCF integral mode      SCFMode         .... Direct
   Integral package                     .... SHARK and LIBINT hybrid scheme
 Reset frequency        DirectResetFreq ....    20
 Integral Threshold     Thresh          ....  2.500e-11 Eh
 Primitive CutOff       TCut            ....  2.500e-12 Eh

Convergence Tolerance:
 Convergence Check Mode ConvCheckMode   .... Total+1el-Energy
 Convergence forced     ConvForced      .... 0
 Energy Change          TolE            ....  1.000e-08 Eh
 1-El. energy change                    ....  1.000e-05 Eh
 Orbital Gradient       TolG            ....  1.000e-05
 Orbital Rotation angle TolX            ....  1.000e-05
 DIIS Error             TolErr          ....  5.000e-07


Diagonalization of the overlap matrix:
Smallest eigenvalue                        ... 1.525e-06
Time for diagonalization                   ...    0.062 sec
Threshold for overlap eigenvalues          ... 1.000e-08
Number of eigenvalues below threshold      ... 0
Time for construction of square roots      ...    0.081 sec
Total time needed                          ...    0.145 sec

Time for model grid setup =    0.274 sec

------------------------------
INITIAL GUESS: MODEL POTENTIAL
------------------------------
Loading Hartree-Fock densities                     ... done
Calculating cut-offs                               ... done
Initializing the effective Hamiltonian             ... done
Setting up the integral package (SHARK)            ... done
Starting the Coulomb interaction                   ... done (   0.4 sec)
Reading the grid                                   ... done
Mapping shells                                     ... done
Starting the XC term evaluation                    ... done (   0.5 sec)
  promolecular density results
     # of electrons  =     95.995535691
     EX              =    -93.871952343
     EC              =     -3.451331356
     EX+EC           =    -97.323283700
Transforming the Hamiltonian                       ... done (   0.0 sec)
Diagonalizing the Hamiltonian                      ... done (   0.1 sec)
Back transforming the eigenvectors                 ... done (   0.0 sec)
Now organizing SCF variables                       ... done
                      ------------------
                      INITIAL GUESS DONE (   1.3 sec)
                      ------------------
-------------------
DFT GRID GENERATION
-------------------

General Integration Accuracy     IntAcc      ... 4.388
Radial Grid Type                 RadialGrid  ... OptM3 with GC (2021)
Angular Grid (max. ang.)         AngularGrid ... 4 (Lebedev-302)
Angular grid pruning method      GridPruning ... 4 (adaptive)
Weight generation scheme         WeightScheme... Becke
Basis function cutoff            BFCut       ... 1.0000e-11
Integration weight cutoff        WCut        ... 1.0000e-14
Angular grids for H and He will be reduced by one unit
Partially contracted basis set               ... off
Rotationally invariant grid construction     ... off

Total number of grid points                  ...   107289
Total number of batches                      ...     1688
Average number of points per batch           ...       63
Average number of grid points per atom       ...     4877
Time for grid setup =    0.974 sec

--------------------
COSX GRID GENERATION
--------------------

GRIDX 1
-------
General Integration Accuracy     IntAcc      ... 3.816
Radial Grid Type                 RadialGrid  ... OptM3 with GC (2021)
Angular Grid (max. ang.)         AngularGrid ... 1 (Lebedev-50)
Angular grid pruning method      GridPruning ... 4 (adaptive)
Weight generation scheme         WeightScheme... Becke
Basis function cutoff            BFCut       ... 1.0000e-11
Integration weight cutoff        WCut        ... 1.0000e-14
Angular grids for H and He will be reduced by one unit
Partially contracted basis set               ... on
Rotationally invariant grid construction     ... off

Total number of grid points                  ...    13358
Total number of batches                      ...      219
Average number of points per batch           ...       60
Average number of grid points per atom       ...      607
UseSFitting                                  ... on

GRIDX 2
-------
General Integration Accuracy     IntAcc      ... 4.020
Radial Grid Type                 RadialGrid  ... OptM3 with GC (2021)
Angular Grid (max. ang.)         AngularGrid ... 2 (Lebedev-110)
Angular grid pruning method      GridPruning ... 4 (adaptive)
Weight generation scheme         WeightScheme... Becke
Basis function cutoff            BFCut       ... 1.0000e-11
Integration weight cutoff        WCut        ... 1.0000e-14
Angular grids for H and He will be reduced by one unit
Partially contracted basis set               ... on
Rotationally invariant grid construction     ... off

Total number of grid points                  ...    31909
Total number of batches                      ...      508
Average number of points per batch           ...       62
Average number of grid points per atom       ...     1450
UseSFitting                                  ... on

GRIDX 3
-------
General Integration Accuracy     IntAcc      ... 4.338
Radial Grid Type                 RadialGrid  ... OptM3 with GC (2021)
Angular Grid (max. ang.)         AngularGrid ... 3 (Lebedev-194)
Angular grid pruning method      GridPruning ... 4 (adaptive)
Weight generation scheme         WeightScheme... Becke
Basis function cutoff            BFCut       ... 1.0000e-11
Integration weight cutoff        WCut        ... 1.0000e-14
Angular grids for H and He will be reduced by one unit
Partially contracted basis set               ... on
Rotationally invariant grid construction     ... off

Total number of grid points                  ...    71377
Total number of batches                      ...     1129
Average number of points per batch           ...       63
Average number of grid points per atom       ...     3244
UseSFitting                                  ... on

Time for X-Grid setup             =    1.547 sec

--------------
SCF ITERATIONS
--------------
ITER       Energy         Delta-E        Max-DP      RMS-DP      [F,P]     Damp
               ***  Starting incremental Fock matrix formation  ***
  0   -954.3423908440   0.000000000000 0.22298573  0.00249320  0.3207623 0.7000
  1   -954.6460065282  -0.303615684176 0.25432237  0.00198724  0.1354142 0.7000
                               ***Turning on DIIS***
  2   -954.7475924782  -0.101585950002 0.40612930  0.00362075  0.0486972 0.0000
  3   -954.9252972691  -0.177704790867 0.25271508  0.00154389  0.0818284 0.0000
  4   -954.9600011559  -0.034703886767 0.12561422  0.00072620  0.0205317 0.0000
  5   -954.9630778948  -0.003076738908 0.05834549  0.00032994  0.0072960 0.0000
                      *** Initiating the SOSCF procedure ***
                           *** Shutting down DIIS ***
                      *** Re-Reading the Fockian *** 
                      *** Removing any level shift *** 
ITER      Energy       Delta-E        Grad      Rot      Max-DP    RMS-DP
  6   -954.96329472  -0.0002168298  0.000528  0.000528  0.039585  0.000181
               *** Restarting incremental Fock matrix formation ***
  7   -954.96330082  -0.0000060972  0.000234  0.000939  0.058266  0.000204
  8   -954.96330316  -0.0000023348  0.000130  0.000367  0.018819  0.000064
  9   -954.96330501  -0.0000018520  0.000072  0.000249  0.015638  0.000053
 10   -954.96330525  -0.0000002400  0.000026  0.000022  0.004046  0.000013
 11   -954.96330535  -0.0000001016  0.000014  0.000049  0.004207  0.000019
 12   -954.96330536  -0.0000000072  0.000012  0.000012  0.001182  0.000008
 13   -954.96330537  -0.0000000080  0.000005  0.000014  0.003248  0.000013
 14   -954.96330537  -0.0000000091  0.000004  0.000003  0.002457  0.000008
                  ***Gradient check signals convergence***
              ***Rediagonalizing the Fockian in SOSCF/NRSCF***

               *****************************************************
               *                     SUCCESS                       *
               *           SCF CONVERGED AFTER  15 CYCLES          *
               *****************************************************

Old exchange energy                            =    -18.988009394 Eh
New exchange energy                            =    -18.987961442 Eh
Exchange energy change after final integration =      0.000047952 Eh
Total energy after final integration           =   -954.963257423 Eh
Final COS-X integration done in                =    25.986 sec

----------------
TOTAL SCF ENERGY
----------------

Total Energy       :         -954.96325742 Eh          -25985.87133 eV

Components:
Nuclear Repulsion  :          833.74171809 Eh           22687.26555 eV
Electronic Energy  :        -1788.70497551 Eh          -48673.13688 eV
One Electron Energy:        -2966.36445686 Eh          -80718.88054 eV
Two Electron Energy:         1177.65948135 Eh           32045.74366 eV
Max COSX asymmetry :            0.00000284 Eh               0.00008 eV

Virial components:
Potential Energy   :        -1907.73835748 Eh          -51912.19987 eV
Kinetic Energy     :          952.77510006 Eh           25926.32854 eV
Virial Ratio       :            2.00229661


DFT components:
N(Alpha)           :       48.000082665652 electrons
N(Beta)            :       48.000082665652 electrons
N(Total)           :       96.000165331305 electrons
E(X)               :      -75.484753589431 Eh       
E(C)               :       -4.052969694496 Eh       
E(XC)              :      -79.537723283927 Eh       
DFET-embed. en.    :        0.000000000000 Eh       

---------------
SCF CONVERGENCE
---------------

  Last Energy change         ...   -5.2444e-10  Tolerance :   1.0000e-08
  Last MAX-Density change    ...    1.4433e-15  Tolerance :   1.0000e-07
  Last RMS-Density change    ...    1.5326e-17  Tolerance :   5.0000e-09
  Last Orbital Gradient      ...    1.6734e-06  Tolerance :   1.0000e-05
  Last Orbital Rotation      ...    3.7219e-06  Tolerance :   1.0000e-05

             **** THE GBW FILE WAS UPDATED (28Oct_TZVPD_B3LYP_D9_wb97.gbw) ****
             **** DENSITY 28Oct_TZVPD_B3LYP_D9_wb97.scfp WAS UPDATED ****
             **** ENERGY FILE WAS UPDATED (28Oct_TZVPD_B3LYP_D9_wb97.en.tmp) ****
             **** THE GBW FILE WAS UPDATED (28Oct_TZVPD_B3LYP_D9_wb97.gbw) ****
             **** DENSITY 28Oct_TZVPD_B3LYP_D9_wb97.scfp WAS UPDATED ****
----------------
ORBITAL ENERGIES
----------------

  NO   OCC          E(Eh)            E(eV) 
   0   2.0000     -89.093719     -2424.3634 
   1   2.0000     -24.779843      -674.2938 
   2   2.0000     -19.138220      -520.7774 
   3   2.0000     -19.136681      -520.7356 
   4   2.0000     -14.331426      -389.9779 
   5   2.0000     -14.321286      -389.7020 
   6   2.0000     -10.223802      -278.2038 
   7   2.0000     -10.221776      -278.1487 
   8   2.0000     -10.221203      -278.1331 
   9   2.0000     -10.198709      -277.5210 
  10   2.0000     -10.084158      -274.4039 
  11   2.0000      -8.138024      -221.4469 
  12   2.0000      -6.104998      -166.1254 
  13   2.0000      -6.098432      -165.9468 
  14   2.0000      -6.098022      -165.9356 
  15   2.0000      -1.355508       -36.8852 
  16   2.0000      -1.115371       -30.3508 
  17   2.0000      -1.025332       -27.9007 
  18   2.0000      -0.975558       -26.5463 
  19   2.0000      -0.893297       -24.3078 
  20   2.0000      -0.824975       -22.4487 
  21   2.0000      -0.750267       -20.4158 
  22   2.0000      -0.732121       -19.9220 
  23   2.0000      -0.695728       -18.9317 
  24   2.0000      -0.651857       -17.7379 
  25   2.0000      -0.588390       -16.0109 
  26   2.0000      -0.583682       -15.8828 
  27   2.0000      -0.564495       -15.3607 
  28   2.0000      -0.555425       -15.1139 
  29   2.0000      -0.544013       -14.8033 
  30   2.0000      -0.519003       -14.1228 
  31   2.0000      -0.495783       -13.4909 
  32   2.0000      -0.480971       -13.0879 
  33   2.0000      -0.467061       -12.7094 
  34   2.0000      -0.463740       -12.6190 
  35   2.0000      -0.448017       -12.1911 
  36   2.0000      -0.418359       -11.3841 
  37   2.0000      -0.412605       -11.2275 
  38   2.0000      -0.399017       -10.8578 
  39   2.0000      -0.387146       -10.5348 
  40   2.0000      -0.382671       -10.4130 
  41   2.0000      -0.373310       -10.1583 
  42   2.0000      -0.357879        -9.7384 
  43   2.0000      -0.340234        -9.2582 
  44   2.0000      -0.329512        -8.9665 
  45   2.0000      -0.320667        -8.7258 
  46   2.0000      -0.261131        -7.1057 
  47   2.0000      -0.181444        -4.9373 
  48   0.0000      -0.013863        -0.3772 
  49   0.0000       0.002730         0.0743 
  50   0.0000       0.010834         0.2948 
  51   0.0000       0.016988         0.4623 
  52   0.0000       0.034964         0.9514 
  53   0.0000       0.039083         1.0635 
  54   0.0000       0.042084         1.1452 
  55   0.0000       0.044550         1.2123 
  56   0.0000       0.048840         1.3290 
  57   0.0000       0.055597         1.5129 
  58   0.0000       0.067003         1.8233 
  59   0.0000       0.070471         1.9176 
  60   0.0000       0.074633         2.0309 
  61   0.0000       0.080206         2.1825 
  62   0.0000       0.085843         2.3359 
  63   0.0000       0.094635         2.5751 
  64   0.0000       0.097032         2.6404 
  65   0.0000       0.106724         2.9041 
  66   0.0000       0.110784         3.0146 
  67   0.0000       0.113253         3.0818 
  68   0.0000       0.116668         3.1747 
  69   0.0000       0.127079         3.4580 
  70   0.0000       0.129517         3.5243 
  71   0.0000       0.138503         3.7689 
  72   0.0000       0.142698         3.8830 
  73   0.0000       0.145128         3.9491 
  74   0.0000       0.149494         4.0679 
  75   0.0000       0.152109         4.1391 
  76   0.0000       0.155055         4.2192 
  77   0.0000       0.164266         4.4699 
  78   0.0000       0.164372         4.4728 
  79   0.0000       0.170154         4.6301 
  80   0.0000       0.171546         4.6680 
  81   0.0000       0.175208         4.7677 
  82   0.0000       0.178102         4.8464 
  83   0.0000       0.190878         5.1941 
  84   0.0000       0.193594         5.2680 
  85   0.0000       0.199020         5.4156 
  86   0.0000       0.204922         5.5762 
  87   0.0000       0.210719         5.7339 
  88   0.0000       0.216609         5.8942 
  89   0.0000       0.222466         6.0536 
  90   0.0000       0.228712         6.2236 
  91   0.0000       0.230084         6.2609 
  92   0.0000       0.235471         6.4075 
  93   0.0000       0.242087         6.5875 
  94   0.0000       0.247025         6.7219 
  95   0.0000       0.253075         6.8865 
  96   0.0000       0.256870         6.9898 
  97   0.0000       0.261223         7.1082 
  98   0.0000       0.262760         7.1501 
  99   0.0000       0.266421         7.2497 
 100   0.0000       0.269841         7.3427 
 101   0.0000       0.277093         7.5401 
 102   0.0000       0.280780         7.6404 
 103   0.0000       0.286772         7.8035 
 104   0.0000       0.292365         7.9556 
 105   0.0000       0.295003         8.0274 
 106   0.0000       0.303723         8.2647 
 107   0.0000       0.305770         8.3204 
 108   0.0000       0.308407         8.3922 
 109   0.0000       0.313387         8.5277 
 110   0.0000       0.315756         8.5922 
 111   0.0000       0.321519         8.7490 
 112   0.0000       0.325415         8.8550 
 113   0.0000       0.334353         9.0982 
 114   0.0000       0.336819         9.1653 
 115   0.0000       0.340855         9.2751 
 116   0.0000       0.347215         9.4482 
 117   0.0000       0.352270         9.5858 
 118   0.0000       0.356216         9.6931 
 119   0.0000       0.360731         9.8160 
 120   0.0000       0.364259         9.9120 
 121   0.0000       0.374064        10.1788 
 122   0.0000       0.375251        10.2111 
 123   0.0000       0.378951        10.3118 
 124   0.0000       0.389378        10.5955 
 125   0.0000       0.392401        10.6778 
 126   0.0000       0.393519        10.7082 
 127   0.0000       0.397524        10.8172 
 128   0.0000       0.398502        10.8438 
 129   0.0000       0.407167        11.0796 
 130   0.0000       0.411136        11.1876 
 131   0.0000       0.417289        11.3550 
 132   0.0000       0.418967        11.4007 
 133   0.0000       0.426525        11.6063 
 134   0.0000       0.428089        11.6489 
 135   0.0000       0.431605        11.7446 
 136   0.0000       0.436220        11.8702 
 137   0.0000       0.445446        12.1212 
 138   0.0000       0.447695        12.1824 
 139   0.0000       0.455615        12.3979 
 140   0.0000       0.461359        12.5542 
 141   0.0000       0.467227        12.7139 
 142   0.0000       0.471348        12.8260 
 143   0.0000       0.477133        12.9835 
 144   0.0000       0.480875        13.0853 
 145   0.0000       0.484877        13.1942 
 146   0.0000       0.489144        13.3103 
 147   0.0000       0.495987        13.4965 
 148   0.0000       0.500227        13.6119 
 149   0.0000       0.504551        13.7295 
 150   0.0000       0.507125        13.7996 
 151   0.0000       0.514249        13.9934 
 152   0.0000       0.520581        14.1657 
 153   0.0000       0.533002        14.5037 
 154   0.0000       0.545529        14.8446 
 155   0.0000       0.547841        14.9075 
 156   0.0000       0.552897        15.0451 
 157   0.0000       0.553962        15.0741 
 158   0.0000       0.555556        15.1174 
 159   0.0000       0.566069        15.4035 
 160   0.0000       0.569682        15.5018 
 161   0.0000       0.574094        15.6219 
 162   0.0000       0.581704        15.8290 
 163   0.0000       0.585022        15.9192 
 164   0.0000       0.595777        16.2119 
 165   0.0000       0.601238        16.3605 
 166   0.0000       0.604508        16.4495 
 167   0.0000       0.612663        16.6714 
 168   0.0000       0.615783        16.7563 
 169   0.0000       0.620207        16.8767 
 170   0.0000       0.629713        17.1354 
 171   0.0000       0.638501        17.3745 
 172   0.0000       0.644516        17.5382 
 173   0.0000       0.645843        17.5743 
 174   0.0000       0.651265        17.7218 
 175   0.0000       0.656932        17.8760 
 176   0.0000       0.661976        18.0133 
 177   0.0000       0.662917        18.0389 
 178   0.0000       0.675627        18.3847 
 179   0.0000       0.682002        18.5582 
 180   0.0000       0.683691        18.6042 
 181   0.0000       0.690511        18.7898 
 182   0.0000       0.700629        19.0651 
 183   0.0000       0.704949        19.1826 
 184   0.0000       0.709421        19.3043 
 185   0.0000       0.714356        19.4386 
 186   0.0000       0.719187        19.5701 
 187   0.0000       0.723817        19.6961 
 188   0.0000       0.732638        19.9361 
 189   0.0000       0.737977        20.0814 
 190   0.0000       0.744009        20.2455 
 191   0.0000       0.749773        20.4024 
 192   0.0000       0.756479        20.5848 
 193   0.0000       0.762302        20.7433 
 194   0.0000       0.770856        20.9760 
 195   0.0000       0.777238        21.1497 
 196   0.0000       0.785585        21.3769 
 197   0.0000       0.790066        21.4988 
 198   0.0000       0.795403        21.6440 
 199   0.0000       0.809011        22.0143 
 200   0.0000       0.814489        22.1634 
 201   0.0000       0.818440        22.2709 
 202   0.0000       0.825034        22.4503 
 203   0.0000       0.829534        22.5728 
 204   0.0000       0.834524        22.7085 
 205   0.0000       0.841174        22.8895 
 206   0.0000       0.858105        23.3502 
 207   0.0000       0.862428        23.4679 
 208   0.0000       0.866855        23.5883 
 209   0.0000       0.874335        23.7919 
 210   0.0000       0.879387        23.9293 
 211   0.0000       0.883952        24.0536 
 212   0.0000       0.892949        24.2984 
 213   0.0000       0.906877        24.6774 
 214   0.0000       0.910869        24.7860 
 215   0.0000       0.924114        25.1464 
 216   0.0000       0.931122        25.3371 
 217   0.0000       0.934183        25.4204 
 218   0.0000       0.938991        25.5512 
 219   0.0000       0.954636        25.9770 
 220   0.0000       0.966435        26.2980 
 221   0.0000       0.971966        26.4485 
 222   0.0000       0.983518        26.7629 
 223   0.0000       0.992945        27.0194 
 224   0.0000       1.000078        27.2135 
 225   0.0000       1.012112        27.5410 
 226   0.0000       1.018450        27.7134 
 227   0.0000       1.022601        27.8264 
 228   0.0000       1.034839        28.1594 
 229   0.0000       1.036793        28.2126 
 230   0.0000       1.047900        28.5148 
 231   0.0000       1.059905        28.8415 
 232   0.0000       1.077015        29.3071 
 233   0.0000       1.090782        29.6817 
 234   0.0000       1.097816        29.8731 
 235   0.0000       1.112307        30.2674 
 236   0.0000       1.116621        30.3848 
 237   0.0000       1.139628        31.0109 
 238   0.0000       1.149173        31.2706 
 239   0.0000       1.156696        31.4753 
 240   0.0000       1.171364        31.8744 
 241   0.0000       1.178781        32.0763 
 242   0.0000       1.203094        32.7378 
 243   0.0000       1.208840        32.8942 
 244   0.0000       1.212986        33.0070 
 245   0.0000       1.234541        33.5936 
 246   0.0000       1.253136        34.0996 
 247   0.0000       1.272408        34.6240 
 248   0.0000       1.284187        34.9445 
 249   0.0000       1.309142        35.6236 
 250   0.0000       1.313386        35.7391 
 251   0.0000       1.322228        35.9796 
 252   0.0000       1.337834        36.4043 
 253   0.0000       1.348664        36.6990 
 254   0.0000       1.369427        37.2640 
 255   0.0000       1.373490        37.3746 
 256   0.0000       1.404570        38.2203 
 257   0.0000       1.407370        38.2965 
 258   0.0000       1.411755        38.4158 
 259   0.0000       1.417875        38.5824 
 260   0.0000       1.438501        39.1436 
 261   0.0000       1.445787        39.3419 
 262   0.0000       1.471922        40.0530 
 263   0.0000       1.482601        40.3436 
 264   0.0000       1.485445        40.4210 
 265   0.0000       1.513236        41.1772 
 266   0.0000       1.535149        41.7735 
 267   0.0000       1.575385        42.8684 
 268   0.0000       1.588923        43.2368 
 269   0.0000       1.597558        43.4718 
 270   0.0000       1.614167        43.9237 
 271   0.0000       1.627012        44.2732 
 272   0.0000       1.636535        44.5324 
 273   0.0000       1.651972        44.9524 
 274   0.0000       1.691683        46.0330 
 275   0.0000       1.702667        46.3319 
 276   0.0000       1.718284        46.7569 
 277   0.0000       1.723900        46.9097 
 278   0.0000       1.754170        47.7334 
 279   0.0000       1.769924        48.1621 
 280   0.0000       1.787975        48.6533 
 281   0.0000       1.804551        49.1043 
 282   0.0000       1.823178        49.6112 
 283   0.0000       1.831531        49.8385 
 284   0.0000       1.849871        50.3375 
 285   0.0000       1.855889        50.5013 
 286   0.0000       1.860414        50.6244 
 287   0.0000       1.862548        50.6825 
 288   0.0000       1.869587        50.8741 
 289   0.0000       1.896721        51.6124 
 290   0.0000       1.901609        51.7454 
 291   0.0000       1.912955        52.0542 
 292   0.0000       1.921387        52.2836 
 293   0.0000       1.933095        52.6022 
 294   0.0000       1.942285        52.8523 
 295   0.0000       1.952279        53.1242 
 296   0.0000       1.959540        53.3218 
 297   0.0000       1.976490        53.7830 
 298   0.0000       1.980885        53.9026 
 299   0.0000       1.983762        53.9809 
 300   0.0000       2.009289        54.6755 
 301   0.0000       2.013340        54.7858 
 302   0.0000       2.031378        55.2766 
 303   0.0000       2.035852        55.3984 
 304   0.0000       2.044816        55.6423 
 305   0.0000       2.064876        56.1881 
 306   0.0000       2.088104        56.8202 
 307   0.0000       2.112569        57.4859 
 308   0.0000       2.134905        58.0937 
 309   0.0000       2.153329        58.5951 
 310   0.0000       2.155942        58.6662 
 311   0.0000       2.171306        59.0842 
 312   0.0000       2.192254        59.6543 
 313   0.0000       2.201751        59.9127 
 314   0.0000       2.218000        60.3548 
 315   0.0000       2.228075        60.6290 
 316   0.0000       2.245015        61.0900 
 317   0.0000       2.255946        61.3874 
 318   0.0000       2.274543        61.8935 
 319   0.0000       2.297853        62.5278 
 320   0.0000       2.299687        62.5777 
 321   0.0000       2.326288        63.3015 
 322   0.0000       2.359026        64.1923 
 323   0.0000       2.364397        64.3385 
 324   0.0000       2.370061        64.4927 
 325   0.0000       2.384615        64.8887 
 326   0.0000       2.398049        65.2542 
 327   0.0000       2.430112        66.1267 
 328   0.0000       2.434837        66.2553 
 329   0.0000       2.438722        66.3610 
 330   0.0000       2.459101        66.9155 
 331   0.0000       2.484192        67.5983 
 332   0.0000       2.498068        67.9759 
 333   0.0000       2.516567        68.4793 
 334   0.0000       2.525631        68.7259 
 335   0.0000       2.538485        69.0757 
 336   0.0000       2.555705        69.5443 
 337   0.0000       2.561047        69.6896 
 338   0.0000       2.579323        70.1870 
 339   0.0000       2.596516        70.6548 
 340   0.0000       2.605009        70.8859 
 341   0.0000       2.626339        71.4663 
 342   0.0000       2.639648        71.8285 
 343   0.0000       2.648353        72.0653 
 344   0.0000       2.659401        72.3660 
 345   0.0000       2.683458        73.0206 
 346   0.0000       2.697657        73.4070 
 347   0.0000       2.705745        73.6271 
 348   0.0000       2.714615        73.8684 
 349   0.0000       2.728284        74.2404 
 350   0.0000       2.743720        74.6604 
 351   0.0000       2.751857        74.8818 
 352   0.0000       2.761828        75.1532 
 353   0.0000       2.780876        75.6715 
 354   0.0000       2.790001        75.9198 
 355   0.0000       2.806419        76.3665 
 356   0.0000       2.815594        76.6162 
 357   0.0000       2.824235        76.8513 
 358   0.0000       2.834859        77.1404 
 359   0.0000       2.867582        78.0309 
 360   0.0000       2.876004        78.2600 
 361   0.0000       2.898966        78.8849 
 362   0.0000       2.917807        79.3976 
 363   0.0000       2.925982        79.6200 
 364   0.0000       2.933075        79.8130 
 365   0.0000       2.945467        80.1502 
 366   0.0000       2.981810        81.1392 
 367   0.0000       2.998988        81.6066 
 368   0.0000       3.015852        82.0655 
 369   0.0000       3.027160        82.3732 
 370   0.0000       3.052311        83.0576 
 371   0.0000       3.077086        83.7318 
 372   0.0000       3.100578        84.3710 
 373   0.0000       3.113087        84.7114 
 374   0.0000       3.121990        84.9537 
 375   0.0000       3.150672        85.7341 
 376   0.0000       3.173370        86.3518 
 377   0.0000       3.193587        86.9019 
 378   0.0000       3.218079        87.5684 
 379   0.0000       3.226159        87.7883 
 380   0.0000       3.230778        87.9140 
 381   0.0000       3.240228        88.1711 
 382   0.0000       3.245628        88.3180 
 383   0.0000       3.260671        88.7274 
 384   0.0000       3.276208        89.1501 
 385   0.0000       3.299702        89.7895 
 386   0.0000       3.316877        90.2568 
 387   0.0000       3.332157        90.6726 
 388   0.0000       3.343884        90.9917 
 389   0.0000       3.362256        91.4916 
 390   0.0000       3.381501        92.0153 
 391   0.0000       3.390354        92.2562 
 392   0.0000       3.400058        92.5203 
 393   0.0000       3.418901        93.0330 
 394   0.0000       3.434847        93.4669 
 395   0.0000       3.451143        93.9104 
 396   0.0000       3.459189        94.1293 
 397   0.0000       3.469846        94.4193 
 398   0.0000       3.479673        94.6867 
 399   0.0000       3.497129        95.1617 
 400   0.0000       3.505930        95.4012 
 401   0.0000       3.513354        95.6032 
 402   0.0000       3.535530        96.2067 
 403   0.0000       3.538371        96.2840 
 404   0.0000       3.555815        96.7586 
 405   0.0000       3.570581        97.1604 
 406   0.0000       3.578104        97.3652 
 407   0.0000       3.587131        97.6108 
 408   0.0000       3.615493        98.3826 
 409   0.0000       3.641714        99.0961 
 410   0.0000       3.675647       100.0194 
 411   0.0000       3.700118       100.6853 
 412   0.0000       3.712875       101.0325 
 413   0.0000       3.734214       101.6131 
 414   0.0000       3.756921       102.2310 
 415   0.0000       3.765711       102.4702 
 416   0.0000       3.815300       103.8196 
 417   0.0000       3.823859       104.0525 
 418   0.0000       3.836801       104.4047 
 419   0.0000       3.871740       105.3554 
 420   0.0000       3.924084       106.7798 
 421   0.0000       3.944183       107.3267 
 422   0.0000       3.956681       107.6668 
 423   0.0000       3.973886       108.1349 
 424   0.0000       3.990632       108.5906 
 425   0.0000       4.042923       110.0135 
 426   0.0000       4.067270       110.6760 
 427   0.0000       4.083806       111.1260 
 428   0.0000       4.093650       111.3939 
 429   0.0000       4.165084       113.3377 
 430   0.0000       4.197550       114.2211 
 431   0.0000       4.237572       115.3102 
 432   0.0000       4.244282       115.4928 
 433   0.0000       4.249260       115.6282 
 434   0.0000       4.316075       117.4464 
 435   0.0000       4.341351       118.1342 
 436   0.0000       4.389115       119.4339 
 437   0.0000       4.394330       119.5758 
 438   0.0000       4.407306       119.9289 
 439   0.0000       4.478994       121.8796 
 440   0.0000       4.490820       122.2014 
 441   0.0000       4.516390       122.8972 
 442   0.0000       4.576796       124.5409 
 443   0.0000       4.596048       125.0648 
 444   0.0000       4.644103       126.3725 
 445   0.0000       4.672184       127.1366 
 446   0.0000       4.703994       128.0022 
 447   0.0000       4.735885       128.8700 
 448   0.0000       4.751739       129.3014 
 449   0.0000       4.782757       130.1454 
 450   0.0000       4.816514       131.0640 
 451   0.0000       4.853525       132.0711 
 452   0.0000       4.913323       133.6983 
 453   0.0000       4.990864       135.8083 
 454   0.0000       5.024040       136.7111 
 455   0.0000       5.042941       137.2254 
 456   0.0000       5.083415       138.3267 
 457   0.0000       5.102018       138.8330 
 458   0.0000       5.142951       139.9468 
 459   0.0000       5.153784       140.2416 
 460   0.0000       5.165371       140.5569 
 461   0.0000       5.171163       140.7145 
 462   0.0000       5.180087       140.9573 
 463   0.0000       5.201495       141.5399 
 464   0.0000       5.217825       141.9842 
 465   0.0000       5.229986       142.3152 
 466   0.0000       5.240485       142.6009 
 467   0.0000       5.271125       143.4346 
 468   0.0000       5.288442       143.9058 
 469   0.0000       5.334728       145.1653 
 470   0.0000       5.353635       145.6798 
 471   0.0000       5.383508       146.4927 
 472   0.0000       5.398652       146.9048 
 473   0.0000       5.406665       147.1228 
 474   0.0000       5.419067       147.4603 
 475   0.0000       5.476010       149.0098 
 476   0.0000       5.544407       150.8710 
 477   0.0000       5.590040       152.1127 
 478   0.0000       5.599351       152.3661 
 479   0.0000       5.641435       153.5112 
 480   0.0000       5.643790       153.5753 
 481   0.0000       5.652321       153.8075 
 482   0.0000       5.731907       155.9731 
 483   0.0000       5.755450       156.6138 
 484   0.0000       5.912312       160.8822 
 485   0.0000       6.067844       165.1144 
 486   0.0000       6.121004       166.5610 
 487   0.0000       6.305908       171.5925 
 488   0.0000       6.436885       175.1565 
 489   0.0000       6.465143       175.9255 
 490   0.0000       6.507569       177.0800 
 491   0.0000       6.545863       178.1220 
 492   0.0000       6.686125       181.9387 
 493   0.0000       6.720261       182.8676 
 494   0.0000       6.777848       184.4346 
 495   0.0000       6.831638       185.8983 
 496   0.0000       6.839413       186.1099 
 497   0.0000       6.845058       186.2635 
 498   0.0000       6.927537       188.5079 
 499   0.0000       6.972506       189.7315 
 500   0.0000       7.025422       191.1715 
 501   0.0000       7.060032       192.1132 
 502   0.0000       7.075734       192.5405 
 503   0.0000       7.100373       193.2110 
 504   0.0000       7.136031       194.1813 
 505   0.0000       8.511348       231.6056 
 506   0.0000       8.533452       232.2070 
 507   0.0000       8.701055       236.7677 
 508   0.0000       8.791205       239.2208 
 509   0.0000       8.952741       243.6165 
 510   0.0000       9.534946       259.4591 
 511   0.0000       9.794909       266.5330 
 512   0.0000       9.843029       267.8424 
 513   0.0000      22.424477       610.2010 
 514   0.0000      22.692469       617.4935 
 515   0.0000      22.762698       619.4045 
 516   0.0000      22.884694       622.7242 
 517   0.0000      22.989156       625.5667 
 518   0.0000      23.581018       641.6721 
 519   0.0000      32.391598       881.4202 
 520   0.0000      32.880826       894.7328 
 521   0.0000      43.986773      1196.9409 
 522   0.0000      44.199185      1202.7210 
 523   0.0000      57.636223      1568.3614 

                    ********************************
                    * MULLIKEN POPULATION ANALYSIS *
                    ********************************

-----------------------
MULLIKEN ATOMIC CHARGES
-----------------------
   0 C :   -0.634367
   1 N :   -0.195541
   2 C :   -0.444753
   3 C :   -0.479795
   4 H :    0.302473
   5 H :    0.299335
   6 S :    1.184914
   7 C :    0.952252
   8 N :   -0.371995
   9 C :   -1.546877
  10 H :    0.497913
  11 H :    0.221767
  12 H :    0.182682
  13 H :    0.136778
  14 H :    0.151794
  15 O :   -0.597278
  16 O :   -0.587490
  17 F :   -0.182083
  18 H :    0.249093
  19 H :    0.267725
  20 H :    0.374482
  21 H :    0.218971
Sum of atomic charges:   -0.0000000

--------------------------------
MULLIKEN REDUCED ORBITAL CHARGES
--------------------------------
  0 C s       :     3.585583  s :     3.585583
      pz      :     1.084973  p :     2.977319
      px      :     0.899400
      py      :     0.992946
      dz2     :    -0.004991  d :     0.063080
      dxz     :     0.040007
      dyz     :    -0.025366
      dx2y2   :     0.031280
      dxy     :     0.022150
      f0      :     0.001216  f :     0.008385
      f+1     :     0.001601
      f-1     :     0.000587
      f+2     :     0.000334
      f-2     :     0.001438
      f+3     :     0.002069
      f-3     :     0.001140
  1 N s       :     3.424305  s :     3.424305
      pz      :     1.274157  p :     3.628799
      px      :     1.150649
      py      :     1.203993
      dz2     :     0.045433  d :     0.138371
      dxz     :     0.022653
      dyz     :     0.018384
      dx2y2   :     0.042769
      dxy     :     0.009132
      f0      :     0.000416  f :     0.004067
      f+1     :     0.000379
      f-1     :     0.000710
      f+2     :     0.000631
      f-2     :     0.000724
      f+3     :     0.000648
      f-3     :     0.000558
  2 C s       :     3.236888  s :     3.236888
      pz      :     1.066664  p :     3.155653
      px      :     1.087504
      py      :     1.001484
      dz2     :     0.013428  d :     0.046357
      dxz     :     0.017577
      dyz     :     0.003886
      dx2y2   :    -0.012762
      dxy     :     0.024229
      f0      :     0.000950  f :     0.005855
      f+1     :     0.001375
      f-1     :     0.000334
      f+2     :     0.000511
      f-2     :     0.000749
      f+3     :     0.000780
      f-3     :     0.001155
  3 C s       :     3.183532  s :     3.183532
      pz      :     0.968616  p :     3.190374
      px      :     1.103267
      py      :     1.118491
      dz2     :     0.001547  d :     0.100933
      dxz     :     0.035662
      dyz     :     0.009995
      dx2y2   :     0.011289
      dxy     :     0.042441
      f0      :     0.000613  f :     0.004955
      f+1     :     0.001074
      f-1     :     0.000084
      f+2     :     0.000611
      f-2     :     0.000605
      f+3     :     0.000856
      f-3     :     0.001112
  4 H s       :     0.633336  s :     0.633336
      pz      :    -0.024475  p :     0.064191
      px      :     0.056940
      py      :     0.031727
  5 H s       :     0.665808  s :     0.665808
      pz      :     0.024027  p :     0.034857
      px      :     0.003296
      py      :     0.007534
  6 S s       :     5.424252  s :     5.424252
      pz      :     2.709000  p :     8.103843
      px      :     2.780086
      py      :     2.614756
      dz2     :     0.166002  d :     1.164144
      dxz     :     0.252582
      dyz     :     0.235915
      dx2y2   :     0.274131
      dxy     :     0.235514
      f0      :     0.020109  f :     0.122848
      f+1     :     0.010187
      f-1     :     0.014705
      f+2     :     0.018762
      f-2     :     0.019508
      f+3     :     0.020564
      f-3     :     0.019012
  7 C s       :     3.113723  s :     3.113723
      pz      :     0.608141  p :     1.803897
      px      :     0.589775
      py      :     0.605980
      dz2     :     0.063046  d :     0.111434
      dxz     :     0.070003
      dyz     :    -0.026354
      dx2y2   :     0.023213
      dxy     :    -0.018475
      f0      :     0.002093  f :     0.018694
      f+1     :     0.002043
      f-1     :     0.002851
      f+2     :     0.002523
      f-2     :     0.003193
      f+3     :     0.003572
      f-3     :     0.002419
  8 N s       :     3.432610  s :     3.432610
      pz      :     1.619909  p :     3.885190
      px      :     1.049773
      py      :     1.215508
      dz2     :     0.008175  d :     0.050752
      dxz     :     0.008770
      dyz     :     0.007221
      dx2y2   :     0.016039
      dxy     :     0.010547
      f0      :     0.000640  f :     0.003443
      f+1     :     0.000341
      f-1     :     0.000320
      f+2     :     0.000516
      f-2     :     0.000532
      f+3     :     0.000484
      f-3     :     0.000609
  9 C s       :     3.842072  s :     3.842072
      pz      :     1.137977  p :     3.611503
      px      :     1.141464
      py      :     1.332062
      dz2     :     0.032141  d :     0.088047
      dxz     :     0.009975
      dyz     :    -0.009762
      dx2y2   :     0.038070
      dxy     :     0.017623
      f0      :     0.000463  f :     0.005255
      f+1     :     0.000926
      f-1     :     0.000697
      f+2     :     0.001088
      f-2     :     0.000714
      f+3     :     0.000721
      f-3     :     0.000647
 10 H s       :     0.505892  s :     0.505892
      pz      :    -0.038932  p :    -0.003805
      px      :     0.027694
      py      :     0.007433
 11 H s       :     0.673750  s :     0.673750
      pz      :     0.013235  p :     0.104484
      px      :     0.018788
      py      :     0.072461
 12 H s       :     0.769792  s :     0.769792
      pz      :     0.023234  p :     0.047527
      px      :     0.009645
      py      :     0.014648
 13 H s       :     0.796157  s :     0.796157
      pz      :     0.037507  p :     0.067065
      px      :     0.018174
      py      :     0.011384
 14 H s       :     0.789372  s :     0.789372
      pz      :     0.033783  p :     0.058834
      px      :    -0.002874
      py      :     0.027925
 15 O s       :     3.962971  s :     3.962971
      pz      :     1.640715  p :     4.589672
      px      :     1.677360
      py      :     1.271598
      dz2     :     0.004659  d :     0.042592
      dxz     :     0.000806
      dyz     :     0.012641
      dx2y2   :     0.011587
      dxy     :     0.012899
      f0      :     0.000218  f :     0.002044
      f+1     :     0.000047
      f-1     :     0.000273
      f+2     :     0.000326
      f-2     :     0.000138
      f+3     :     0.000520
      f-3     :     0.000522
 16 O s       :     3.953882  s :     3.953882
      pz      :     1.629174  p :     4.586369
      px      :     1.459888
      py      :     1.497308
      dz2     :     0.006313  d :     0.045205
      dxz     :     0.006268
      dyz     :     0.006850
      dx2y2   :     0.012282
      dxy     :     0.013492
      f0      :     0.000202  f :     0.002034
      f+1     :     0.000185
      f-1     :     0.000169
      f+2     :     0.000089
      f-2     :     0.000407
      f+3     :     0.000505
      f-3     :     0.000477
 17 F s       :     3.915486  s :     3.915486
      pz      :     1.566897  p :     5.231232
      px      :     1.788997
      py      :     1.875338
      dz2     :     0.012976  d :     0.034548
      dxz     :     0.005574
      dyz     :     0.003291
      dx2y2   :     0.005666
      dxy     :     0.007041
      f0      :     0.000190  f :     0.000817
      f+1     :     0.000250
      f-1     :     0.000124
      f+2     :     0.000106
      f-2     :     0.000105
      f+3     :     0.000020
      f-3     :     0.000023
 18 H s       :     0.696177  s :     0.696177
      pz      :     0.014460  p :     0.054730
      px      :     0.023294
      py      :     0.016976
 19 H s       :     0.688065  s :     0.688065
      pz      :     0.024622  p :     0.044209
      px      :     0.012000
      py      :     0.007588
 20 H s       :     0.597694  s :     0.597694
      pz      :     0.027653  p :     0.027824
      px      :    -0.008872
      py      :     0.009043
 21 H s       :     0.712369  s :     0.712369
      pz      :     0.003612  p :     0.068660
      px      :     0.035848
      py      :     0.029200


                     *******************************
                     * LOEWDIN POPULATION ANALYSIS *
                     *******************************

----------------------
LOEWDIN ATOMIC CHARGES
----------------------
   0 C :   -0.170940
   1 N :    0.028934
   2 C :   -0.198524
   3 C :   -0.212821
   4 H :    0.105098
   5 H :    0.111368
   6 S :    0.608298
   7 C :   -0.548499
   8 N :    0.113714
   9 C :    0.026499
  10 H :   -0.032135
  11 H :    0.024387
  12 H :    0.139126
  13 H :    0.093995
  14 H :    0.104260
  15 O :   -0.261182
  16 O :   -0.262063
  17 F :   -0.124772
  18 H :    0.111734
  19 H :    0.115259
  20 H :    0.109126
  21 H :    0.119138

-------------------------------
LOEWDIN REDUCED ORBITAL CHARGES
-------------------------------
  0 C s       :     2.660519  s :     2.660519
      pz      :     0.932438  p :     2.659698
      px      :     0.849748
      py      :     0.877512
      dz2     :     0.169040  d :     0.795759
      dxz     :     0.198466
      dyz     :     0.088218
      dx2y2   :     0.182289
      dxy     :     0.157747
      f0      :     0.007119  f :     0.054964
      f+1     :     0.008088
      f-1     :     0.006362
      f+2     :     0.004498
      f-2     :     0.008904
      f+3     :     0.012215
      f-3     :     0.007777
  1 N s       :     2.835414  s :     2.835414
      pz      :     1.172696  p :     3.447425
      px      :     1.095809
      py      :     1.178920
      dz2     :     0.111598  d :     0.672226
      dxz     :     0.142747
      dyz     :     0.107999
      dx2y2   :     0.155776
      dxy     :     0.154106
      f0      :     0.001808  f :     0.016001
      f+1     :     0.001165
      f-1     :     0.002713
      f+2     :     0.002507
      f-2     :     0.002761
      f+3     :     0.003083
      f-3     :     0.001965
  2 C s       :     2.676823  s :     2.676823
      pz      :     0.921515  p :     2.755368
      px      :     0.918466
      py      :     0.915387
      dz2     :     0.162257  d :     0.726259
      dxz     :     0.139136
      dyz     :     0.120439
      dx2y2   :     0.118889
      dxy     :     0.185538
      f0      :     0.005470  f :     0.040073
      f+1     :     0.006662
      f-1     :     0.005131
      f+2     :     0.005823
      f-2     :     0.004794
      f+3     :     0.005009
      f-3     :     0.007184
  3 C s       :     2.714289  s :     2.714289
      pz      :     0.896080  p :     2.772564
      px      :     0.908836
      py      :     0.967649
      dz2     :     0.115811  d :     0.693143
      dxz     :     0.145904
      dyz     :     0.106863
      dx2y2   :     0.138699
      dxy     :     0.185867
      f0      :     0.003599  f :     0.032825
      f+1     :     0.005057
      f-1     :     0.003024
      f+2     :     0.006155
      f-2     :     0.003550
      f+3     :     0.004930
      f-3     :     0.006511
  4 H s       :     0.665837  s :     0.665837
      pz      :     0.061349  p :     0.229065
      px      :     0.088905
      py      :     0.078811
  5 H s       :     0.676392  s :     0.676392
      pz      :     0.093066  p :     0.212240
      px      :     0.065218
      py      :     0.053956
  6 S s       :     4.570373  s :     4.570373
      pz      :     2.707071  p :     8.281098
      px      :     2.782455
      py      :     2.791572
      dz2     :     0.361408  d :     2.158548
      dxz     :     0.449231
      dyz     :     0.391309
      dx2y2   :     0.481781
      dxy     :     0.474818
      f0      :     0.058811  f :     0.381684
      f+1     :     0.042430
      f-1     :     0.048045
      f+2     :     0.053106
      f-2     :     0.057327
      f+3     :     0.062658
      f-3     :     0.059308
  7 C s       :     2.590544  s :     2.590544
      pz      :     0.815036  p :     2.520230
      px      :     0.892512
      py      :     0.812681
      dz2     :     0.256610  d :     1.319371
      dxz     :     0.274469
      dyz     :     0.198028
      dx2y2   :     0.286291
      dxy     :     0.303973
      f0      :     0.014518  f :     0.118354
      f+1     :     0.013266
      f-1     :     0.015456
      f+2     :     0.014914
      f-2     :     0.018640
      f+3     :     0.024918
      f-3     :     0.016642
  8 N s       :     2.905400  s :     2.905400
      pz      :     1.332822  p :     3.587522
      px      :     1.106177
      py      :     1.148523
      dz2     :     0.030649  d :     0.382130
      dxz     :     0.085425
      dyz     :     0.041840
      dx2y2   :     0.122680
      dxy     :     0.101535
      f0      :     0.001874  f :     0.011235
      f+1     :     0.001232
      f-1     :     0.000389
      f+2     :     0.001502
      f-2     :     0.001808
      f+3     :     0.002462
      f-3     :     0.001968
  9 C s       :     2.691994  s :     2.691994
      pz      :     0.948331  p :     2.829949
      px      :     0.950433
      py      :     0.931185
      dz2     :     0.075512  d :     0.418940
      dxz     :     0.081281
      dyz     :     0.073867
      dx2y2   :     0.117555
      dxy     :     0.070726
      f0      :     0.003309  f :     0.032618
      f+1     :     0.006396
      f-1     :     0.002451
      f+2     :     0.005944
      f-2     :     0.006059
      f+3     :     0.004787
      f-3     :     0.003672
 10 H s       :     0.656431  s :     0.656431
      pz      :     0.093959  p :     0.375704
      px      :     0.174841
      py      :     0.106904
 11 H s       :     0.721722  s :     0.721722
      pz      :     0.090144  p :     0.253891
      px      :     0.061508
      py      :     0.102239
 12 H s       :     0.609966  s :     0.609966
      pz      :     0.093955  p :     0.250908
      px      :     0.092081
      py      :     0.064872
 13 H s       :     0.636031  s :     0.636031
      pz      :     0.096962  p :     0.269974
      px      :     0.095205
      py      :     0.077806
 14 H s       :     0.626900  s :     0.626900
      pz      :     0.099720  p :     0.268840
      px      :     0.059643
      py      :     0.109477
 15 O s       :     3.484045  s :     3.484045
      pz      :     1.509610  p :     4.526565
      px      :     1.552039
      py      :     1.464916
      dz2     :     0.031856  d :     0.245777
      dxz     :     0.014262
      dyz     :     0.057036
      dx2y2   :     0.070067
      dxy     :     0.072556
      f0      :     0.000407  f :     0.004796
      f+1     :     0.000116
      f-1     :     0.000857
      f+2     :     0.000576
      f-2     :     0.000260
      f+3     :     0.001296
      f-3     :     0.001284
 16 O s       :     3.479786  s :     3.479786
      pz      :     1.508885  p :     4.528477
      px      :     1.501847
      py      :     1.517744
      dz2     :     0.033393  d :     0.249001
      dxz     :     0.043057
      dyz     :     0.030642
      dx2y2   :     0.066959
      dxy     :     0.074949
      f0      :     0.000446  f :     0.004800
      f+1     :     0.000477
      f-1     :     0.000424
      f+2     :     0.000165
      f-2     :     0.000847
      f+3     :     0.001151
      f-3     :     0.001289
 17 F s       :     3.595439  s :     3.595439
      pz      :     1.657750  p :     5.211013
      px      :     1.760822
      py      :     1.792441
      dz2     :     0.091061  d :     0.316519
      dxz     :     0.077697
      dyz     :     0.049597
      dx2y2   :     0.049295
      dxy     :     0.048869
      f0      :     0.000391  f :     0.001802
      f+1     :     0.000627
      f-1     :     0.000257
      f+2     :     0.000206
      f-2     :     0.000216
      f+3     :     0.000043
      f-3     :     0.000062
 18 H s       :     0.671681  s :     0.671681
      pz      :     0.052474  p :     0.216586
      px      :     0.090305
      py      :     0.073807
 19 H s       :     0.683276  s :     0.683276
      pz      :     0.082277  p :     0.201465
      px      :     0.068251
      py      :     0.050937
 20 H s       :     0.652672  s :     0.652672
      pz      :     0.092902  p :     0.238202
      px      :     0.071711
      py      :     0.073589
 21 H s       :     0.688546  s :     0.688546
      pz      :     0.049456  p :     0.192316
      px      :     0.053462
      py      :     0.089398


                      *****************************
                      * MAYER POPULATION ANALYSIS *
                      *****************************

  NA   - Mulliken gross atomic population
  ZA   - Total nuclear charge
  QA   - Mulliken gross atomic charge
  VA   - Mayer's total valence
  BVA  - Mayer's bonded valence
  FA   - Mayer's free valence

  ATOM       NA         ZA         QA         VA         BVA        FA
  0 C      6.6344     6.0000    -0.6344     3.5502     3.5502    -0.0000
  1 N      7.1955     7.0000    -0.1955     3.1071     3.1071    -0.0000
  2 C      6.4448     6.0000    -0.4448     3.9240     3.9240    -0.0000
  3 C      6.4798     6.0000    -0.4798     4.0128     4.0128    -0.0000
  4 H      0.6975     1.0000     0.3025     0.9675     0.9675    -0.0000
  5 H      0.7007     1.0000     0.2993     0.8608     0.8608    -0.0000
  6 S     14.8151    16.0000     1.1849     5.2581     5.2581    -0.0000
  7 C      5.0477     6.0000     0.9523     2.6002     2.6002    -0.0000
  8 N      7.3720     7.0000    -0.3720     3.1931     3.1931    -0.0000
  9 C      7.5469     6.0000    -1.5469     3.3954     3.3954     0.0000
 10 H      0.5021     1.0000     0.4979     0.5995     0.5995     0.0000
 11 H      0.7782     1.0000     0.2218     1.1084     1.1084     0.0000
 12 H      0.8173     1.0000     0.1827     0.9999     0.9999     0.0000
 13 H      0.8632     1.0000     0.1368     1.0486     1.0486    -0.0000
 14 H      0.8482     1.0000     0.1518     1.0146     1.0146     0.0000
 15 O      8.5973     8.0000    -0.5973     1.8876     1.8876     0.0000
 16 O      8.5875     8.0000    -0.5875     1.8678     1.8678    -0.0000
 17 F      9.1821     9.0000    -0.1821     1.0537     1.0537     0.0000
 18 H      0.7509     1.0000     0.2491     0.9982     0.9982    -0.0000
 19 H      0.7323     1.0000     0.2677     0.8819     0.8819    -0.0000
 20 H      0.6255     1.0000     0.3745     0.8554     0.8554    -0.0000
 21 H      0.7810     1.0000     0.2190     1.0298     1.0298    -0.0000

  Mayer bond orders larger than 0.100000
B(  0-C ,  1-N ) :   0.9246 B(  0-C ,  2-C ) :   0.8111 B(  0-C , 20-H ) :   0.8261 
B(  0-C , 21-H ) :   0.9899 B(  1-N ,  7-C ) :   1.0418 B(  1-N , 12-H ) :   0.9657 
B(  2-C ,  3-C ) :   1.0473 B(  2-C ,  6-S ) :   0.1495 B(  2-C , 18-H ) :   0.9935 
B(  2-C , 19-H ) :   0.8936 B(  3-C ,  4-H ) :   0.9205 B(  3-C ,  5-H ) :   0.9164 
B(  3-C ,  6-S ) :   0.7716 B(  3-C , 15-O ) :   0.1239 B(  6-S , 15-O ) :   1.6107 
B(  6-S , 16-O ) :   1.6318 B(  6-S , 17-F ) :   1.0407 B(  7-C ,  8-N ) :   0.8921 
B(  7-C ,  9-C ) :   0.9338 B(  7-C , 11-H ) :  -0.1538 B(  8-N , 13-H ) :   1.0429 
B(  8-N , 14-H ) :   1.0227 B(  9-C , 10-H ) :   0.8644 B(  9-C , 11-H ) :   1.1852 
B(  9-C , 17-F ) :   0.1455 B( 10-H , 17-F ) :  -0.2902 

-------
TIMINGS
-------

Total SCF time: 0 days 0 hours 3 min 24 sec 

Total time                  ....     204.994 sec
Sum of individual times     ....     204.145 sec  ( 99.6%)

Fock matrix formation       ....     198.468 sec  ( 96.8%)
  Split-RI-J                ....      13.582 sec  (  6.8% of F)
  Chain of spheres X        ....     158.964 sec  ( 80.1% of F)
  XC integration            ....      24.911 sec  ( 12.6% of F)
    Basis function eval.    ....       5.641 sec  ( 22.6% of XC)
    Density eval.           ....       8.331 sec  ( 33.4% of XC)
    XC-Functional eval.     ....       0.478 sec  (  1.9% of XC)
    XC-Potential eval.      ....       9.448 sec  ( 37.9% of XC)
Diagonalization             ....       0.680 sec  (  0.3%)
Density matrix formation    ....       0.056 sec  (  0.0%)
Population analysis         ....       0.084 sec  (  0.0%)
Initial guess               ....       1.037 sec  (  0.5%)
Orbital Transformation      ....       0.000 sec  (  0.0%)
Orbital Orthonormalization  ....       0.000 sec  (  0.0%)
DIIS solution               ....       0.376 sec  (  0.2%)
SOSCF solution              ....       0.650 sec  (  0.3%)
Grid generation             ....       2.794 sec  (  1.4%)

Maximum memory used throughout the entire SCF-calculation: 116.0 MB


-------------------------------------------------------------------------------
                          DFT DISPERSION CORRECTION                            
                                                                               
                              DFTD3 V3.1  Rev 1                                
                          USING Becke-Johnson damping                          
-------------------------------------------------------------------------------
The B3LYP functional is recognized
Active option DFTDOPT                   ...         4   

molecular C6(AA) [au] = 4999.457741 


            DFT-D V3
 parameters
 s6 scaling factor         :     1.0000 
 a1 scaling factor         :     0.3981 
 s8 scaling factor         :     1.9889 
 a2 scaling factor         :     4.4211 
 ad hoc parameters k1-k3   :    16.0000     1.3333    -4.0000 

 Edisp/kcal,au: -26.273726523221  -0.041869843893 
 E6   /kcal   : -12.500227096 
 E8   /kcal   : -13.773499428 
 % E8         :  52.423090479 

-------------------------   ----------------
Dispersion correction           -0.041869844
-------------------------   ----------------


-------------------------   --------------------
FINAL SINGLE POINT ENERGY      -955.005127266568
-------------------------   --------------------


                            ***************************************
                            *     ORCA property calculations      *
                            ***************************************

                                    ---------------------
                                    Active property flags
                                    ---------------------
   (+) Dipole Moment


------------------------------------------------------------------------------
                       ORCA ELECTRIC PROPERTIES CALCULATION
------------------------------------------------------------------------------

Dipole Moment Calculation                       ... on
Quadrupole Moment Calculation                   ... off
Polarizability Calculation                      ... off
GBWName                                         ... 28Oct_TZVPD_B3LYP_D9_wb97.gbw
Electron density file                           ... 28Oct_TZVPD_B3LYP_D9_wb97.scfp
The origin for moment calculation is the CENTER OF MASS  = ( 4.339695,  0.804809 -6.598509)

-------------
DIPOLE MOMENT
-------------
                                X             Y             Z
Electronic contribution:    -12.65751      -2.64128      -2.43708
Nuclear contribution   :     14.72648       3.38697       3.27638
                        -----------------------------------------
Total Dipole Moment    :      2.06898       0.74568       0.83930
                        -----------------------------------------
Magnitude (a.u.)       :      2.35396
Magnitude (Debye)      :      5.98329



--------------------
Rotational spectrum 
--------------------
 
Rotational constants in cm-1:     0.059651     0.020833     0.018010 
Rotational constants in MHz :  1788.283887   624.555661   539.921162 

 Dipole components along the rotational axes: 
x,y,z [a.u.] :    -1.884218    -1.286164    -0.580201 
x,y,z [Debye]:    -4.789302    -3.269168    -1.474753 

 

Timings for individual modules:

Sum of individual times         ...      206.397 sec (=   3.440 min)
GTO integral calculation        ...        1.009 sec (=   0.017 min)   0.5 %
SCF iterations                  ...      205.388 sec (=   3.423 min)  99.5 %
                             ****ORCA TERMINATED NORMALLY****
TOTAL RUN TIME: 0 days 0 hours 3 minutes 27 seconds 117 msec
