
                                        *****************
                                        * O   R   C   A *
                                        *****************

                                            #,                                       
                                            ###                                      
                                            ####                                     
                                            #####                                    
                                            ######                                   
                                           ########,                                 
                                     ,,################,,,,,                         
                               ,,#################################,,                 
                          ,,##########################################,,             
                       ,#########################################, ''#####,          
                    ,#############################################,,   '####,        
                  ,##################################################,,,,####,       
                ,###########''''           ''''###############################       
              ,#####''   ,,,,##########,,,,          '''####'''          '####       
            ,##' ,,,,###########################,,,                        '##       
           ' ,,###''''                  '''############,,,                           
         ,,##''                                '''############,,,,        ,,,,,,###''
      ,#''                                            '''#######################'''  
     '                                                          ''''####''''         
             ,#######,   #######,   ,#######,      ##                                
            ,#'     '#,  ##    ##  ,#'     '#,    #''#        ######   ,####,        
            ##       ##  ##   ,#'  ##            #'  '#       #        #'  '#        
            ##       ##  #######   ##           ,######,      #####,   #    #        
            '#,     ,#'  ##    ##  '#,     ,#' ,#      #,         ##   #,  ,#        
             '#######'   ##     ##  '#######'  #'      '#     #####' # '####'        



                  #######################################################
                  #                        -***-                        #
                  #          Department of theory and spectroscopy      #
                  #    Directorship and core code : Frank Neese         #
                  #        Max Planck Institute fuer Kohlenforschung    #
                  #                Kaiser Wilhelm Platz 1               #
                  #                 D-45470 Muelheim/Ruhr               #
                  #                      Germany                        #
                  #                                                     #
                  #                  All rights reserved                #
                  #                        -***-                        #
                  #######################################################


                         Program Version 5.0.0 -  RELEASE  -
                                (SVN: $Rev: 19529$)
                ($Date: 2021-06-28 11:36:33 +0200 (Mo, 28 Jun 2021) $)


 With contributions from (in alphabetic order):
   Daniel Aravena         : Magnetic Suceptibility
   Michael Atanasov       : Ab Initio Ligand Field Theory (pilot matlab implementation)
   Alexander A. Auer      : GIAO ZORA, VPT2 properties, NMR spectrum
   Ute Becker             : Parallelization
   Giovanni Bistoni       : ED, misc. LED, open-shell LED, HFLD
   Martin Brehm           : Molecular dynamics
   Dmytro Bykov           : SCF Hessian
   Vijay G. Chilkuri      : MRCI spin determinant printing, contributions to CSF-ICE
   Dipayan Datta          : RHF DLPNO-CCSD density
   Achintya Kumar Dutta   : EOM-CC, STEOM-CC
   Dmitry Ganyushin       : Spin-Orbit,Spin-Spin,Magnetic field MRCI
   Miquel Garcia          : C-PCM Hessian, Gaussian charge scheme
   Yang Guo               : DLPNO-NEVPT2, F12-NEVPT2, CIM, IAO-localization
   Andreas Hansen         : Spin unrestricted coupled pair/coupled cluster methods
   Benjamin Helmich-Paris : MC-RPA, TRAH-SCF, COSX integrals
   Lee Huntington         : MR-EOM, pCC
   Robert Izsak           : Overlap fitted RIJCOSX, COSX-SCS-MP3, EOM
   Marcus Kettner         : VPT2
   Christian Kollmar      : KDIIS, OOCD, Brueckner-CCSD(T), CCSD density, CASPT2, CASPT2-K
   Simone Kossmann        : Meta GGA functionals, TD-DFT gradient, OOMP2, MP2 Hessian
   Martin Krupicka        : Initial AUTO-CI
   Lucas Lang             : DCDCAS
   Marvin Lechner         : AUTO-CI (C++ implementation), FIC-MRCC
   Dagmar Lenk            : GEPOL surface, SMD
   Dimitrios Liakos       : Extrapolation schemes; Compound Job, initial MDCI parallelization
   Dimitrios Manganas     : Further ROCIS development; embedding schemes
   Dimitrios Pantazis     : SARC Basis sets
   Anastasios Papadopoulos: AUTO-CI, single reference methods and gradients
   Taras Petrenko         : DFT Hessian,TD-DFT gradient, ASA, ECA, R-Raman, ABS, FL, XAS/XES, NRVS
   Peter Pinski           : DLPNO-MP2, DLPNO-MP2 Gradient
   Christoph Reimann      : Effective Core Potentials
   Marius Retegan         : Local ZFS, SOC
   Christoph Riplinger    : Optimizer, TS searches, QM/MM, DLPNO-CCSD(T), (RO)-DLPNO pert. Triples
   Tobias Risthaus        : Range-separated hybrids, TD-DFT gradient, RPA, STAB
   Michael Roemelt        : Original ROCIS implementation
   Masaaki Saitow         : Open-shell DLPNO-CCSD energy and density
   Barbara Sandhoefer     : DKH picture change effects
   Avijit Sen             : IP-ROCIS
   Kantharuban Sivalingam : CASSCF convergence, NEVPT2, FIC-MRCI
   Bernardo de Souza      : ESD, SOC TD-DFT
   Georgi Stoychev        : AutoAux, RI-MP2 NMR
   Willem Van den Heuvel  : Paramagnetic NMR
   Boris Wezisla          : Elementary symmetry handling
   Frank Wennmohs         : Technical directorship


 We gratefully acknowledge several colleagues who have allowed us to
 interface, adapt or use parts of their codes:
   Stefan Grimme, W. Hujo, H. Kruse, P. Pracht,  : VdW corrections, initial TS optimization,
                  C. Bannwarth, S. Ehlert          DFT functionals, gCP, sTDA/sTD-DF
   Ed Valeev, F. Pavosevic, A. Kumar             : LibInt (2-el integral package), F12 methods
   Garnet Chan, S. Sharma, J. Yang, R. Olivares  : DMRG
   Ulf Ekstrom                                   : XCFun DFT Library
   Mihaly Kallay                                 : mrcc  (arbitrary order and MRCC methods)
   Jiri Pittner, Ondrej Demel                    : Mk-CCSD
   Frank Weinhold                                : gennbo (NPA and NBO analysis)
   Christopher J. Cramer and Donald G. Truhlar   : smd solvation model
   Lars Goerigk                                  : TD-DFT with DH, B97 family of functionals
   V. Asgeirsson, H. Jonsson                     : NEB implementation
   FAccTs GmbH                                   : IRC, NEB, NEB-TS, DLPNO-Multilevel, CI-OPT
                                                   MM, QMMM, 2- and 3-layer-ONIOM, Crystal-QMMM,
                                                   LR-CPCM, SF, NACMEs, symmetry and pop. for TD-DFT,
                                                   nearIR, NL-DFT gradient (VV10), updates on ESD,
                                                   ML-optimized integration grids
   S Lehtola, MJT Oliveira, MAL Marques          : LibXC Library
   Liviu Ungur et al                             : ANISO software


 Your calculation uses the libint2 library for the computation of 2-el integrals
 For citations please refer to: http://libint.valeyev.net

 Your ORCA version has been built with support for libXC version: 5.1.0
 For citations please refer to: https://tddft.org/programs/libxc/

 This ORCA versions uses:
   CBLAS   interface :  Fast vector & matrix operations
   LAPACKE interface :  Fast linear algebra routines
   SCALAPACK package :  Parallel linear algebra routines
   Shared memory     :  Shared parallel matrices
   BLAS/LAPACK       :  OpenBLAS 0.3.15  USE64BITINT DYNAMIC_ARCH NO_AFFINITY Haswell SINGLE_THREADED
        Core in use  :  Haswell
   Copyright (c) 2011-2014, The OpenBLAS Project


Your calculation utilizes the atom-pairwise dispersion correction
with the Becke-Johnson damping scheme (D3BJ)
Cite in your paper:
S.Grimme, S.Ehrlich, L.Goerigk, J Comput Chem, (2011), 32, 1456–1465 
S.Grimme, J.Antony, S.Ehrlich and H.Krieg, J.Chem.Phys., 132, (2010), 154104 
   

================================================================================

----- Orbital basis set information -----
Your calculation utilizes the basis: def2-SVPD
   F. Weigend and R. Ahlrichs, Phys. Chem. Chem. Phys. 7, 3297 (2005).
   D. Rappoport and F. Furche, J. Chem. Phys. 133 134105 (2010).

----- AuxJ basis set information -----
Your calculation utilizes the auxiliary basis: def2/J
   F. Weigend, Phys. Chem. Chem. Phys. 8, 1057 (2006).

================================================================================
                                        WARNINGS
                       Please study these warnings very carefully!
================================================================================



WARNING: Found flag for RIJCOSX approximation but no HF exchange needed!
  ===> : RIJCOSX  will be disabled and Split-RI-J is turned on

INFO   : the flag for use of the SHARK integral package has been found!

================================================================================
                                       INPUT FILE
================================================================================
NAME = 14Feb_SVPD_PBE_C2_wt_wb97_typ1_neg.com
|  1> !PBE D3BJ RIJCOSX def2-SVPD def2/J TightSCF 
|  2> *xyz 0 1
|  3> C          3.38093        2.08304       -3.35013
|  4> C          2.49556        1.81615       -2.13636
|  5> C          1.87218        0.42790       -2.07750
|  6> H          2.61427       -0.36583       -2.19889
|  7> H          1.38995        0.27309       -1.11236
|  8> S          0.57902        0.14047       -3.29794
|  9> O          0.22886       -1.24687       -3.12787
| 10> F         -0.43927        1.11897       -3.01455
| 11> O          1.24788        0.40347       -4.59565
| 12> H          1.69700        2.56197       -2.14111
| 13> H          3.08079        1.98744       -1.22584
| 14> H          2.81820        1.91840       -4.24519
| 15> H          4.22171        1.42153       -3.33067
| 16> H          3.72372        3.09635       -3.32565
| 17> *
| 18> 
| 19> %MaxCore 64000
| 20> 
| 21> %pal nprocs 8
| 22> end  
| 23> 
| 24> %scf
| 25>   MaxIter 150
| 26> end
| 27> 
| 28> 
| 29>                          ****END OF INPUT****
================================================================================

                       ****************************
                       * Single Point Calculation *
                       ****************************

---------------------------------
CARTESIAN COORDINATES (ANGSTROEM)
---------------------------------
  C      3.380930    2.083040   -3.350130
  C      2.495560    1.816150   -2.136360
  C      1.872180    0.427900   -2.077500
  H      2.614270   -0.365830   -2.198890
  H      1.389950    0.273090   -1.112360
  S      0.579020    0.140470   -3.297940
  O      0.228860   -1.246870   -3.127870
  F     -0.439270    1.118970   -3.014550
  O      1.247880    0.403470   -4.595650
  H      1.697000    2.561970   -2.141110
  H      3.080790    1.987440   -1.225840
  H      2.818200    1.918400   -4.245190
  H      4.221710    1.421530   -3.330670
  H      3.723720    3.096350   -3.325650

----------------------------
CARTESIAN COORDINATES (A.U.)
----------------------------
  NO LB      ZA    FRAG     MASS         X           Y           Z
   0 C     6.0000    0    12.011    6.389032    3.936375   -6.330828
   1 C     6.0000    0    12.011    4.715925    3.432026   -4.037135
   2 C     6.0000    0    12.011    3.537907    0.808614   -3.925906
   3 H     1.0000    0     1.008    4.940254   -0.691319   -4.155300
   4 H     1.0000    0     1.008    2.626625    0.516065   -2.102056
   5 S    16.0000    0    32.060    1.094189    0.265450   -6.232203
   6 O     8.0000    0    15.999    0.432483   -2.356243   -5.910818
   7 F     9.0000    0    18.998   -0.830100    2.114547   -5.696674
   8 O     8.0000    0    15.999    2.358151    0.762448   -8.684520
   9 H     1.0000    0     1.008    3.206865    4.841422   -4.046112
  10 H     1.0000    0     1.008    5.821849    3.755717   -2.316502
  11 H     1.0000    0     1.008    5.325626    3.625251   -8.022246
  12 H     1.0000    0     1.008    7.977876    2.686302   -6.294054
  13 H     1.0000    0     1.008    7.036811    5.851254   -6.284568

--------------------------------
INTERNAL COORDINATES (ANGSTROEM)
--------------------------------
 C      0   0   0     0.000000000000     0.00000000     0.00000000
 C      1   0   0     1.525892500113     0.00000000     0.00000000
 C      2   1   0     1.522926520388   115.32102348     0.00000000
 H      3   2   1     1.093361977160   112.31154333    51.76687327
 H      3   2   1     1.089957397608   110.16934889   171.17339555
 S      3   2   1     1.801208645355   114.40296888   289.23503964
 O      6   3   2     1.440919187914   104.36734258   175.27794274
 F      6   3   2     1.440377265233   105.41688411   299.48593912
 O      6   3   2     1.483439902288   103.92992138    57.15078243
 H      2   1   3     1.092688477335   107.52988763   238.36965466
 H      2   1   3     1.095847200754   108.88784179   123.12940306
 H      1   2   3     1.070001769204   109.47107379    56.87092542
 H      1   2   3     1.069993074791   109.47120393   296.87053825
 H      1   2   3     1.070000659159   109.47084364   176.87102360

---------------------------
INTERNAL COORDINATES (A.U.)
---------------------------
 C      0   0   0     0.000000000000     0.00000000     0.00000000
 C      1   0   0     2.883518935017     0.00000000     0.00000000
 C      2   1   0     2.877914045618   115.32102348     0.00000000
 H      3   2   1     2.066154702076   112.31154333    51.76687327
 H      3   2   1     2.059720979120   110.16934889   171.17339555
 S      3   2   1     3.403791049771   114.40296888   289.23503964
 O      6   3   2     2.722942646270   104.36734258   175.27794274
 F      6   3   2     2.721918560817   105.41688411   299.48593912
 O      6   3   2     2.803295151455   103.92992138    57.15078243
 H      2   1   3     2.064881971854   107.52988763   238.36965466
 H      2   1   3     2.070851094049   108.88784179   123.12940306
 H      1   2   3     2.022010306607   109.47107379    56.87092542
 H      1   2   3     2.021993876547   109.47120393   296.87053825
 H      1   2   3     2.022008208925   109.47084364   176.87102360

---------------------
BASIS SET INFORMATION
---------------------
There are 5 groups of distinct atoms

 Group   1 Type C   : 8s4p2d contracted to 4s2p2d pattern {5111/31/11}
 Group   2 Type H   : 4s2p contracted to 2s2p pattern {31/11}
 Group   3 Type S   : 11s8p2d contracted to 5s4p2d pattern {53111/5111/11}
 Group   4 Type O   : 8s5p2d contracted to 4s3p2d pattern {5111/311/11}
 Group   5 Type F   : 8s5p2d contracted to 4s3p2d pattern {5111/311/11}

Atom   0C    basis set group =>   1
Atom   1C    basis set group =>   1
Atom   2C    basis set group =>   1
Atom   3H    basis set group =>   2
Atom   4H    basis set group =>   2
Atom   5S    basis set group =>   3
Atom   6O    basis set group =>   4
Atom   7F    basis set group =>   5
Atom   8O    basis set group =>   4
Atom   9H    basis set group =>   2
Atom  10H    basis set group =>   2
Atom  11H    basis set group =>   2
Atom  12H    basis set group =>   2
Atom  13H    basis set group =>   2
---------------------------------
AUXILIARY/J BASIS SET INFORMATION
---------------------------------
There are 5 groups of distinct atoms

 Group   1 Type C   : 12s5p4d2f1g contracted to 6s4p3d1f1g pattern {711111/2111/211/2/1}
 Group   2 Type H   : 5s2p1d contracted to 3s1p1d pattern {311/2/1}
 Group   3 Type S   : 14s5p5d2f1g contracted to 8s4p3d1f1g pattern {71111111/2111/311/2/1}
 Group   4 Type O   : 12s5p4d2f1g contracted to 6s4p3d1f1g pattern {711111/2111/211/2/1}
 Group   5 Type F   : 12s5p4d2f1g contracted to 6s4p3d1f1g pattern {711111/2111/211/2/1}

Atom   0C    basis set group =>   1
Atom   1C    basis set group =>   1
Atom   2C    basis set group =>   1
Atom   3H    basis set group =>   2
Atom   4H    basis set group =>   2
Atom   5S    basis set group =>   3
Atom   6O    basis set group =>   4
Atom   7F    basis set group =>   5
Atom   8O    basis set group =>   4
Atom   9H    basis set group =>   2
Atom  10H    basis set group =>   2
Atom  11H    basis set group =>   2
Atom  12H    basis set group =>   2
Atom  13H    basis set group =>   2


           ************************************************************
           *        Program running with 8 parallel MPI-processes     *
           *              working on a common directory               *
           ************************************************************
------------------------------------------------------------------------------
                           ORCA GTO INTEGRAL CALCULATION
                           -- RI-GTO INTEGRALS CHOSEN --
------------------------------------------------------------------------------
------------------------------------------------------------------------------
                   ___                                                        
                  /   \      - P O W E R E D   B Y -                         
                 /     \                                                     
                 |  |  |   _    _      __       _____    __    __             
                 |  |  |  | |  | |    /  \     |  _  \  |  |  /  |          
                  \  \/   | |  | |   /    \    | | | |  |  | /  /          
                 / \  \   | |__| |  /  /\  \   | |_| |  |  |/  /          
                |  |  |   |  __  | /  /__\  \  |    /   |      \           
                |  |  |   | |  | | |   __   |  |    \   |  |\   \          
                \     /   | |  | | |  |  |  |  | |\  \  |  | \   \       
                 \___/    |_|  |_| |__|  |__|  |_| \__\ |__|  \__/        
                                                                              
                      - O R C A' S   B I G   F R I E N D -                    
                                      &                                       
                       - I N T E G R A L  F E E D E R -                       
                                                                              
 v1 FN, 2020, v2 2021                                                         
------------------------------------------------------------------------------


Reading SHARK input file 14Feb_SVPD_PBE_C2_wt_wb97_typ1_neg.SHARKINP.tmp ... ok
----------------------
SHARK INTEGRAL PACKAGE
----------------------

Number of atoms                             ...     14
Number of basis functions                   ...    212
Number of shells                            ...     90
Maximum angular momentum                    ...      2
Integral batch strategy                     ... SHARK/LIBINT Hybrid
RI-J (if used) integral strategy            ... SPLIT-RIJ (Revised 2003 algorithm where possible)
Printlevel                                  ...      1
Contraction scheme used                     ... SEGMENTED contraction
Coulomb Range Separation                    ... NOT USED
Exchange Range Separation                   ... NOT USED
Finite Nucleus Model                        ... NOT USED
Auxiliary Coulomb fitting basis             ... AVAILABLE
   # of basis functions in Aux-J            ...    422
   # of shells in Aux-J                     ...    142
   Maximum angular momentum in Aux-J        ...      4
Auxiliary J/K fitting basis                 ... NOT available
Auxiliary Correlation fitting basis         ... NOT available
Auxiliary 'external' fitting basis          ... NOT available
Integral threshold                          ...     2.500000e-11
Primitive cut-off                           ...     2.500000e-12
Primitive pair pre-selection threshold      ...     2.500000e-12

Calculating pre-screening integrals         ... done (  0.0 sec) Dimension = 90
Organizing shell pair data                  ... done (  0.0 sec)
Shell pair information
Total number of shell pairs                 ...      4095
Shell pairs after pre-screening             ...      3994
Total number of primitive shell pairs       ...     11447
Primitive shell pairs kept                  ...      9095
          la=0 lb=0:    910 shell pairs
          la=1 lb=0:   1380 shell pairs
          la=1 lb=1:    553 shell pairs
          la=2 lb=0:    591 shell pairs
          la=2 lb=1:    456 shell pairs
          la=2 lb=2:    104 shell pairs

Calculating one electron integrals          ... done (  0.0 sec)
Calculating RI/J V-Matrix + Cholesky decomp.... done (  0.0 sec)
Calculating Nuclear repulsion               ... done (  0.0 sec) ENN=    449.189401281075 Eh

SHARK setup successfully completed in   0.2 seconds

Maximum memory used throughout the entire GTOINT-calculation: 8.9 MB


           ************************************************************
           *        Program running with 8 parallel MPI-processes     *
           *              working on a common directory               *
           ************************************************************
-------------------------------------------------------------------------------
                                 ORCA SCF
-------------------------------------------------------------------------------

------------
SCF SETTINGS
------------
Hamiltonian:
 Density Functional     Method          .... DFT(GTOs)
 Exchange Functional    Exchange        .... PBE
   PBE kappa parameter   XKappa         ....  0.804000
   PBE mue parameter    XMuePBE         ....  0.219520
 Correlation Functional Correlation     .... PBE
   PBE beta parameter  CBetaPBE         ....  0.066725
 LDA part of GGA corr.  LDAOpt          .... PW91-LDA
 Gradients option       PostSCFGGA      .... off
   Density functional embedding theory  .... OFF
   NL short-range parameter             ....  6.400000
 RI-approximation to the Coulomb term is turned on
   Number of AuxJ basis functions       .... 422


General Settings:
 Integral files         IntName         .... 14Feb_SVPD_PBE_C2_wt_wb97_typ1_neg
 Hartree-Fock type      HFTyp           .... RHF
 Total Charge           Charge          ....    0
 Multiplicity           Mult            ....    1
 Number of Electrons    NEL             ....   66
 Basis Dimension        Dim             ....  212
 Nuclear Repulsion      ENuc            ....    449.1894012811 Eh

Convergence Acceleration:
 DIIS                   CNVDIIS         .... on
   Start iteration      DIISMaxIt       ....    12
   Startup error        DIISStart       ....  0.200000
   # of expansion vecs  DIISMaxEq       ....     5
   Bias factor          DIISBfac        ....   1.050
   Max. coefficient     DIISMaxC        ....  10.000
 Trust-Rad. Augm. Hess. CNVTRAH         .... auto
   Auto Start mean grad. ratio tolernc. ....  1.125000
   Auto Start start iteration           ....    20
   Auto Start num. interpolation iter.  ....    10
   Max. Number of Micro iterations      ....    16
   Max. Number of Macro iterations      .... Maxiter - #DIIS iter
   Number of Davidson start vectors     ....     2
   Converg. threshold I  (grad. norm)   ....   1.000e-05
   Converg. threshold II (energy diff.) ....   1.000e-08
   Grad. Scal. Fac. for Micro threshold ....   0.100
   Minimum threshold for Micro iter.    ....   0.010
   NR start threshold (gradient norm)   ....   0.001
   Initial trust radius                 ....   0.400
   Minimum AH scaling param. (alpha)    ....   1.000
   Maximum AH scaling param. (alpha)    .... 1000.000
   Orbital update algorithm             .... Taylor
   White noise on init. David. guess    .... on
   Maximum white noise                  ....   0.010
   Quad. conv. algorithm                .... NR
 SOSCF                  CNVSOSCF        .... on
   Start iteration      SOSCFMaxIt      ....   150
   Startup grad/error   SOSCFStart      ....  0.003300
 Level Shifting         CNVShift        .... on
   Level shift para.    LevelShift      ....    0.2500
   Turn off err/grad.   ShiftErr        ....    0.0010
 Zerner damping         CNVZerner       .... off
 Static damping         CNVDamp         .... on
   Fraction old density DampFac         ....    0.7000
   Max. Damping (<1)    DampMax         ....    0.9800
   Min. Damping (>=0)   DampMin         ....    0.0000
   Turn off err/grad.   DampErr         ....    0.1000
 Fernandez-Rico         CNVRico         .... off

SCF Procedure:
 Maximum # iterations   MaxIter         ....   150
 SCF integral mode      SCFMode         .... Direct
   Integral package                     .... SHARK and LIBINT hybrid scheme
 Reset frequency        DirectResetFreq ....    20
 Integral Threshold     Thresh          ....  2.500e-11 Eh
 Primitive CutOff       TCut            ....  2.500e-12 Eh

Convergence Tolerance:
 Convergence Check Mode ConvCheckMode   .... Total+1el-Energy
 Convergence forced     ConvForced      .... 0
 Energy Change          TolE            ....  1.000e-08 Eh
 1-El. energy change                    ....  1.000e-05 Eh
 Orbital Gradient       TolG            ....  1.000e-05
 Orbital Rotation angle TolX            ....  1.000e-05
 DIIS Error             TolErr          ....  5.000e-07


Diagonalization of the overlap matrix:
Smallest eigenvalue                        ... 1.567e-04
Time for diagonalization                   ...    0.011 sec
Threshold for overlap eigenvalues          ... 1.000e-08
Number of eigenvalues below threshold      ... 0
Time for construction of square roots      ...    0.009 sec
Total time needed                          ...    0.021 sec

Time for model grid setup =    0.073 sec

------------------------------
INITIAL GUESS: MODEL POTENTIAL
------------------------------
Loading Hartree-Fock densities                     ... done
Calculating cut-offs                               ... done
Initializing the effective Hamiltonian             ... done
Setting up the integral package (SHARK)            ... done
Starting the Coulomb interaction                   ... done (   0.0 sec)
Reading the grid                                   ... done
Mapping shells                                     ... done
Starting the XC term evaluation                    ... done (   0.1 sec)
  promolecular density results
     # of electrons  =     65.997426621
     EX              =    -68.771104291
     EC              =     -2.329242047
     EX+EC           =    -71.100346338
Transforming the Hamiltonian                       ... done (   0.0 sec)
Diagonalizing the Hamiltonian                      ... done (   0.0 sec)
Back transforming the eigenvectors                 ... done (   0.0 sec)
Now organizing SCF variables                       ... done
                      ------------------
                      INITIAL GUESS DONE (   0.2 sec)
                      ------------------
-------------------
DFT GRID GENERATION
-------------------

General Integration Accuracy     IntAcc      ... 4.388
Radial Grid Type                 RadialGrid  ... OptM3 with GC (2021)
Angular Grid (max. ang.)         AngularGrid ... 4 (Lebedev-302)
Angular grid pruning method      GridPruning ... 4 (adaptive)
Weight generation scheme         WeightScheme... Becke
Basis function cutoff            BFCut       ... 1.0000e-11
Integration weight cutoff        WCut        ... 1.0000e-14
Angular grids for H and He will be reduced by one unit
Partially contracted basis set               ... off
Rotationally invariant grid construction     ... off

Total number of grid points                  ...    68628
Total number of batches                      ...     1080
Average number of points per batch           ...       63
Average number of grid points per atom       ...     4902
Time for grid setup =    0.390 sec

--------------
SCF ITERATIONS
--------------
ITER       Energy         Delta-E        Max-DP      RMS-DP      [F,P]     Damp
               ***  Starting incremental Fock matrix formation  ***
  0   -765.6050979814   0.000000000000 0.26653679  0.00381640  0.2780950 0.7000
  1   -765.8008679604  -0.195769978987 0.09216272  0.00183821  0.0804546 0.7000
                               ***Turning on DIIS***
  2   -765.8452855664  -0.044417606031 0.08456202  0.00208959  0.0295462 0.0000
  3   -765.9630112172  -0.117725650735 0.05377011  0.00122684  0.0510642 0.0000
  4   -765.9721985067  -0.009187289502 0.03059139  0.00048995  0.0383663 0.0000
  5   -765.9769771860  -0.004778679311 0.00733884  0.00018698  0.0060755 0.0000
  6   -765.9772429803  -0.000265794358 0.00199320  0.00006529  0.0039158 0.0000
                      *** Initiating the SOSCF procedure ***
                           *** Shutting down DIIS ***
                      *** Re-Reading the Fockian *** 
                      *** Removing any level shift *** 
ITER      Energy       Delta-E        Grad      Rot      Max-DP    RMS-DP
  7   -765.97729159  -0.0000486063  0.000140  0.000140  0.001085  0.000037
               *** Restarting incremental Fock matrix formation ***
  8   -765.97729321  -0.0000016257  0.000198  0.000359  0.001246  0.000025
  9   -765.97728882   0.0000043923  0.000402  0.000290  0.000787  0.000017
 10   -765.97729420  -0.0000053751  0.000048  0.000142  0.000426  0.000009
 11   -765.97729359   0.0000006057  0.000112  0.000107  0.000279  0.000006
 12   -765.97729433  -0.0000007426  0.000012  0.000035  0.000121  0.000002
 13   -765.97729430   0.0000000362  0.000030  0.000028  0.000089  0.000002
 14   -765.97729434  -0.0000000455  0.000004  0.000007  0.000046  0.000001
 15   -765.97729434   0.0000000036  0.000006  0.000004  0.000027  0.000001
                  ***Gradient check signals convergence***
              ***Rediagonalizing the Fockian in SOSCF/NRSCF***

               *****************************************************
               *                     SUCCESS                       *
               *           SCF CONVERGED AFTER  16 CYCLES          *
               *****************************************************


----------------
TOTAL SCF ENERGY
----------------

Total Energy       :         -765.97729434 Eh          -20843.30183 eV

Components:
Nuclear Repulsion  :          449.18940128 Eh           12223.06502 eV
Electronic Energy  :        -1215.16669562 Eh          -33066.36685 eV
One Electron Energy:        -1944.49850214 Eh          -52912.49426 eV
Two Electron Energy:          729.33180652 Eh           19846.12741 eV

Virial components:
Potential Energy   :        -1528.14347762 Eh          -41582.89806 eV
Kinetic Energy     :          762.16618328 Eh           20739.59623 eV
Virial Ratio       :            2.00500037


DFT components:
N(Alpha)           :       33.000074351851 electrons
N(Beta)            :       33.000074351851 electrons
N(Total)           :       66.000148703702 electrons
E(X)               :      -69.397810052084 Eh       
E(C)               :       -2.331126005432 Eh       
E(XC)              :      -71.728936057516 Eh       
DFET-embed. en.    :        0.000000000000 Eh       

---------------
SCF CONVERGENCE
---------------

  Last Energy change         ...   -4.2463e-09  Tolerance :   1.0000e-08
  Last MAX-Density change    ...    4.6285e-06  Tolerance :   1.0000e-07
  Last RMS-Density change    ...    1.4169e-07  Tolerance :   5.0000e-09
  Last Orbital Gradient      ...    2.4745e-07  Tolerance :   1.0000e-05
  Last Orbital Rotation      ...    5.5830e-07  Tolerance :   1.0000e-05

             **** THE GBW FILE WAS UPDATED (14Feb_SVPD_PBE_C2_wt_wb97_typ1_neg.gbw) ****
             **** DENSITY 14Feb_SVPD_PBE_C2_wt_wb97_typ1_neg.scfp WAS UPDATED ****
             **** ENERGY FILE WAS UPDATED (14Feb_SVPD_PBE_C2_wt_wb97_typ1_neg.en.tmp) ****
             **** THE GBW FILE WAS UPDATED (14Feb_SVPD_PBE_C2_wt_wb97_typ1_neg.gbw) ****
             **** DENSITY 14Feb_SVPD_PBE_C2_wt_wb97_typ1_neg.scfp WAS UPDATED ****
----------------
ORBITAL ENERGIES
----------------

  NO   OCC          E(Eh)            E(eV) 
   0   2.0000     -88.310708     -2403.0565 
   1   2.0000     -24.390788      -663.7071 
   2   2.0000     -18.779947      -511.0283 
   3   2.0000     -18.766770      -510.6698 
   4   2.0000      -9.953259      -270.8420 
   5   2.0000      -9.924736      -270.0658 
   6   2.0000      -9.885786      -269.0059 
   7   2.0000      -7.915792      -215.3996 
   8   2.0000      -5.947151      -161.8302 
   9   2.0000      -5.940570      -161.6511 
  10   2.0000      -5.938870      -161.6049 
  11   2.0000      -1.274579       -34.6830 
  12   2.0000      -1.021041       -27.7839 
  13   2.0000      -0.920982       -25.0612 
  14   2.0000      -0.754937       -20.5429 
  15   2.0000      -0.682666       -18.5763 
  16   2.0000      -0.643848       -17.5200 
  17   2.0000      -0.569760       -15.5040 
  18   2.0000      -0.534140       -14.5347 
  19   2.0000      -0.523972       -14.2580 
  20   2.0000      -0.491772       -13.3818 
  21   2.0000      -0.439927       -11.9710 
  22   2.0000      -0.437740       -11.9115 
  23   2.0000      -0.409527       -11.1438 
  24   2.0000      -0.398158       -10.8344 
  25   2.0000      -0.386740       -10.5237 
  26   2.0000      -0.344464        -9.3733 
  27   2.0000      -0.333857        -9.0847 
  28   2.0000      -0.331221        -9.0130 
  29   2.0000      -0.317888        -8.6502 
  30   2.0000      -0.291719        -7.9381 
  31   2.0000      -0.274820        -7.4782 
  32   2.0000      -0.261823        -7.1246 
  33   0.0000      -0.032506        -0.8845 
  34   0.0000      -0.000809        -0.0220 
  35   0.0000       0.010742         0.2923 
  36   0.0000       0.017986         0.4894 
  37   0.0000       0.020184         0.5492 
  38   0.0000       0.038482         1.0471 
  39   0.0000       0.042504         1.1566 
  40   0.0000       0.054823         1.4918 
  41   0.0000       0.059724         1.6252 
  42   0.0000       0.063850         1.7375 
  43   0.0000       0.080406         2.1879 
  44   0.0000       0.085969         2.3393 
  45   0.0000       0.093392         2.5413 
  46   0.0000       0.102917         2.8005 
  47   0.0000       0.117524         3.1980 
  48   0.0000       0.121032         3.2935 
  49   0.0000       0.124364         3.3841 
  50   0.0000       0.135142         3.6774 
  51   0.0000       0.142419         3.8754 
  52   0.0000       0.144012         3.9188 
  53   0.0000       0.161981         4.4077 
  54   0.0000       0.166943         4.5428 
  55   0.0000       0.172320         4.6891 
  56   0.0000       0.189898         5.1674 
  57   0.0000       0.194497         5.2925 
  58   0.0000       0.205812         5.6004 
  59   0.0000       0.219024         5.9600 
  60   0.0000       0.226989         6.1767 
  61   0.0000       0.230454         6.2710 
  62   0.0000       0.238908         6.5010 
  63   0.0000       0.246010         6.6943 
  64   0.0000       0.252037         6.8583 
  65   0.0000       0.265976         7.2376 
  66   0.0000       0.271840         7.3972 
  67   0.0000       0.279380         7.6023 
  68   0.0000       0.284988         7.7549 
  69   0.0000       0.285795         7.7769 
  70   0.0000       0.301007         8.1908 
  71   0.0000       0.309581         8.4241 
  72   0.0000       0.313268         8.5245 
  73   0.0000       0.320688         8.7264 
  74   0.0000       0.325252         8.8506 
  75   0.0000       0.337497         9.1838 
  76   0.0000       0.337955         9.1962 
  77   0.0000       0.346565         9.4305 
  78   0.0000       0.357226         9.7206 
  79   0.0000       0.365460         9.9447 
  80   0.0000       0.384332        10.4582 
  81   0.0000       0.391393        10.6503 
  82   0.0000       0.393532        10.7085 
  83   0.0000       0.405980        11.0473 
  84   0.0000       0.417496        11.3606 
  85   0.0000       0.420139        11.4326 
  86   0.0000       0.427194        11.6245 
  87   0.0000       0.434293        11.8177 
  88   0.0000       0.444009        12.0821 
  89   0.0000       0.450590        12.2612 
  90   0.0000       0.458485        12.4760 
  91   0.0000       0.466235        12.6869 
  92   0.0000       0.469101        12.7649 
  93   0.0000       0.476647        12.9702 
  94   0.0000       0.483740        13.1632 
  95   0.0000       0.494929        13.4677 
  96   0.0000       0.502877        13.6840 
  97   0.0000       0.509827        13.8731 
  98   0.0000       0.515379        14.0242 
  99   0.0000       0.526199        14.3186 
 100   0.0000       0.533499        14.5172 
 101   0.0000       0.538899        14.6642 
 102   0.0000       0.551385        15.0039 
 103   0.0000       0.562547        15.3077 
 104   0.0000       0.581633        15.8271 
 105   0.0000       0.586417        15.9572 
 106   0.0000       0.603460        16.4210 
 107   0.0000       0.613282        16.6883 
 108   0.0000       0.646454        17.5909 
 109   0.0000       0.657417        17.8892 
 110   0.0000       0.666620        18.1397 
 111   0.0000       0.679136        18.4802 
 112   0.0000       0.682000        18.5582 
 113   0.0000       0.697383        18.9768 
 114   0.0000       0.713943        19.4274 
 115   0.0000       0.731768        19.9124 
 116   0.0000       0.755565        20.5600 
 117   0.0000       0.772609        21.0238 
 118   0.0000       0.776373        21.1262 
 119   0.0000       0.817811        22.2538 
 120   0.0000       0.827657        22.5217 
 121   0.0000       0.857003        23.3202 
 122   0.0000       0.881137        23.9770 
 123   0.0000       0.890617        24.2349 
 124   0.0000       0.902960        24.5708 
 125   0.0000       0.908691        24.7267 
 126   0.0000       0.924300        25.1515 
 127   0.0000       0.952900        25.9297 
 128   0.0000       0.962991        26.2043 
 129   0.0000       0.969798        26.3895 
 130   0.0000       0.985848        26.8263 
 131   0.0000       0.987798        26.8794 
 132   0.0000       0.997100        27.1325 
 133   0.0000       1.018940        27.7268 
 134   0.0000       1.025441        27.9037 
 135   0.0000       1.037110        28.2212 
 136   0.0000       1.047552        28.5053 
 137   0.0000       1.066695        29.0263 
 138   0.0000       1.094739        29.7894 
 139   0.0000       1.113576        30.3020 
 140   0.0000       1.153326        31.3836 
 141   0.0000       1.171638        31.8819 
 142   0.0000       1.199128        32.6299 
 143   0.0000       1.212593        32.9963 
 144   0.0000       1.234934        33.6043 
 145   0.0000       1.266656        34.4675 
 146   0.0000       1.303025        35.4571 
 147   0.0000       1.324306        36.0362 
 148   0.0000       1.343684        36.5635 
 149   0.0000       1.379250        37.5313 
 150   0.0000       1.457460        39.6595 
 151   0.0000       1.488370        40.5006 
 152   0.0000       1.509513        41.0759 
 153   0.0000       1.524791        41.4917 
 154   0.0000       1.538541        41.8658 
 155   0.0000       1.553949        42.2851 
 156   0.0000       1.593589        43.3638 
 157   0.0000       1.613008        43.8922 
 158   0.0000       1.623957        44.1901 
 159   0.0000       1.671281        45.4779 
 160   0.0000       1.679068        45.6898 
 161   0.0000       1.684713        45.8434 
 162   0.0000       1.719205        46.7819 
 163   0.0000       1.735048        47.2131 
 164   0.0000       1.753538        47.7162 
 165   0.0000       1.799345        48.9627 
 166   0.0000       1.822861        49.6026 
 167   0.0000       1.848843        50.3096 
 168   0.0000       1.867185        50.8087 
 169   0.0000       1.884648        51.2839 
 170   0.0000       1.897333        51.6291 
 171   0.0000       1.944165        52.9034 
 172   0.0000       1.959039        53.3082 
 173   0.0000       1.981774        53.9268 
 174   0.0000       1.995106        54.2896 
 175   0.0000       2.043322        55.6016 
 176   0.0000       2.067843        56.2689 
 177   0.0000       2.109922        57.4139 
 178   0.0000       2.163858        58.8816 
 179   0.0000       2.225440        60.5573 
 180   0.0000       2.228263        60.6341 
 181   0.0000       2.251738        61.2729 
 182   0.0000       2.352890        64.0254 
 183   0.0000       2.386900        64.9509 
 184   0.0000       2.431587        66.1668 
 185   0.0000       2.487321        67.6834 
 186   0.0000       2.508233        68.2525 
 187   0.0000       2.568616        69.8956 
 188   0.0000       2.617466        71.2249 
 189   0.0000       2.643583        71.9356 
 190   0.0000       2.753093        74.9155 
 191   0.0000       2.766974        75.2932 
 192   0.0000       2.769887        75.3725 
 193   0.0000       2.778555        75.6083 
 194   0.0000       2.819096        76.7115 
 195   0.0000       2.825594        76.8883 
 196   0.0000       2.848055        77.4995 
 197   0.0000       2.870942        78.1223 
 198   0.0000       2.933853        79.8342 
 199   0.0000       2.945085        80.1398 
 200   0.0000       2.986940        81.2788 
 201   0.0000       3.005166        81.7747 
 202   0.0000       3.061565        83.3094 
 203   0.0000       3.096020        84.2470 
 204   0.0000       3.141930        85.4963 
 205   0.0000       3.169387        86.2434 
 206   0.0000       3.205007        87.2127 
 207   0.0000       3.210174        87.3533 
 208   0.0000       3.218192        87.5714 
 209   0.0000       3.259517        88.6960 
 210   0.0000       3.454737        94.0082 
 211   0.0000       3.658141        99.5431 

                    ********************************
                    * MULLIKEN POPULATION ANALYSIS *
                    ********************************

-----------------------
MULLIKEN ATOMIC CHARGES
-----------------------
   0 C :    0.884598
   1 C :   -0.229867
   2 C :    0.032714
   3 H :    0.008531
   4 H :    0.017073
   5 S :    1.393020
   6 O :   -0.612130
   7 F :   -0.359693
   8 O :   -0.679833
   9 H :   -0.030550
  10 H :   -0.128472
  11 H :   -0.254653
  12 H :   -0.008101
  13 H :   -0.032637
Sum of atomic charges:    0.0000000

--------------------------------
MULLIKEN REDUCED ORBITAL CHARGES
--------------------------------
  0 C s       :     2.291728  s :     2.291728
      pz      :     0.951172  p :     2.704300
      px      :     0.940192
      py      :     0.812935
      dz2     :     0.084387  d :     0.119374
      dxz     :     0.029572
      dyz     :     0.015271
      dx2y2   :    -0.016177
      dxy     :     0.006321
  1 C s       :     2.808155  s :     2.808155
      pz      :     1.016337  p :     2.858721
      px      :     0.910685
      py      :     0.931699
      dz2     :     0.157501  d :     0.562990
      dxz     :     0.065047
      dyz     :     0.157487
      dx2y2   :     0.088443
      dxy     :     0.094512
  2 C s       :     2.843413  s :     2.843413
      pz      :     0.891219  p :     2.881210
      px      :     0.904871
      py      :     1.085120
      dz2     :    -0.034141  d :     0.242663
      dxz     :     0.048602
      dyz     :     0.072980
      dx2y2   :     0.085345
      dxy     :     0.069878
  3 H s       :     0.935196  s :     0.935196
      pz      :    -0.008378  p :     0.056273
      px      :     0.027299
      py      :     0.037352
  4 H s       :     0.957683  s :     0.957683
      pz      :     0.044549  p :     0.025244
      px      :    -0.006709
      py      :    -0.012596
  5 S s       :     5.019213  s :     5.019213
      pz      :     3.012223  p :     8.766519
      px      :     2.939645
      py      :     2.814651
      dz2     :     0.155818  d :     0.821247
      dxz     :     0.165904
      dyz     :     0.185849
      dx2y2   :     0.138874
      dxy     :     0.174802
  6 O s       :     3.949224  s :     3.949224
      pz      :     1.730986  p :     4.633482
      px      :     1.700984
      py      :     1.201512
      dz2     :     0.001104  d :     0.029425
      dxz     :     0.002028
      dyz     :     0.011210
      dx2y2   :     0.008173
      dxy     :     0.006911
  7 F s       :     3.969712  s :     3.969712
      pz      :     1.907340  p :     5.366468
      px      :     1.728257
      py      :     1.730872
      dz2     :     0.002352  d :     0.023513
      dxz     :     0.003272
      dyz     :     0.006886
      dx2y2   :     0.006547
      dxy     :     0.004455
  8 O s       :     3.980941  s :     3.980941
      pz      :     1.332674  p :     4.676062
      px      :     1.582770
      py      :     1.760618
      dz2     :    -0.002680  d :     0.022829
      dxz     :     0.006557
      dyz     :     0.009215
      dx2y2   :     0.003945
      dxy     :     0.005793
  9 H s       :     1.007566  s :     1.007566
      pz      :    -0.027207  p :     0.022984
      px      :     0.014123
      py      :     0.036069
 10 H s       :     1.124066  s :     1.124066
      pz      :     0.043018  p :     0.004406
      px      :    -0.017067
      py      :    -0.021545
 11 H s       :     1.086994  s :     1.086994
      pz      :     0.060435  p :     0.167659
      px      :     0.094767
      py      :     0.012457
 12 H s       :     0.992453  s :     0.992453
      pz      :    -0.005862  p :     0.015648
      px      :     0.030346
      py      :    -0.008836
 13 H s       :     1.024101  s :     1.024101
      pz      :    -0.007804  p :     0.008536
      px      :    -0.026858
      py      :     0.043198


                     *******************************
                     * LOEWDIN POPULATION ANALYSIS *
                     *******************************

----------------------
LOEWDIN ATOMIC CHARGES
----------------------
   0 C :    0.134905
   1 C :   -0.082943
   2 C :   -0.057120
   3 H :    0.039051
   4 H :    0.019119
   5 S :    1.077543
   6 O :   -0.434793
   7 F :   -0.236469
   8 O :   -0.446742
   9 H :    0.024165
  10 H :    0.030975
  11 H :   -0.048443
  12 H :   -0.007808
  13 H :   -0.011440

-------------------------------
LOEWDIN REDUCED ORBITAL CHARGES
-------------------------------
  0 C s       :     2.695451  s :     2.695451
      pz      :     0.915629  p :     2.760190
      px      :     0.918081
      py      :     0.926480
      dz2     :     0.129604  d :     0.409454
      dxz     :     0.094027
      dyz     :     0.046868
      dx2y2   :     0.053271
      dxy     :     0.085685
  1 C s       :     2.685224  s :     2.685224
      pz      :     0.918456  p :     2.713595
      px      :     0.908178
      py      :     0.886961
      dz2     :     0.154505  d :     0.684124
      dxz     :     0.130817
      dyz     :     0.119065
      dx2y2   :     0.115765
      dxy     :     0.163972
  2 C s       :     2.721436  s :     2.721436
      pz      :     0.891776  p :     2.719241
      px      :     0.881342
      py      :     0.946123
      dz2     :     0.115721  d :     0.616443
      dxz     :     0.117846
      dyz     :     0.099531
      dx2y2   :     0.122678
      dxy     :     0.160668
  3 H s       :     0.705778  s :     0.705778
      pz      :     0.065939  p :     0.255171
      px      :     0.096813
      py      :     0.092419
  4 H s       :     0.717749  s :     0.717749
      pz      :     0.117626  p :     0.263132
      px      :     0.079313
      py      :     0.066193
  5 S s       :     4.672297  s :     4.672297
      pz      :     2.835221  p :     8.403706
      px      :     2.777627
      py      :     2.790858
      dz2     :     0.376689  d :     1.846455
      dxz     :     0.376485
      dyz     :     0.340535
      dx2y2   :     0.348091
      dxy     :     0.404655
  6 O s       :     3.571700  s :     3.571700
      pz      :     1.626144  p :     4.617241
      px      :     1.600632
      py      :     1.390465
      dz2     :     0.029240  d :     0.245852
      dxz     :     0.017857
      dyz     :     0.063645
      dx2y2   :     0.065476
      dxy     :     0.069634
  7 F s       :     3.702156  s :     3.702156
      pz      :     1.829062  p :     5.291087
      px      :     1.730806
      py      :     1.731219
      dz2     :     0.031506  d :     0.243226
      dxz     :     0.048401
      dyz     :     0.029625
      dx2y2   :     0.066974
      dxy     :     0.066720
  8 O s       :     3.576621  s :     3.576621
      pz      :     1.456536  p :     4.619027
      px      :     1.523317
      py      :     1.639175
      dz2     :     0.081189  d :     0.251094
      dxz     :     0.066659
      dyz     :     0.048562
      dx2y2   :     0.019080
      dxy     :     0.035604
  9 H s       :     0.715383  s :     0.715383
      pz      :     0.066347  p :     0.260452
      px      :     0.104496
      py      :     0.089610
 10 H s       :     0.720833  s :     0.720833
      pz      :     0.102725  p :     0.248192
      px      :     0.082636
      py      :     0.062830
 11 H s       :     0.708202  s :     0.708202
      pz      :     0.114641  p :     0.340241
      px      :     0.123645
      py      :     0.101955
 12 H s       :     0.735416  s :     0.735416
      pz      :     0.068158  p :     0.272392
      px      :     0.103806
      py      :     0.100427
 13 H s       :     0.737922  s :     0.737922
      pz      :     0.069139  p :     0.273517
      px      :     0.077423
      py      :     0.126955


                      *****************************
                      * MAYER POPULATION ANALYSIS *
                      *****************************

  NA   - Mulliken gross atomic population
  ZA   - Total nuclear charge
  QA   - Mulliken gross atomic charge
  VA   - Mayer's total valence
  BVA  - Mayer's bonded valence
  FA   - Mayer's free valence

  ATOM       NA         ZA         QA         VA         BVA        FA
  0 C      5.1154     6.0000     0.8846     3.7491     3.7491     0.0000
  1 C      6.2299     6.0000    -0.2299     5.2829     5.2829    -0.0000
  2 C      5.9673     6.0000     0.0327     4.4468     4.4468     0.0000
  3 H      0.9915     1.0000     0.0085     1.1356     1.1356     0.0000
  4 H      0.9829     1.0000     0.0171     1.0457     1.0457     0.0000
  5 S     14.6070    16.0000     1.3930     4.8038     4.8038    -0.0000
  6 O      8.6121     8.0000    -0.6121     1.7920     1.7920     0.0000
  7 F      9.3597     9.0000    -0.3597     0.8737     0.8737    -0.0000
  8 O      8.6798     8.0000    -0.6798     1.8358     1.8358     0.0000
  9 H      1.0306     1.0000    -0.0306     1.0627     1.0627     0.0000
 10 H      1.1285     1.0000    -0.1285     1.0455     1.0455    -0.0000
 11 H      1.2547     1.0000    -0.2547     1.3603     1.3603     0.0000
 12 H      1.0081     1.0000    -0.0081     0.9683     0.9683     0.0000
 13 H      1.0326     1.0000    -0.0326     0.9740     0.9740     0.0000

  Mayer bond orders larger than 0.100000
B(  0-C ,  1-C ) :   1.3314 B(  0-C ,  9-H ) :   0.1084 B(  0-C , 11-H ) :   0.8071 
B(  0-C , 12-H ) :   0.7161 B(  0-C , 13-H ) :   0.7004 B(  1-C ,  2-C ) :   1.2397 
B(  1-C ,  3-H ) :   0.1244 B(  1-C ,  4-H ) :   0.1287 B(  1-C ,  9-H ) :   0.8624 
B(  1-C , 10-H ) :   0.8841 B(  1-C , 11-H ) :   0.2742 B(  1-C , 12-H ) :   0.2230 
B(  1-C , 13-H ) :   0.2159 B(  2-C ,  3-H ) :   0.9359 B(  2-C ,  4-H ) :   0.8892 
B(  2-C ,  5-S ) :   0.9729 B(  2-C ,  9-H ) :   0.1286 B(  2-C , 10-H ) :   0.1053 
B(  5-S ,  6-O ) :   1.5859 B(  5-S ,  7-F ) :   0.6929 B(  5-S ,  8-O ) :   1.4989 
B(  8-O , 11-H ) :   0.1005 B( 11-H , 12-H ) :   0.1148 B( 11-H , 13-H ) :   0.1093 


-------
TIMINGS
-------

Total SCF time: 0 days 0 hours 0 min 4 sec 

Total time                  ....       4.814 sec
Sum of individual times     ....       4.612 sec  ( 95.8%)

Fock matrix formation       ....       3.826 sec  ( 79.5%)
  Split-RI-J                ....       0.962 sec  ( 25.2% of F)
  XC integration            ....       2.802 sec  ( 73.2% of F)
    Basis function eval.    ....       0.891 sec  ( 31.8% of XC)
    Density eval.           ....       0.693 sec  ( 24.7% of XC)
    XC-Functional eval.     ....       0.137 sec  (  4.9% of XC)
    XC-Potential eval.      ....       0.863 sec  ( 30.8% of XC)
Diagonalization             ....       0.081 sec  (  1.7%)
Density matrix formation    ....       0.007 sec  (  0.1%)
Population analysis         ....       0.009 sec  (  0.2%)
Initial guess               ....       0.096 sec  (  2.0%)
Orbital Transformation      ....       0.000 sec  (  0.0%)
Orbital Orthonormalization  ....       0.000 sec  (  0.0%)
DIIS solution               ....       0.059 sec  (  1.2%)
SOSCF solution              ....       0.072 sec  (  1.5%)
Grid generation             ....       0.462 sec  (  9.6%)

Maximum memory used throughout the entire SCF-calculation: 23.8 MB


-------------------------------------------------------------------------------
                          DFT DISPERSION CORRECTION                            
                                                                               
                              DFTD3 V3.1  Rev 1                                
                          USING Becke-Johnson damping                          
-------------------------------------------------------------------------------
The PBE functional is recognized
Active option DFTDOPT                   ...         4   

molecular C6(AA) [au] = 2097.081060 


            DFT-D V3
 parameters
 s6 scaling factor         :     1.0000 
 a1 scaling factor         :     0.4289 
 s8 scaling factor         :     0.7875 
 a2 scaling factor         :     4.4407 
 ad hoc parameters k1-k3   :    16.0000     1.3333    -4.0000 

 Edisp/kcal,au: -8.065574843328  -0.012853310295 
 E6   /kcal   :  -5.646684532 
 E8   /kcal   :  -2.418890311 
 % E8         :  29.990302711 

-------------------------   ----------------
Dispersion correction           -0.012853310
-------------------------   ----------------


-------------------------   --------------------
FINAL SINGLE POINT ENERGY      -765.990147652335
-------------------------   --------------------


                            ***************************************
                            *     ORCA property calculations      *
                            ***************************************

                                    ---------------------
                                    Active property flags
                                    ---------------------
   (+) Dipole Moment


------------------------------------------------------------------------------
                       ORCA ELECTRIC PROPERTIES CALCULATION
------------------------------------------------------------------------------

Dipole Moment Calculation                       ... on
Quadrupole Moment Calculation                   ... off
Polarizability Calculation                      ... off
GBWName                                         ... 14Feb_SVPD_PBE_C2_wt_wb97_typ1_neg.gbw
Electron density file                           ... 14Feb_SVPD_PBE_C2_wt_wb97_typ1_neg.scfp
The origin for moment calculation is the CENTER OF MASS  = ( 2.196390,  1.126853 -5.919465)

-------------
DIPOLE MOMENT
-------------
                                X             Y             Z
Electronic contribution:    -11.82504      -4.87938      -2.70041
Nuclear contribution   :     12.19253       5.80225       3.95262
                        -----------------------------------------
Total Dipole Moment    :      0.36749       0.92287       1.25222
                        -----------------------------------------
Magnitude (a.u.)       :      1.59837
Magnitude (Debye)      :      4.06274



--------------------
Rotational spectrum 
--------------------
 
Rotational constants in cm-1:     0.130581     0.053444     0.051914 
Rotational constants in MHz :  3914.711139  1602.211061  1556.338643 

 Dipole components along the rotational axes: 
x,y,z [a.u.] :     1.010952     1.222741     0.194087 
x,y,z [Debye]:     2.569637     3.107961     0.493330 

 

Timings for individual modules:

Sum of individual times         ...        5.418 sec (=   0.090 min)
GTO integral calculation        ...        0.392 sec (=   0.007 min)   7.2 %
SCF iterations                  ...        5.026 sec (=   0.084 min)  92.8 %
                             ****ORCA TERMINATED NORMALLY****
TOTAL RUN TIME: 0 days 0 hours 0 minutes 5 seconds 817 msec
