
                                        *****************
                                        * O   R   C   A *
                                        *****************

                                            #,                                       
                                            ###                                      
                                            ####                                     
                                            #####                                    
                                            ######                                   
                                           ########,                                 
                                     ,,################,,,,,                         
                               ,,#################################,,                 
                          ,,##########################################,,             
                       ,#########################################, ''#####,          
                    ,#############################################,,   '####,        
                  ,##################################################,,,,####,       
                ,###########''''           ''''###############################       
              ,#####''   ,,,,##########,,,,          '''####'''          '####       
            ,##' ,,,,###########################,,,                        '##       
           ' ,,###''''                  '''############,,,                           
         ,,##''                                '''############,,,,        ,,,,,,###''
      ,#''                                            '''#######################'''  
     '                                                          ''''####''''         
             ,#######,   #######,   ,#######,      ##                                
            ,#'     '#,  ##    ##  ,#'     '#,    #''#        ######   ,####,        
            ##       ##  ##   ,#'  ##            #'  '#       #        #'  '#        
            ##       ##  #######   ##           ,######,      #####,   #    #        
            '#,     ,#'  ##    ##  '#,     ,#' ,#      #,         ##   #,  ,#        
             '#######'   ##     ##  '#######'  #'      '#     #####' # '####'        



                  #######################################################
                  #                        -***-                        #
                  #          Department of theory and spectroscopy      #
                  #    Directorship and core code : Frank Neese         #
                  #        Max Planck Institute fuer Kohlenforschung    #
                  #                Kaiser Wilhelm Platz 1               #
                  #                 D-45470 Muelheim/Ruhr               #
                  #                      Germany                        #
                  #                                                     #
                  #                  All rights reserved                #
                  #                        -***-                        #
                  #######################################################


                         Program Version 5.0.0 -  RELEASE  -
                                (SVN: $Rev: 19529$)
                ($Date: 2021-06-28 11:36:33 +0200 (Mo, 28 Jun 2021) $)


 With contributions from (in alphabetic order):
   Daniel Aravena         : Magnetic Suceptibility
   Michael Atanasov       : Ab Initio Ligand Field Theory (pilot matlab implementation)
   Alexander A. Auer      : GIAO ZORA, VPT2 properties, NMR spectrum
   Ute Becker             : Parallelization
   Giovanni Bistoni       : ED, misc. LED, open-shell LED, HFLD
   Martin Brehm           : Molecular dynamics
   Dmytro Bykov           : SCF Hessian
   Vijay G. Chilkuri      : MRCI spin determinant printing, contributions to CSF-ICE
   Dipayan Datta          : RHF DLPNO-CCSD density
   Achintya Kumar Dutta   : EOM-CC, STEOM-CC
   Dmitry Ganyushin       : Spin-Orbit,Spin-Spin,Magnetic field MRCI
   Miquel Garcia          : C-PCM Hessian, Gaussian charge scheme
   Yang Guo               : DLPNO-NEVPT2, F12-NEVPT2, CIM, IAO-localization
   Andreas Hansen         : Spin unrestricted coupled pair/coupled cluster methods
   Benjamin Helmich-Paris : MC-RPA, TRAH-SCF, COSX integrals
   Lee Huntington         : MR-EOM, pCC
   Robert Izsak           : Overlap fitted RIJCOSX, COSX-SCS-MP3, EOM
   Marcus Kettner         : VPT2
   Christian Kollmar      : KDIIS, OOCD, Brueckner-CCSD(T), CCSD density, CASPT2, CASPT2-K
   Simone Kossmann        : Meta GGA functionals, TD-DFT gradient, OOMP2, MP2 Hessian
   Martin Krupicka        : Initial AUTO-CI
   Lucas Lang             : DCDCAS
   Marvin Lechner         : AUTO-CI (C++ implementation), FIC-MRCC
   Dagmar Lenk            : GEPOL surface, SMD
   Dimitrios Liakos       : Extrapolation schemes; Compound Job, initial MDCI parallelization
   Dimitrios Manganas     : Further ROCIS development; embedding schemes
   Dimitrios Pantazis     : SARC Basis sets
   Anastasios Papadopoulos: AUTO-CI, single reference methods and gradients
   Taras Petrenko         : DFT Hessian,TD-DFT gradient, ASA, ECA, R-Raman, ABS, FL, XAS/XES, NRVS
   Peter Pinski           : DLPNO-MP2, DLPNO-MP2 Gradient
   Christoph Reimann      : Effective Core Potentials
   Marius Retegan         : Local ZFS, SOC
   Christoph Riplinger    : Optimizer, TS searches, QM/MM, DLPNO-CCSD(T), (RO)-DLPNO pert. Triples
   Tobias Risthaus        : Range-separated hybrids, TD-DFT gradient, RPA, STAB
   Michael Roemelt        : Original ROCIS implementation
   Masaaki Saitow         : Open-shell DLPNO-CCSD energy and density
   Barbara Sandhoefer     : DKH picture change effects
   Avijit Sen             : IP-ROCIS
   Kantharuban Sivalingam : CASSCF convergence, NEVPT2, FIC-MRCI
   Bernardo de Souza      : ESD, SOC TD-DFT
   Georgi Stoychev        : AutoAux, RI-MP2 NMR
   Willem Van den Heuvel  : Paramagnetic NMR
   Boris Wezisla          : Elementary symmetry handling
   Frank Wennmohs         : Technical directorship


 We gratefully acknowledge several colleagues who have allowed us to
 interface, adapt or use parts of their codes:
   Stefan Grimme, W. Hujo, H. Kruse, P. Pracht,  : VdW corrections, initial TS optimization,
                  C. Bannwarth, S. Ehlert          DFT functionals, gCP, sTDA/sTD-DF
   Ed Valeev, F. Pavosevic, A. Kumar             : LibInt (2-el integral package), F12 methods
   Garnet Chan, S. Sharma, J. Yang, R. Olivares  : DMRG
   Ulf Ekstrom                                   : XCFun DFT Library
   Mihaly Kallay                                 : mrcc  (arbitrary order and MRCC methods)
   Jiri Pittner, Ondrej Demel                    : Mk-CCSD
   Frank Weinhold                                : gennbo (NPA and NBO analysis)
   Christopher J. Cramer and Donald G. Truhlar   : smd solvation model
   Lars Goerigk                                  : TD-DFT with DH, B97 family of functionals
   V. Asgeirsson, H. Jonsson                     : NEB implementation
   FAccTs GmbH                                   : IRC, NEB, NEB-TS, DLPNO-Multilevel, CI-OPT
                                                   MM, QMMM, 2- and 3-layer-ONIOM, Crystal-QMMM,
                                                   LR-CPCM, SF, NACMEs, symmetry and pop. for TD-DFT,
                                                   nearIR, NL-DFT gradient (VV10), updates on ESD,
                                                   ML-optimized integration grids
   S Lehtola, MJT Oliveira, MAL Marques          : LibXC Library
   Liviu Ungur et al                             : ANISO software


 Your calculation uses the libint2 library for the computation of 2-el integrals
 For citations please refer to: http://libint.valeyev.net

 Your ORCA version has been built with support for libXC version: 5.1.0
 For citations please refer to: https://tddft.org/programs/libxc/

 This ORCA versions uses:
   CBLAS   interface :  Fast vector & matrix operations
   LAPACKE interface :  Fast linear algebra routines
   SCALAPACK package :  Parallel linear algebra routines
   Shared memory     :  Shared parallel matrices
   BLAS/LAPACK       :  OpenBLAS 0.3.15  USE64BITINT DYNAMIC_ARCH NO_AFFINITY Haswell SINGLE_THREADED
        Core in use  :  Haswell
   Copyright (c) 2011-2014, The OpenBLAS Project


Your calculation utilizes the atom-pairwise dispersion correction
with the zero-damping scheme (D30)
Cite in your paper:
S.Grimme, J.Antony, S.Ehrlich and H.Krieg, J.Chem.Phys., 132, (2010), 154104 
   

XCFun DFT library Copyright 2009-2010 Ulf Ekstrom and contributors.
See http://admol.org/xcfun for more information.
This is free software; see the source code for copying conditions.
There is ABSOLUTELY NO WARRANTY; not even for MERCHANTABILITY or FITNESS FOR A PARTICULAR PURPOSE.
For details see the documentation.
Scientific users of this library should cite U. Ekstrom, L. Visscher, R. Bast, A. J. Thorvaldsen and K. Ruud;
J.Chem.Theor.Comp. 2010, DOI: 10.1021/ct100117s
XCFun Version 0.99 

================================================================================

----- Orbital basis set information -----
Your calculation utilizes the basis: def2-SVPD
   F. Weigend and R. Ahlrichs, Phys. Chem. Chem. Phys. 7, 3297 (2005).
   D. Rappoport and F. Furche, J. Chem. Phys. 133 134105 (2010).

----- AuxJ basis set information -----
Your calculation utilizes the auxiliary basis: def2/J
   F. Weigend, Phys. Chem. Chem. Phys. 8, 1057 (2006).

================================================================================
                                        WARNINGS
                       Please study these warnings very carefully!
================================================================================


INFO   : the flag for use of the SHARK integral package has been found!

================================================================================
                                       INPUT FILE
================================================================================
NAME = C2_wt_wb97_typm1_neg.com
|  1> !wB97X-D3 RIJCOSX def2-SVPD def2/J TightSCF CPCM(Water) 
|  2> *xyz 0 1
|  3> C         -0.50835        1.72268       -4.12430
|  4> S         -1.32861        0.14674       -4.43578
|  5> O         -2.57135        0.47573       -5.06834
|  6> F         -1.51496       -0.40051       -3.06342
|  7> O         -0.37793       -0.62756       -5.20114
|  8> H         -0.31967        2.21655       -5.05456
|  9> H          0.41835        1.54859       -3.61852
| 10> H         -1.13714        2.33776       -3.51504
| 11> *
| 12> %MaxCore 64000
| 13> 
| 14> %pal nprocs 18
| 15> end  
| 16> 
| 17> %scf
| 18>   MaxIter 150
| 19> end
| 20> 
| 21> 
| 22>                          ****END OF INPUT****
================================================================================

                       ****************************
                       * Single Point Calculation *
                       ****************************

---------------------------------
CARTESIAN COORDINATES (ANGSTROEM)
---------------------------------
  C     -0.508350    1.722680   -4.124300
  S     -1.328610    0.146740   -4.435780
  O     -2.571350    0.475730   -5.068340
  F     -1.514960   -0.400510   -3.063420
  O     -0.377930   -0.627560   -5.201140
  H     -0.319670    2.216550   -5.054560
  H      0.418350    1.548590   -3.618520
  H     -1.137140    2.337760   -3.515040

----------------------------
CARTESIAN COORDINATES (A.U.)
----------------------------
  NO LB      ZA    FRAG     MASS         X           Y           Z
   0 C     6.0000    0    12.011   -0.960642    3.255393   -7.793797
   1 S    16.0000    0    32.060   -2.510709    0.277298   -8.382409
   2 O     8.0000    0    15.999   -4.859147    0.898999   -9.577775
   3 F     9.0000    0    18.998   -2.862860   -0.756854   -5.789025
   4 O     8.0000    0    15.999   -0.714184   -1.185917   -9.828730
   5 H     1.0000    0     1.008   -0.604089    4.188672   -9.551734
   6 H     1.0000    0     1.008    0.790567    2.926411   -6.838012
   7 H     1.0000    0     1.008   -2.148883    4.417726   -6.642463

--------------------------------
INTERNAL COORDINATES (ANGSTROEM)
--------------------------------
 C      0   0   0     0.000000000000     0.00000000     0.00000000
 S      1   0   0     1.803727568565     0.00000000     0.00000000
 O      2   1   0     1.432748854929   105.66825675     0.00000000
 F      2   1   3     1.489154409254   102.64124569   241.94826009
 O      2   1   3     1.445374997016   105.09290493   124.76293906
 H      1   2   3     1.069995975179   109.47095866   298.05162050
 H      1   2   3     1.069997021725   109.47097481   178.05166235
 H      1   2   3     1.069999073878   109.47126006    58.05208086

---------------------------
INTERNAL COORDINATES (A.U.)
---------------------------
 C      0   0   0     0.000000000000     0.00000000     0.00000000
 S      1   0   0     3.408551124791     0.00000000     0.00000000
 O      2   1   0     2.707502954505   105.66825675     0.00000000
 F      2   1   3     2.814094004611   102.64124569   241.94826009
 O      2   1   3     2.731362905178   105.09290493   124.76293906
 H      1   2   3     2.021999357487   109.47095866   298.05162050
 H      1   2   3     2.022001335171   109.47097481   178.05166235
 H      1   2   3     2.022005213179   109.47126006    58.05208086

---------------------
BASIS SET INFORMATION
---------------------
There are 5 groups of distinct atoms

 Group   1 Type C   : 8s4p2d contracted to 4s2p2d pattern {5111/31/11}
 Group   2 Type S   : 11s8p2d contracted to 5s4p2d pattern {53111/5111/11}
 Group   3 Type O   : 8s5p2d contracted to 4s3p2d pattern {5111/311/11}
 Group   4 Type F   : 8s5p2d contracted to 4s3p2d pattern {5111/311/11}
 Group   5 Type H   : 4s2p contracted to 2s2p pattern {31/11}

Atom   0C    basis set group =>   1
Atom   1S    basis set group =>   2
Atom   2O    basis set group =>   3
Atom   3F    basis set group =>   4
Atom   4O    basis set group =>   3
Atom   5H    basis set group =>   5
Atom   6H    basis set group =>   5
Atom   7H    basis set group =>   5
---------------------------------
AUXILIARY/J BASIS SET INFORMATION
---------------------------------
There are 5 groups of distinct atoms

 Group   1 Type C   : 12s5p4d2f1g contracted to 6s4p3d1f1g pattern {711111/2111/211/2/1}
 Group   2 Type S   : 14s5p5d2f1g contracted to 8s4p3d1f1g pattern {71111111/2111/311/2/1}
 Group   3 Type O   : 12s5p4d2f1g contracted to 6s4p3d1f1g pattern {711111/2111/211/2/1}
 Group   4 Type F   : 12s5p4d2f1g contracted to 6s4p3d1f1g pattern {711111/2111/211/2/1}
 Group   5 Type H   : 5s2p1d contracted to 3s1p1d pattern {311/2/1}

Atom   0C    basis set group =>   1
Atom   1S    basis set group =>   2
Atom   2O    basis set group =>   3
Atom   3F    basis set group =>   4
Atom   4O    basis set group =>   3
Atom   5H    basis set group =>   5
Atom   6H    basis set group =>   5
Atom   7H    basis set group =>   5


           ************************************************************
           *        Program running with 18 parallel MPI-processes    *
           *              working on a common directory               *
           ************************************************************
------------------------------------------------------------------------------
                           ORCA GTO INTEGRAL CALCULATION
                           -- RI-GTO INTEGRALS CHOSEN --
------------------------------------------------------------------------------
------------------------------------------------------------------------------
                   ___                                                        
                  /   \      - P O W E R E D   B Y -                         
                 /     \                                                     
                 |  |  |   _    _      __       _____    __    __             
                 |  |  |  | |  | |    /  \     |  _  \  |  |  /  |          
                  \  \/   | |  | |   /    \    | | | |  |  | /  /          
                 / \  \   | |__| |  /  /\  \   | |_| |  |  |/  /          
                |  |  |   |  __  | /  /__\  \  |    /   |      \           
                |  |  |   | |  | | |   __   |  |    \   |  |\   \          
                \     /   | |  | | |  |  |  |  | |\  \  |  | \   \       
                 \___/    |_|  |_| |__|  |__|  |_| \__\ |__|  \__/        
                                                                              
                      - O R C A' S   B I G   F R I E N D -                    
                                      &                                       
                       - I N T E G R A L  F E E D E R -                       
                                                                              
 v1 FN, 2020, v2 2021                                                         
------------------------------------------------------------------------------


Reading SHARK input file C2_wt_wb97_typm1_neg.SHARKINP.tmp ... ok
----------------------
SHARK INTEGRAL PACKAGE
----------------------

Number of atoms                             ...      8
Number of basis functions                   ...    140
Number of shells                            ...     58
Maximum angular momentum                    ...      2
Integral batch strategy                     ... SHARK/LIBINT Hybrid
RI-J (if used) integral strategy            ... SPLIT-RIJ (Revised 2003 algorithm where possible)
Printlevel                                  ...      1
Contraction scheme used                     ... SEGMENTED contraction
Coulomb Range Separation                    ... NOT USED
Exchange Range Separation                   ... Long Range
   Mu parameter                             ...  0.250000
   Scaling (regular/separated)              ...  0.195728  0.804272
Finite Nucleus Model                        ... NOT USED
Auxiliary Coulomb fitting basis             ... AVAILABLE
   # of basis functions in Aux-J            ...    280
   # of shells in Aux-J                     ...     92
   Maximum angular momentum in Aux-J        ...      4
Auxiliary J/K fitting basis                 ... NOT available
Auxiliary Correlation fitting basis         ... NOT available
Auxiliary 'external' fitting basis          ... NOT available
Integral threshold                          ...     2.500000e-11
Primitive cut-off                           ...     2.500000e-12
Primitive pair pre-selection threshold      ...     2.500000e-12

Calculating pre-screening integrals         ... done (  0.0 sec) Dimension = 58
Organizing shell pair data                  ... done (  0.0 sec)
Shell pair information
Total number of shell pairs                 ...      1711
Shell pairs after pre-screening             ...      1698
Total number of primitive shell pairs       ...      4935
Primitive shell pairs kept                  ...      4118
          la=0 lb=0:    368 shell pairs
          la=1 lb=0:    564 shell pairs
          la=1 lb=1:    231 shell pairs
          la=2 lb=0:    270 shell pairs
          la=2 lb=1:    210 shell pairs
          la=2 lb=2:     55 shell pairs

Calculating one electron integrals          ... done (  0.0 sec)
Calculating RI/J V-Matrix + Cholesky decomp.... done (  0.0 sec)
Calculating Nuclear repulsion               ... done (  0.0 sec) ENN=    282.939255140048 Eh

SHARK setup successfully completed in   0.2 seconds

Maximum memory used throughout the entire GTOINT-calculation: 8.8 MB


           ************************************************************
           *        Program running with 18 parallel MPI-processes    *
           *              working on a common directory               *
           ************************************************************
-------------------------------------------------------------------------------
                                 ORCA SCF
-------------------------------------------------------------------------------

------------
SCF SETTINGS
------------
Hamiltonian:
 Density Functional     Method          .... DFT(GTOs)
 Exchange Functional    Exchange        .... WB97X-D3
 Correlation Functional Correlation     .... WB97X-D3
 Gradients option       PostSCFGGA      .... off
 Hybrid DFT is turned on
   Fraction HF Exchange ScalHFX         ....  0.195728
   Scaling of DF-GGA-X  ScalDFX         ....  0.000000
   Scaling of DF-GGA-C  ScalDFC         ....  1.000000
   Scaling of DF-LDA-C  ScalLDAC        ....  1.000000
   Perturbative correction              ....  0.000000
   Density functional embedding theory  .... OFF
 Long-range corrected/Screened/Range-Separated Hybrid DFT is turned on
   Amount of maximum screened exact exchange              ....  0.804272
   Range separation parameter mu (erf(mu*r12)/r12)        ....  0.250000
 RI-approximation to the Coulomb term is turned on
   Number of AuxJ basis functions       .... 280
   RIJ-COSX (HFX calculated with COS-X)).... on


General Settings:
 Integral files         IntName         .... C2_wt_wb97_typm1_neg
 Hartree-Fock type      HFTyp           .... RHF
 Total Charge           Charge          ....    0
 Multiplicity           Mult            ....    1
 Number of Electrons    NEL             ....   50
 Basis Dimension        Dim             ....  140
 Nuclear Repulsion      ENuc            ....    282.9392551400 Eh

Convergence Acceleration:
 DIIS                   CNVDIIS         .... on
   Start iteration      DIISMaxIt       ....    12
   Startup error        DIISStart       ....  0.200000
   # of expansion vecs  DIISMaxEq       ....     5
   Bias factor          DIISBfac        ....   1.050
   Max. coefficient     DIISMaxC        ....  10.000
 Trust-Rad. Augm. Hess. CNVTRAH         .... auto
   Auto Start mean grad. ratio tolernc. ....  1.125000
   Auto Start start iteration           ....    20
   Auto Start num. interpolation iter.  ....    10
   Max. Number of Micro iterations      ....    16
   Max. Number of Macro iterations      .... Maxiter - #DIIS iter
   Number of Davidson start vectors     ....     2
   Converg. threshold I  (grad. norm)   ....   1.000e-05
   Converg. threshold II (energy diff.) ....   1.000e-08
   Grad. Scal. Fac. for Micro threshold ....   0.100
   Minimum threshold for Micro iter.    ....   0.010
   NR start threshold (gradient norm)   ....   0.001
   Initial trust radius                 ....   0.400
   Minimum AH scaling param. (alpha)    ....   1.000
   Maximum AH scaling param. (alpha)    .... 1000.000
   Orbital update algorithm             .... Taylor
   White noise on init. David. guess    .... on
   Maximum white noise                  ....   0.010
   Quad. conv. algorithm                .... NR
 SOSCF                  CNVSOSCF        .... on
   Start iteration      SOSCFMaxIt      ....   150
   Startup grad/error   SOSCFStart      ....  0.003300
 Level Shifting         CNVShift        .... on
   Level shift para.    LevelShift      ....    0.2500
   Turn off err/grad.   ShiftErr        ....    0.0010
 Zerner damping         CNVZerner       .... off
 Static damping         CNVDamp         .... on
   Fraction old density DampFac         ....    0.7000
   Max. Damping (<1)    DampMax         ....    0.9800
   Min. Damping (>=0)   DampMin         ....    0.0000
   Turn off err/grad.   DampErr         ....    0.1000
 Fernandez-Rico         CNVRico         .... off

SCF Procedure:
 Maximum # iterations   MaxIter         ....   150
 SCF integral mode      SCFMode         .... Direct
   Integral package                     .... SHARK and LIBINT hybrid scheme
 Reset frequency        DirectResetFreq ....    20
 Integral Threshold     Thresh          ....  2.500e-11 Eh
 Primitive CutOff       TCut            ....  2.500e-12 Eh

Convergence Tolerance:
 Convergence Check Mode ConvCheckMode   .... Total+1el-Energy
 Convergence forced     ConvForced      .... 0
 Energy Change          TolE            ....  1.000e-08 Eh
 1-El. energy change                    ....  1.000e-05 Eh
 Orbital Gradient       TolG            ....  1.000e-05
 Orbital Rotation angle TolX            ....  1.000e-05
 DIIS Error             TolErr          ....  5.000e-07


Diagonalization of the overlap matrix:
Smallest eigenvalue                        ... 3.825e-04
Time for diagonalization                   ...    0.006 sec
Threshold for overlap eigenvalues          ... 1.000e-08
Number of eigenvalues below threshold      ... 0
Time for construction of square roots      ...    0.010 sec
Total time needed                          ...    0.017 sec

Time for model grid setup =    0.045 sec

------------------------------
INITIAL GUESS: MODEL POTENTIAL
------------------------------
Loading Hartree-Fock densities                     ... done
Calculating cut-offs                               ... done
Initializing the effective Hamiltonian             ... done
Setting up the integral package (SHARK)            ... done
Starting the Coulomb interaction                   ... done (   0.0 sec)
Reading the grid                                   ... done
Mapping shells                                     ... done
Starting the XC term evaluation                    ... done (   0.0 sec)
  promolecular density results
     # of electrons  =     49.997672514
     EX              =    -57.341282393
     EC              =     -1.799910197
     EX+EC           =    -59.141192590
Transforming the Hamiltonian                       ... done (   0.0 sec)
Diagonalizing the Hamiltonian                      ... done (   0.0 sec)
Back transforming the eigenvectors                 ... done (   0.0 sec)
Now organizing SCF variables                       ... done
                      ------------------
                      INITIAL GUESS DONE (   0.1 sec)
                      ------------------
-------------------
DFT GRID GENERATION
-------------------

General Integration Accuracy     IntAcc      ... 4.388
Radial Grid Type                 RadialGrid  ... OptM3 with GC (2021)
Angular Grid (max. ang.)         AngularGrid ... 4 (Lebedev-302)
Angular grid pruning method      GridPruning ... 4 (adaptive)
Weight generation scheme         WeightScheme... Becke
Basis function cutoff            BFCut       ... 1.0000e-11
Integration weight cutoff        WCut        ... 1.0000e-14
Angular grids for H and He will be reduced by one unit
Partially contracted basis set               ... off
Rotationally invariant grid construction     ... off

Total number of grid points                  ...    43348
Total number of batches                      ...      682
Average number of points per batch           ...       63
Average number of grid points per atom       ...     5418
Time for grid setup =    0.256 sec

--------------------
COSX GRID GENERATION
--------------------

GRIDX 1
-------
General Integration Accuracy     IntAcc      ... 3.816
Radial Grid Type                 RadialGrid  ... OptM3 with GC (2021)
Angular Grid (max. ang.)         AngularGrid ... 1 (Lebedev-50)
Angular grid pruning method      GridPruning ... 4 (adaptive)
Weight generation scheme         WeightScheme... Becke
Basis function cutoff            BFCut       ... 1.0000e-11
Integration weight cutoff        WCut        ... 1.0000e-14
Angular grids for H and He will be reduced by one unit
Partially contracted basis set               ... on
Rotationally invariant grid construction     ... off

Total number of grid points                  ...     5353
Total number of batches                      ...       88
Average number of points per batch           ...       60
Average number of grid points per atom       ...      669
UseSFitting                                  ... on

GRIDX 2
-------
General Integration Accuracy     IntAcc      ... 4.020
Radial Grid Type                 RadialGrid  ... OptM3 with GC (2021)
Angular Grid (max. ang.)         AngularGrid ... 2 (Lebedev-110)
Angular grid pruning method      GridPruning ... 4 (adaptive)
Weight generation scheme         WeightScheme... Becke
Basis function cutoff            BFCut       ... 1.0000e-11
Integration weight cutoff        WCut        ... 1.0000e-14
Angular grids for H and He will be reduced by one unit
Partially contracted basis set               ... on
Rotationally invariant grid construction     ... off

Total number of grid points                  ...    13351
Total number of batches                      ...      214
Average number of points per batch           ...       62
Average number of grid points per atom       ...     1669
UseSFitting                                  ... on

GRIDX 3
-------
General Integration Accuracy     IntAcc      ... 4.338
Radial Grid Type                 RadialGrid  ... OptM3 with GC (2021)
Angular Grid (max. ang.)         AngularGrid ... 3 (Lebedev-194)
Angular grid pruning method      GridPruning ... 4 (adaptive)
Weight generation scheme         WeightScheme... Becke
Basis function cutoff            BFCut       ... 1.0000e-11
Integration weight cutoff        WCut        ... 1.0000e-14
Angular grids for H and He will be reduced by one unit
Partially contracted basis set               ... on
Rotationally invariant grid construction     ... off

Total number of grid points                  ...    30389
Total number of batches                      ...      480
Average number of points per batch           ...       63
Average number of grid points per atom       ...     3799
UseSFitting                                  ... on

Time for X-Grid setup             =    0.206 sec


--------------------
CPCM SOLVATION MODEL
--------------------
CPCM parameters:
  Epsilon                                         ...      80.4000
  Refrac                                          ...       1.3300
  Rsolv                                           ...       1.3000
  Surface type                                    ... GAUSSIAN VDW
  Epsilon function type                           ...         CPCM
Radii:
 Radius for C  used is    3.8550 Bohr (=   2.0400 Ang.)
 Radius for S  used is    4.0818 Bohr (=   2.1600 Ang.)
 Radius for O  used is    3.4469 Bohr (=   1.8240 Ang.)
 Radius for F  used is    3.3335 Bohr (=   1.7640 Ang.)
 Radius for H  used is    2.4944 Bohr (=   1.3200 Ang.)
Calculating surface                               ...        done! (  0.0s)
GEPOL surface points                              ...          534
GEPOL Volume                                      ...     632.2764
GEPOL Surface-area                                ...     398.7220
Calculating surface distance matrix               ...        done! (  0.0s)
Performing Cholesky decomposition & store         ...        done! (  0.0s)
Overall time for CPCM initialization              ...                 0.0s
--------------
SCF ITERATIONS
--------------
ITER       Energy         Delta-E        Max-DP      RMS-DP      [F,P]     Damp
               ***  Starting incremental Fock matrix formation  ***
  0   -687.6633432121   0.000000000000 0.17333703  0.00332827  0.2648899 0.7000
  1   -687.7832883502  -0.119945138057 0.09323109  0.00203204  0.1211185 0.7000
                               ***Turning on DIIS***
  2   -687.8316757812  -0.048387431048 0.09724907  0.00319273  0.0416982 0.0000
  3   -687.9106882676  -0.079012486343 0.08072801  0.00142454  0.0608512 0.0000
  4   -687.9253967575  -0.014708489891 0.01509063  0.00029087  0.0125246 0.0000
                      *** Initiating the SOSCF procedure ***
                           *** Shutting down DIIS ***
                      *** Re-Reading the Fockian *** 
                      *** Removing any level shift *** 
ITER      Energy       Delta-E        Grad      Rot      Max-DP    RMS-DP
  5   -687.92575351  -0.0003567531  0.001171  0.001171  0.002147  0.000098
               *** Restarting incremental Fock matrix formation ***
  6   -687.92569183   0.0000616777  0.000480  0.000835  0.001169  0.000047
  7   -687.92569657  -0.0000047413  0.000253  0.000619  0.000791  0.000032
  8   -687.92569836  -0.0000017864  0.000063  0.000061  0.000273  0.000010
  9   -687.92569843  -0.0000000675  0.000027  0.000023  0.000171  0.000004
 10   -687.92569847  -0.0000000373  0.000008  0.000006  0.000023  0.000001
 11   -687.92569847  -0.0000000023  0.000006  0.000004  0.000016  0.000000
                  ***Gradient check signals convergence***
              ***Rediagonalizing the Fockian in SOSCF/NRSCF***

               *****************************************************
               *                     SUCCESS                       *
               *           SCF CONVERGED AFTER  12 CYCLES          *
               *****************************************************

Old exchange energy                            =    -16.763136739 Eh
New exchange energy                            =    -16.763133621 Eh
Exchange energy change after final integration =      0.000003118 Eh
Total energy after final integration           =   -687.925695348 Eh
Final COS-X integration done in                =     0.543 sec

----------------
TOTAL SCF ENERGY
----------------

Total Energy       :         -687.92569535 Eh          -18719.40985 eV

Components:
Nuclear Repulsion  :          282.93925514 Eh            7699.16855 eV
Electronic Energy  :         -970.86495049 Eh          -26418.57840 eV
One Electron Energy:        -1508.66303398 Eh          -41052.80824 eV
Two Electron Energy:          537.79808349 Eh           14634.22984 eV
Max COSX asymmetry :            0.00000630 Eh               0.00017 eV
CPCM Dielectric    :           -0.01520494 Eh              -0.41375 eV

Virial components:
Potential Energy   :        -1372.56219554 Eh          -37349.31614 eV
Kinetic Energy     :          684.63650019 Eh           18629.90630 eV
Virial Ratio       :            2.00480429


DFT components:
N(Alpha)           :       25.000078993208 electrons
N(Beta)            :       25.000078993208 electrons
N(Total)           :       50.000157986416 electrons
E(XC)              :      -43.133492894877 Eh       
DFET-embed. en.    :        0.000000000000 Eh       
CPCM Solvation Model Properties:
Surface-charge          :           -0.01307756
Charge-correction       :            0.00001097 Eh               0.00030 eV
Free-energy (cav+disp)  :  This term is not implemented in the current solvation scheme

---------------
SCF CONVERGENCE
---------------

  Last Energy change         ...    1.0017e-09  Tolerance :   1.0000e-08
  Last MAX-Density change    ...    2.6645e-15  Tolerance :   1.0000e-07
  Last RMS-Density change    ...    5.3794e-17  Tolerance :   5.0000e-09
  Last Orbital Gradient      ...    5.2469e-07  Tolerance :   1.0000e-05
  Last Orbital Rotation      ...    1.2512e-06  Tolerance :   1.0000e-05

             **** THE GBW FILE WAS UPDATED (C2_wt_wb97_typm1_neg.gbw) ****
             **** DENSITY C2_wt_wb97_typm1_neg.scfp WAS UPDATED ****
             **** ENERGY FILE WAS UPDATED (C2_wt_wb97_typm1_neg.en.tmp) ****
             **** THE GBW FILE WAS UPDATED (C2_wt_wb97_typm1_neg.gbw) ****
             **** DENSITY C2_wt_wb97_typm1_neg.scfp WAS UPDATED ****
----------------
ORBITAL ENERGIES
----------------

  NO   OCC          E(Eh)            E(eV) 
   0   2.0000     -89.241899     -2428.3955 
   1   2.0000     -24.898691      -677.5278 
   2   2.0000     -19.273133      -524.4486 
   3   2.0000     -19.270483      -524.3765 
   4   2.0000     -10.326995      -281.0118 
   5   2.0000      -8.315945      -226.2884 
   6   2.0000      -6.279415      -170.8716 
   7   2.0000      -6.273751      -170.7174 
   8   2.0000      -6.271889      -170.6668 
   9   2.0000      -1.456042       -39.6209 
  10   2.0000      -1.247126       -33.9360 
  11   2.0000      -1.152540       -31.3622 
  12   2.0000      -0.897968       -24.4350 
  13   2.0000      -0.806089       -21.9348 
  14   2.0000      -0.687869       -18.7179 
  15   2.0000      -0.671495       -18.2723 
  16   2.0000      -0.664520       -18.0825 
  17   2.0000      -0.583540       -15.8789 
  18   2.0000      -0.575648       -15.6642 
  19   2.0000      -0.546898       -14.8819 
  20   2.0000      -0.540819       -14.7164 
  21   2.0000      -0.502452       -13.6724 
  22   2.0000      -0.453165       -12.3312 
  23   2.0000      -0.438820       -11.9409 
  24   2.0000      -0.432719       -11.7749 
  25   0.0000       0.067518         1.8373 
  26   0.0000       0.099767         2.7148 
  27   0.0000       0.100151         2.7253 
  28   0.0000       0.102474         2.7885 
  29   0.0000       0.125791         3.4230 
  30   0.0000       0.135749         3.6939 
  31   0.0000       0.164109         4.4656 
  32   0.0000       0.165884         4.5139 
  33   0.0000       0.178490         4.8569 
  34   0.0000       0.184922         5.0320 
  35   0.0000       0.191518         5.2115 
  36   0.0000       0.211225         5.7477 
  37   0.0000       0.213007         5.7962 
  38   0.0000       0.234270         6.3748 
  39   0.0000       0.235519         6.4088 
  40   0.0000       0.250982         6.8296 
  41   0.0000       0.266179         7.2431 
  42   0.0000       0.279696         7.6109 
  43   0.0000       0.292661         7.9637 
  44   0.0000       0.298488         8.1223 
  45   0.0000       0.327192         8.9033 
  46   0.0000       0.336440         9.1550 
  47   0.0000       0.340939         9.2774 
  48   0.0000       0.360716         9.8156 
  49   0.0000       0.374133        10.1807 
  50   0.0000       0.379142        10.3170 
  51   0.0000       0.383555        10.4371 
  52   0.0000       0.406649        11.0655 
  53   0.0000       0.409445        11.1416 
  54   0.0000       0.438378        11.9289 
  55   0.0000       0.441688        12.0189 
  56   0.0000       0.448104        12.1935 
  57   0.0000       0.458606        12.4793 
  58   0.0000       0.498940        13.5768 
  59   0.0000       0.507400        13.8071 
  60   0.0000       0.515496        14.0273 
  61   0.0000       0.530595        14.4382 
  62   0.0000       0.536267        14.5926 
  63   0.0000       0.541535        14.7359 
  64   0.0000       0.542681        14.7671 
  65   0.0000       0.554879        15.0990 
  66   0.0000       0.565286        15.3822 
  67   0.0000       0.580272        15.7900 
  68   0.0000       0.633526        17.2391 
  69   0.0000       0.643606        17.5134 
  70   0.0000       0.670561        18.2469 
  71   0.0000       0.699510        19.0346 
  72   0.0000       0.719350        19.5745 
  73   0.0000       0.723875        19.6976 
  74   0.0000       0.758433        20.6380 
  75   0.0000       0.766699        20.8629 
  76   0.0000       0.768683        20.9169 
  77   0.0000       0.812250        22.1025 
  78   0.0000       0.833126        22.6705 
  79   0.0000       0.852959        23.2102 
  80   0.0000       0.862324        23.4650 
  81   0.0000       0.884224        24.0609 
  82   0.0000       0.894576        24.3427 
  83   0.0000       0.928306        25.2605 
  84   0.0000       1.009855        27.4795 
  85   0.0000       1.012208        27.5436 
  86   0.0000       1.028094        27.9759 
  87   0.0000       1.046000        28.4631 
  88   0.0000       1.064082        28.9551 
  89   0.0000       1.076503        29.2931 
  90   0.0000       1.115870        30.3644 
  91   0.0000       1.140802        31.0428 
  92   0.0000       1.142546        31.0903 
  93   0.0000       1.189867        32.3779 
  94   0.0000       1.226128        33.3646 
  95   0.0000       1.234943        33.6045 
  96   0.0000       1.305268        35.5181 
  97   0.0000       1.332343        36.2549 
  98   0.0000       1.387523        37.7564 
  99   0.0000       1.483920        40.3795 
 100   0.0000       1.585359        43.1398 
 101   0.0000       1.586782        43.1785 
 102   0.0000       1.616650        43.9913 
 103   0.0000       1.658873        45.1402 
 104   0.0000       1.685017        45.8516 
 105   0.0000       1.700717        46.2789 
 106   0.0000       1.727986        47.0209 
 107   0.0000       1.758511        47.8515 
 108   0.0000       1.766829        48.0779 
 109   0.0000       1.809190        49.2306 
 110   0.0000       1.885241        51.3000 
 111   0.0000       1.936914        52.7061 
 112   0.0000       1.974423        53.7268 
 113   0.0000       2.045162        55.6517 
 114   0.0000       2.096277        57.0426 
 115   0.0000       2.161158        58.8081 
 116   0.0000       2.170300        59.0569 
 117   0.0000       2.185588        59.4729 
 118   0.0000       2.363276        64.3080 
 119   0.0000       2.449906        66.6653 
 120   0.0000       2.634786        71.6962 
 121   0.0000       2.637451        71.7687 
 122   0.0000       2.906954        79.1022 
 123   0.0000       2.917564        79.3909 
 124   0.0000       2.934129        79.8417 
 125   0.0000       2.936570        79.9081 
 126   0.0000       2.940171        80.0061 
 127   0.0000       2.965575        80.6974 
 128   0.0000       2.973159        80.9038 
 129   0.0000       3.032564        82.5203 
 130   0.0000       3.105310        84.4998 
 131   0.0000       3.178915        86.5027 
 132   0.0000       3.184050        86.6424 
 133   0.0000       3.377478        91.9058 
 134   0.0000       3.381508        92.0155 
 135   0.0000       3.410031        92.7917 
 136   0.0000       3.435197        93.4765 
 137   0.0000       3.456186        94.0476 
 138   0.0000       3.653285        99.4109 
 139   0.0000       3.795741       103.2874 

                    ********************************
                    * MULLIKEN POPULATION ANALYSIS *
                    ********************************

-----------------------
MULLIKEN ATOMIC CHARGES
-----------------------
   0 C :    0.275089
   1 S :    1.300591
   2 O :   -0.669214
   3 F :   -0.392935
   4 O :   -0.685285
   5 H :    0.050217
   6 H :    0.060904
   7 H :    0.060632
Sum of atomic charges:   -0.0000000

--------------------------------
MULLIKEN REDUCED ORBITAL CHARGES
--------------------------------
  0 C s       :     2.641569  s :     2.641569
      pz      :     1.090533  p :     3.013186
      px      :     1.033592
      py      :     0.889061
      dz2     :     0.020344  d :     0.070156
      dxz     :     0.012740
      dyz     :     0.004045
      dx2y2   :     0.012375
      dxy     :     0.020652
  1 S s       :     5.103157  s :     5.103157
      pz      :     2.756748  p :     8.721826
      px      :     2.906113
      py      :     3.058966
      dz2     :     0.173936  d :     0.874425
      dxz     :     0.175344
      dyz     :     0.145173
      dx2y2   :     0.185340
      dxy     :     0.194633
  2 O s       :     3.924575  s :     3.924575
      pz      :     1.629613  p :     4.726426
      px      :     1.389782
      py      :     1.707031
      dz2     :     0.005963  d :     0.018213
      dxz     :     0.002321
      dyz     :     0.002977
      dx2y2   :     0.004256
      dxy     :     0.002695
  3 F s       :     3.962237  s :     3.962237
      pz      :     1.597437  p :     5.416044
      px      :     1.933961
      py      :     1.884646
      dz2     :     0.007907  d :     0.014655
      dxz     :     0.000504
      dyz     :     0.003249
      dx2y2   :     0.001634
      dxy     :     0.001360
  4 O s       :     3.930994  s :     3.930994
      pz      :     1.584475  p :     4.736268
      px      :     1.525438
      py      :     1.626355
      dz2     :     0.006695  d :     0.018024
      dxz     :     0.005368
      dyz     :    -0.000636
      dx2y2   :     0.002058
      dxy     :     0.004538
  5 H s       :     0.869769  s :     0.869769
      pz      :     0.057739  p :     0.080014
      px      :     0.009969
      py      :     0.012306
  6 H s       :     0.861396  s :     0.861396
      pz      :     0.025567  p :     0.077699
      px      :     0.050143
      py      :     0.001989
  7 H s       :     0.862263  s :     0.862263
      pz      :     0.030867  p :     0.077104
      px      :     0.029017
      py      :     0.017220


                     *******************************
                     * LOEWDIN POPULATION ANALYSIS *
                     *******************************

----------------------
LOEWDIN ATOMIC CHARGES
----------------------
   0 C :    0.138781
   1 S :    1.114118
   2 O :   -0.492539
   3 F :   -0.267542
   4 O :   -0.500557
   5 H :    0.007645
   6 H :   -0.000020
   7 H :    0.000115

-------------------------------
LOEWDIN REDUCED ORBITAL CHARGES
-------------------------------
  0 C s       :     2.728379  s :     2.728379
      pz      :     0.992464  p :     2.806140
      px      :     0.956983
      py      :     0.856693
      dz2     :     0.042593  d :     0.326700
      dxz     :     0.057060
      dyz     :     0.076966
      dx2y2   :     0.073948
      dxy     :     0.076133
  1 S s       :     4.665094  s :     4.665094
      pz      :     2.727393  p :     8.374676
      px      :     2.828646
      py      :     2.818638
      dz2     :     0.377878  d :     1.846112
      dxz     :     0.386786
      dyz     :     0.321504
      dx2y2   :     0.361840
      dxy     :     0.398104
  2 O s       :     3.558544  s :     3.558544
      pz      :     1.574571  p :     4.696480
      px      :     1.506517
      py      :     1.615392
      dz2     :     0.036032  d :     0.237515
      dxz     :     0.063910
      dyz     :     0.021334
      dx2y2   :     0.054358
      dxy     :     0.061880
  3 F s       :     3.715151  s :     3.715151
      pz      :     1.641232  p :     5.332763
      px      :     1.861976
      py      :     1.829555
      dz2     :     0.071248  d :     0.219628
      dxz     :     0.057602
      dyz     :     0.061469
      dx2y2   :     0.013204
      dxy     :     0.016105
  4 O s       :     3.564628  s :     3.564628
      pz      :     1.555255  p :     4.701827
      px      :     1.541127
      py      :     1.605444
      dz2     :     0.040166  d :     0.234102
      dxz     :     0.046889
      dyz     :     0.043043
      dx2y2   :     0.053093
      dxy     :     0.050911
  5 H s       :     0.719787  s :     0.719787
      pz      :     0.123353  p :     0.272568
      px      :     0.073159
      py      :     0.076057
  6 H s       :     0.725877  s :     0.725877
      pz      :     0.088684  p :     0.274143
      px      :     0.120692
      py      :     0.064767
  7 H s       :     0.725986  s :     0.725986
      pz      :     0.095128  p :     0.273899
      px      :     0.093869
      py      :     0.084902


                      *****************************
                      * MAYER POPULATION ANALYSIS *
                      *****************************

  NA   - Mulliken gross atomic population
  ZA   - Total nuclear charge
  QA   - Mulliken gross atomic charge
  VA   - Mayer's total valence
  BVA  - Mayer's bonded valence
  FA   - Mayer's free valence

  ATOM       NA         ZA         QA         VA         BVA        FA
  0 C      5.7249     6.0000     0.2751     3.9159     3.9159    -0.0000
  1 S     14.6994    16.0000     1.3006     5.0008     5.0008    -0.0000
  2 O      8.6692     8.0000    -0.6692     1.6579     1.6579     0.0000
  3 F      9.3929     9.0000    -0.3929     0.7448     0.7448     0.0000
  4 O      8.6853     8.0000    -0.6853     1.6411     1.6411    -0.0000
  5 H      0.9498     1.0000     0.0502     1.1827     1.1827    -0.0000
  6 H      0.9391     1.0000     0.0609     1.1641     1.1641    -0.0000
  7 H      0.9394     1.0000     0.0606     1.1633     1.1633    -0.0000

  Mayer bond orders larger than 0.100000
B(  0-C ,  1-S ) :   1.0177 B(  0-C ,  5-H ) :   0.9294 B(  0-C ,  6-H ) :   0.9336 
B(  0-C ,  7-H ) :   0.9337 B(  1-S ,  2-O ) :   1.5274 B(  1-S ,  3-F ) :   0.6711 
B(  1-S ,  4-O ) :   1.5127 

-------
TIMINGS
-------

Total SCF time: 0 days 0 hours 0 min 5 sec 

Total time                  ....       5.903 sec
Sum of individual times     ....       5.701 sec  ( 96.6%)

Fock matrix formation       ....       5.059 sec  ( 85.7%)
  Split-RI-J                ....       0.390 sec  (  7.7% of F)
  Chain of spheres X        ....       3.211 sec  ( 63.5% of F)
  XC integration            ....       0.513 sec  ( 10.1% of F)
    Basis function eval.    ....       0.136 sec  ( 26.6% of XC)
    Density eval.           ....       0.090 sec  ( 17.5% of XC)
    XC-Functional eval.     ....       0.051 sec  ( 10.0% of XC)
    XC-Potential eval.      ....       0.120 sec  ( 23.5% of XC)
Diagonalization             ....       0.035 sec  (  0.6%)
Density matrix formation    ....       0.006 sec  (  0.1%)
Population analysis         ....       0.006 sec  (  0.1%)
Initial guess               ....       0.029 sec  (  0.5%)
Orbital Transformation      ....       0.000 sec  (  0.0%)
Orbital Orthonormalization  ....       0.000 sec  (  0.0%)
DIIS solution               ....       0.028 sec  (  0.5%)
SOSCF solution              ....       0.032 sec  (  0.5%)
Grid generation             ....       0.506 sec  (  8.6%)

Maximum memory used throughout the entire SCF-calculation: 48.6 MB


-------------------------------------------------------------------------------
                          DFT DISPERSION CORRECTION                            
                                                                               
                              DFTD3 V3.1  Rev 1                                
                              USING zero damping                               
-------------------------------------------------------------------------------
The omegaB97X-D3 functional is recognized. Fit by Chai et al.
Active option DFTDOPT                   ...         3   

molecular C6(AA) [au] = 915.032542 


            DFT-D V3
 parameters
 s6 scaling factor         :     1.0000 
 rs6 scaling factor        :     1.2810 
 s8 scaling factor         :     1.0000 
 rs8 scaling factor        :     1.0940 
 Damping factor alpha6     :    14.0000 
 Damping factor alpha8     :    16.0000 
 ad hoc parameters k1-k3   :    16.0000     1.3333    -4.0000 

 Edisp/kcal,au: -0.965199701479  -0.001538143468 
 E6   /kcal   :  -0.314730112 
 E8   /kcal   :  -0.650469590 
 % E8         :  67.392228638 

-------------------------   ----------------
Dispersion correction           -0.001538143
-------------------------   ----------------


-------------------------   --------------------
FINAL SINGLE POINT ENERGY      -687.927233491949
-------------------------   --------------------


                            ***************************************
                            *     ORCA property calculations      *
                            ***************************************

                                    ---------------------
                                    Active property flags
                                    ---------------------
   (+) Dipole Moment


------------------------------------------------------------------------------
                       ORCA ELECTRIC PROPERTIES CALCULATION
------------------------------------------------------------------------------

Dipole Moment Calculation                       ... on
Quadrupole Moment Calculation                   ... off
Polarizability Calculation                      ... off
GBWName                                         ... C2_wt_wb97_typm1_neg.gbw
Electron density file                           ... C2_wt_wb97_typm1_neg.scfp
The origin for moment calculation is the CENTER OF MASS  = (-2.421894,  0.414377 -8.217190)

-------------
DIPOLE MOMENT
-------------
                                X             Y             Z
Electronic contribution:     -2.15506      -4.35792       1.65947
Nuclear contribution   :      2.84473       5.67605      -0.40731
                        -----------------------------------------
Total Dipole Moment    :      0.68967       1.31813       1.25217
                        -----------------------------------------
Magnitude (a.u.)       :      1.94449
Magnitude (Debye)      :      4.94250



--------------------
Rotational spectrum 
--------------------
 
Rotational constants in cm-1:     0.162669     0.154016     0.148818 
Rotational constants in MHz :  4876.699308  4617.284822  4461.441982 

 Dipole components along the rotational axes: 
x,y,z [a.u.] :     1.255895     1.483848     0.044319 
x,y,z [Debye]:     3.192231     3.771641     0.112650 

 

Timings for individual modules:

Sum of individual times         ...        6.815 sec (=   0.114 min)
GTO integral calculation        ...        0.540 sec (=   0.009 min)   7.9 %
SCF iterations                  ...        6.275 sec (=   0.105 min)  92.1 %
                             ****ORCA TERMINATED NORMALLY****
TOTAL RUN TIME: 0 days 0 hours 0 minutes 7 seconds 379 msec
