
                                        *****************
                                        * O   R   C   A *
                                        *****************

                                            #,                                       
                                            ###                                      
                                            ####                                     
                                            #####                                    
                                            ######                                   
                                           ########,                                 
                                     ,,################,,,,,                         
                               ,,#################################,,                 
                          ,,##########################################,,             
                       ,#########################################, ''#####,          
                    ,#############################################,,   '####,        
                  ,##################################################,,,,####,       
                ,###########''''           ''''###############################       
              ,#####''   ,,,,##########,,,,          '''####'''          '####       
            ,##' ,,,,###########################,,,                        '##       
           ' ,,###''''                  '''############,,,                           
         ,,##''                                '''############,,,,        ,,,,,,###''
      ,#''                                            '''#######################'''  
     '                                                          ''''####''''         
             ,#######,   #######,   ,#######,      ##                                
            ,#'     '#,  ##    ##  ,#'     '#,    #''#        ######   ,####,        
            ##       ##  ##   ,#'  ##            #'  '#       #        #'  '#        
            ##       ##  #######   ##           ,######,      #####,   #    #        
            '#,     ,#'  ##    ##  '#,     ,#' ,#      #,         ##   #,  ,#        
             '#######'   ##     ##  '#######'  #'      '#     #####' # '####'        



                  #######################################################
                  #                        -***-                        #
                  #          Department of theory and spectroscopy      #
                  #    Directorship and core code : Frank Neese         #
                  #        Max Planck Institute fuer Kohlenforschung    #
                  #                Kaiser Wilhelm Platz 1               #
                  #                 D-45470 Muelheim/Ruhr               #
                  #                      Germany                        #
                  #                                                     #
                  #                  All rights reserved                #
                  #                        -***-                        #
                  #######################################################


                         Program Version 5.0.0 -  RELEASE  -
                                (SVN: $Rev: 19529$)
                ($Date: 2021-06-28 11:36:33 +0200 (Mo, 28 Jun 2021) $)


 With contributions from (in alphabetic order):
   Daniel Aravena         : Magnetic Suceptibility
   Michael Atanasov       : Ab Initio Ligand Field Theory (pilot matlab implementation)
   Alexander A. Auer      : GIAO ZORA, VPT2 properties, NMR spectrum
   Ute Becker             : Parallelization
   Giovanni Bistoni       : ED, misc. LED, open-shell LED, HFLD
   Martin Brehm           : Molecular dynamics
   Dmytro Bykov           : SCF Hessian
   Vijay G. Chilkuri      : MRCI spin determinant printing, contributions to CSF-ICE
   Dipayan Datta          : RHF DLPNO-CCSD density
   Achintya Kumar Dutta   : EOM-CC, STEOM-CC
   Dmitry Ganyushin       : Spin-Orbit,Spin-Spin,Magnetic field MRCI
   Miquel Garcia          : C-PCM Hessian, Gaussian charge scheme
   Yang Guo               : DLPNO-NEVPT2, F12-NEVPT2, CIM, IAO-localization
   Andreas Hansen         : Spin unrestricted coupled pair/coupled cluster methods
   Benjamin Helmich-Paris : MC-RPA, TRAH-SCF, COSX integrals
   Lee Huntington         : MR-EOM, pCC
   Robert Izsak           : Overlap fitted RIJCOSX, COSX-SCS-MP3, EOM
   Marcus Kettner         : VPT2
   Christian Kollmar      : KDIIS, OOCD, Brueckner-CCSD(T), CCSD density, CASPT2, CASPT2-K
   Simone Kossmann        : Meta GGA functionals, TD-DFT gradient, OOMP2, MP2 Hessian
   Martin Krupicka        : Initial AUTO-CI
   Lucas Lang             : DCDCAS
   Marvin Lechner         : AUTO-CI (C++ implementation), FIC-MRCC
   Dagmar Lenk            : GEPOL surface, SMD
   Dimitrios Liakos       : Extrapolation schemes; Compound Job, initial MDCI parallelization
   Dimitrios Manganas     : Further ROCIS development; embedding schemes
   Dimitrios Pantazis     : SARC Basis sets
   Anastasios Papadopoulos: AUTO-CI, single reference methods and gradients
   Taras Petrenko         : DFT Hessian,TD-DFT gradient, ASA, ECA, R-Raman, ABS, FL, XAS/XES, NRVS
   Peter Pinski           : DLPNO-MP2, DLPNO-MP2 Gradient
   Christoph Reimann      : Effective Core Potentials
   Marius Retegan         : Local ZFS, SOC
   Christoph Riplinger    : Optimizer, TS searches, QM/MM, DLPNO-CCSD(T), (RO)-DLPNO pert. Triples
   Tobias Risthaus        : Range-separated hybrids, TD-DFT gradient, RPA, STAB
   Michael Roemelt        : Original ROCIS implementation
   Masaaki Saitow         : Open-shell DLPNO-CCSD energy and density
   Barbara Sandhoefer     : DKH picture change effects
   Avijit Sen             : IP-ROCIS
   Kantharuban Sivalingam : CASSCF convergence, NEVPT2, FIC-MRCI
   Bernardo de Souza      : ESD, SOC TD-DFT
   Georgi Stoychev        : AutoAux, RI-MP2 NMR
   Willem Van den Heuvel  : Paramagnetic NMR
   Boris Wezisla          : Elementary symmetry handling
   Frank Wennmohs         : Technical directorship


 We gratefully acknowledge several colleagues who have allowed us to
 interface, adapt or use parts of their codes:
   Stefan Grimme, W. Hujo, H. Kruse, P. Pracht,  : VdW corrections, initial TS optimization,
                  C. Bannwarth, S. Ehlert          DFT functionals, gCP, sTDA/sTD-DF
   Ed Valeev, F. Pavosevic, A. Kumar             : LibInt (2-el integral package), F12 methods
   Garnet Chan, S. Sharma, J. Yang, R. Olivares  : DMRG
   Ulf Ekstrom                                   : XCFun DFT Library
   Mihaly Kallay                                 : mrcc  (arbitrary order and MRCC methods)
   Jiri Pittner, Ondrej Demel                    : Mk-CCSD
   Frank Weinhold                                : gennbo (NPA and NBO analysis)
   Christopher J. Cramer and Donald G. Truhlar   : smd solvation model
   Lars Goerigk                                  : TD-DFT with DH, B97 family of functionals
   V. Asgeirsson, H. Jonsson                     : NEB implementation
   FAccTs GmbH                                   : IRC, NEB, NEB-TS, DLPNO-Multilevel, CI-OPT
                                                   MM, QMMM, 2- and 3-layer-ONIOM, Crystal-QMMM,
                                                   LR-CPCM, SF, NACMEs, symmetry and pop. for TD-DFT,
                                                   nearIR, NL-DFT gradient (VV10), updates on ESD,
                                                   ML-optimized integration grids
   S Lehtola, MJT Oliveira, MAL Marques          : LibXC Library
   Liviu Ungur et al                             : ANISO software


 Your calculation uses the libint2 library for the computation of 2-el integrals
 For citations please refer to: http://libint.valeyev.net

 Your ORCA version has been built with support for libXC version: 5.1.0
 For citations please refer to: https://tddft.org/programs/libxc/

 This ORCA versions uses:
   CBLAS   interface :  Fast vector & matrix operations
   LAPACKE interface :  Fast linear algebra routines
   SCALAPACK package :  Parallel linear algebra routines
   Shared memory     :  Shared parallel matrices
   BLAS/LAPACK       :  OpenBLAS 0.3.15  USE64BITINT DYNAMIC_ARCH NO_AFFINITY Haswell SINGLE_THREADED
        Core in use  :  Haswell
   Copyright (c) 2011-2014, The OpenBLAS Project


Your calculation utilizes the atom-pairwise dispersion correction
with the Becke-Johnson damping scheme (D3BJ)
Cite in your paper:
S.Grimme, S.Ehrlich, L.Goerigk, J Comput Chem, (2011), 32, 1456–1465 
S.Grimme, J.Antony, S.Ehrlich and H.Krieg, J.Chem.Phys., 132, (2010), 154104 
   

================================================================================

----- Orbital basis set information -----
Your calculation utilizes the basis: def2-TZVPD
   F. Weigend and R. Ahlrichs, Phys. Chem. Chem. Phys. 7, 3297 (2005).
   D. Rappoport and F. Furche, J. Chem. Phys. 133 134105 (2010).

----- AuxJ basis set information -----
Your calculation utilizes the auxiliary basis: def2/J
   F. Weigend, Phys. Chem. Chem. Phys. 8, 1057 (2006).

================================================================================
                                        WARNINGS
                       Please study these warnings very carefully!
================================================================================


INFO   : the flag for use of the SHARK integral package has been found!

================================================================================
                                       INPUT FILE
================================================================================
NAME = TZVPD_B3LYP_A_wt_dlpno_neg.com
|  1> !B3LYP D3BJ RIJCOSX def2-TZVPD def2/J TightSCF
|  2> *xyz -1 1 
|  3> C         -5.57236       -5.80780       -0.81644
|  4> S         -6.90318       -4.61903       -0.52846
|  5> O         -8.11485       -5.25093       -0.95701
|  6> O         -6.53271       -3.42684       -1.31485
|  7> O         -6.86563       -4.29496        0.91412
|  8> C         -4.45780       -5.94187        0.22919
|  9> H         -5.17735       -5.54257       -1.79771
| 10> H         -6.07420       -6.76889       -0.92127
| 11> H         -3.75515       -6.68239       -0.09144
| 12> H         -4.88182       -6.23486        1.16689
| 13> H         -3.95908       -5.00189        0.34143
| 14> *
| 15> %MaxCore 64000
| 16> 
| 17> %pal nprocs 4
| 18> end  
| 19> 
| 20> %scf
| 21>   MaxIter 150
| 22> end
| 23> 
| 24>                          ****END OF INPUT****
================================================================================

                       ****************************
                       * Single Point Calculation *
                       ****************************

---------------------------------
CARTESIAN COORDINATES (ANGSTROEM)
---------------------------------
  C     -5.572360   -5.807800   -0.816440
  S     -6.903180   -4.619030   -0.528460
  O     -8.114850   -5.250930   -0.957010
  O     -6.532710   -3.426840   -1.314850
  O     -6.865630   -4.294960    0.914120
  C     -4.457800   -5.941870    0.229190
  H     -5.177350   -5.542570   -1.797710
  H     -6.074200   -6.768890   -0.921270
  H     -3.755150   -6.682390   -0.091440
  H     -4.881820   -6.234860    1.166890
  H     -3.959080   -5.001890    0.341430

----------------------------
CARTESIAN COORDINATES (A.U.)
----------------------------
  NO LB      ZA    FRAG     MASS         X           Y           Z
   0 C     6.0000    0    12.011  -10.530234  -10.975151   -1.542848
   1 S    16.0000    0    32.060  -13.045120   -8.728702   -0.998645
   2 O     8.0000    0    15.999  -15.334844   -9.922820   -1.808487
   3 O     8.0000    0    15.999  -12.345033   -6.475789   -2.484706
   4 O     8.0000    0    15.999  -12.974160   -8.116298    1.727436
   5 C     6.0000    0    12.011   -8.424021  -11.228507    0.433106
   6 H     1.0000    0     1.008   -9.783774  -10.473939   -3.397180
   7 H     1.0000    0     1.008  -11.478574  -12.791348   -1.740948
   8 H     1.0000    0     1.008   -7.096205  -12.627887   -0.172797
   9 H     1.0000    0     1.008   -9.225303  -11.782178    2.205103
  10 H     1.0000    0     1.008   -7.481577   -9.452202    0.645209

--------------------------------
INTERNAL COORDINATES (ANGSTROEM)
--------------------------------
 C      0   0   0     0.000000000000     0.00000000     0.00000000
 S      1   0   0     1.807536573821     0.00000000     0.00000000
 O      2   1   0     1.432165109685   106.56208582     0.00000000
 O      2   1   3     1.475457301686   105.16666730   238.45210070
 O      2   1   3     1.479009271032   106.30854122   122.18883319
 C      1   2   3     1.534131955016   118.93292281   220.05041070
 H      1   2   3     1.090536870491   104.48290251    94.52506513
 H      1   2   3     1.089278064867   104.85705990   341.96808105
 H      6   1   2     1.069995555972   109.47104647   179.99982600
 H      6   1   2     1.070008126371   109.47102823    60.00051838
 H      6   1   2     1.069991521649   109.47204847   300.00069232

---------------------------
INTERNAL COORDINATES (A.U.)
---------------------------
 C      0   0   0     0.000000000000     0.00000000     0.00000000
 S      1   0   0     3.415749101568     0.00000000     0.00000000
 O      2   1   0     2.706399835863   106.56208582     0.00000000
 O      2   1   3     2.788210222482   105.16666730   238.45210070
 O      2   1   3     2.794922471782   106.30854122   122.18883319
 C      1   2   3     2.899089248277   118.93292281   220.05041070
 H      1   2   3     2.060816024171   104.48290251    94.52506513
 H      1   2   3     2.058437226286   104.85705990   341.96808105
 H      6   1   2     2.021998565300   109.47104647   179.99982600
 H      6   1   2     2.022022319911   109.47102823    60.00051838
 H      6   1   2     2.021990941534   109.47204847   300.00069232

---------------------
BASIS SET INFORMATION
---------------------
There are 4 groups of distinct atoms

 Group   1 Type C   : 12s6p3d1f contracted to 6s3p3d1f pattern {621111/411/111/1}
 Group   2 Type S   : 15s10p4d1f contracted to 6s6p3d1f pattern {732111/511111/211/1}
 Group   3 Type O   : 12s7p3d1f contracted to 6s4p3d1f pattern {621111/4111/111/1}
 Group   4 Type H   : 5s2p contracted to 3s2p pattern {311/11}

Atom   0C    basis set group =>   1
Atom   1S    basis set group =>   2
Atom   2O    basis set group =>   3
Atom   3O    basis set group =>   3
Atom   4O    basis set group =>   3
Atom   5C    basis set group =>   1
Atom   6H    basis set group =>   4
Atom   7H    basis set group =>   4
Atom   8H    basis set group =>   4
Atom   9H    basis set group =>   4
Atom  10H    basis set group =>   4
---------------------------------
AUXILIARY/J BASIS SET INFORMATION
---------------------------------
There are 4 groups of distinct atoms

 Group   1 Type C   : 12s5p4d2f1g contracted to 6s4p3d1f1g pattern {711111/2111/211/2/1}
 Group   2 Type S   : 14s5p5d2f1g contracted to 8s4p3d1f1g pattern {71111111/2111/311/2/1}
 Group   3 Type O   : 12s5p4d2f1g contracted to 6s4p3d1f1g pattern {711111/2111/211/2/1}
 Group   4 Type H   : 5s2p1d contracted to 3s1p1d pattern {311/2/1}

Atom   0C    basis set group =>   1
Atom   1S    basis set group =>   2
Atom   2O    basis set group =>   3
Atom   3O    basis set group =>   3
Atom   4O    basis set group =>   3
Atom   5C    basis set group =>   1
Atom   6H    basis set group =>   4
Atom   7H    basis set group =>   4
Atom   8H    basis set group =>   4
Atom   9H    basis set group =>   4
Atom  10H    basis set group =>   4


           ************************************************************
           *        Program running with 4 parallel MPI-processes     *
           *              working on a common directory               *
           ************************************************************
------------------------------------------------------------------------------
                           ORCA GTO INTEGRAL CALCULATION
                           -- RI-GTO INTEGRALS CHOSEN --
------------------------------------------------------------------------------
------------------------------------------------------------------------------
                   ___                                                        
                  /   \      - P O W E R E D   B Y -                         
                 /     \                                                     
                 |  |  |   _    _      __       _____    __    __             
                 |  |  |  | |  | |    /  \     |  _  \  |  |  /  |          
                  \  \/   | |  | |   /    \    | | | |  |  | /  /          
                 / \  \   | |__| |  /  /\  \   | |_| |  |  |/  /          
                |  |  |   |  __  | /  /__\  \  |    /   |      \           
                |  |  |   | |  | | |   __   |  |    \   |  |\   \          
                \     /   | |  | | |  |  |  |  | |\  \  |  | \   \       
                 \___/    |_|  |_| |__|  |__|  |_| \__\ |__|  \__/        
                                                                              
                      - O R C A' S   B I G   F R I E N D -                    
                                      &                                       
                       - I N T E G R A L  F E E D E R -                       
                                                                              
 v1 FN, 2020, v2 2021                                                         
------------------------------------------------------------------------------


Reading SHARK input file TZVPD_B3LYP_A_wt_dlpno_neg.SHARKINP.tmp ... ok
----------------------
SHARK INTEGRAL PACKAGE
----------------------

Number of atoms                             ...     11
Number of basis functions                   ...    285
Number of shells                            ...    109
Maximum angular momentum                    ...      3
Integral batch strategy                     ... SHARK/LIBINT Hybrid
RI-J (if used) integral strategy            ... SPLIT-RIJ (Revised 2003 algorithm where possible)
Printlevel                                  ...      1
Contraction scheme used                     ... SEGMENTED contraction
Coulomb Range Separation                    ... NOT USED
Exchange Range Separation                   ... NOT USED
Finite Nucleus Model                        ... NOT USED
Auxiliary Coulomb fitting basis             ... AVAILABLE
   # of basis functions in Aux-J            ...    351
   # of shells in Aux-J                     ...    117
   Maximum angular momentum in Aux-J        ...      4
Auxiliary J/K fitting basis                 ... NOT available
Auxiliary Correlation fitting basis         ... NOT available
Auxiliary 'external' fitting basis          ... NOT available
Integral threshold                          ...     2.500000e-11
Primitive cut-off                           ...     2.500000e-12
Primitive pair pre-selection threshold      ...     2.500000e-12

Calculating pre-screening integrals         ... done (  0.1 sec) Dimension = 109
Organizing shell pair data                  ... done (  0.1 sec)
Shell pair information
Total number of shell pairs                 ...      5995
Shell pairs after pre-screening             ...      5746
Total number of primitive shell pairs       ...     16092
Primitive shell pairs kept                  ...     12428
          la=0 lb=0:   1218 shell pairs
          la=1 lb=0:   1672 shell pairs
          la=1 lb=1:    588 shell pairs
          la=2 lb=0:    876 shell pairs
          la=2 lb=1:    604 shell pairs
          la=2 lb=2:    169 shell pairs
          la=3 lb=0:    289 shell pairs
          la=3 lb=1:    201 shell pairs
          la=3 lb=2:    108 shell pairs
          la=3 lb=3:     21 shell pairs

Calculating one electron integrals          ... done (  0.0 sec)
Calculating RI/J V-Matrix + Cholesky decomp.... done (  0.0 sec)
Calculating Nuclear repulsion               ... done (  0.0 sec) ENN=    348.101115631751 Eh

SHARK setup successfully completed in   0.3 seconds

Maximum memory used throughout the entire GTOINT-calculation: 15.3 MB


           ************************************************************
           *        Program running with 4 parallel MPI-processes     *
           *              working on a common directory               *
           ************************************************************
-------------------------------------------------------------------------------
                                 ORCA SCF
-------------------------------------------------------------------------------

------------
SCF SETTINGS
------------
Hamiltonian:
 Density Functional     Method          .... DFT(GTOs)
 Exchange Functional    Exchange        .... B88
   X-Alpha parameter    XAlpha          ....  0.666667
   Becke's b parameter  XBeta           ....  0.004200
 Correlation Functional Correlation     .... LYP
 LDA part of GGA corr.  LDAOpt          .... VWN-5
 Gradients option       PostSCFGGA      .... off
 Hybrid DFT is turned on
   Fraction HF Exchange ScalHFX         ....  0.200000
   Scaling of DF-GGA-X  ScalDFX         ....  0.720000
   Scaling of DF-GGA-C  ScalDFC         ....  0.810000
   Scaling of DF-LDA-C  ScalLDAC        ....  1.000000
   Perturbative correction              ....  0.000000
   Density functional embedding theory  .... OFF
   NL short-range parameter             ....  4.800000
 RI-approximation to the Coulomb term is turned on
   Number of AuxJ basis functions       .... 351
   RIJ-COSX (HFX calculated with COS-X)).... on


General Settings:
 Integral files         IntName         .... TZVPD_B3LYP_A_wt_dlpno_neg
 Hartree-Fock type      HFTyp           .... RHF
 Total Charge           Charge          ....   -1
 Multiplicity           Mult            ....    1
 Number of Electrons    NEL             ....   58
 Basis Dimension        Dim             ....  285
 Nuclear Repulsion      ENuc            ....    348.1011156318 Eh

Convergence Acceleration:
 DIIS                   CNVDIIS         .... on
   Start iteration      DIISMaxIt       ....    12
   Startup error        DIISStart       ....  0.200000
   # of expansion vecs  DIISMaxEq       ....     5
   Bias factor          DIISBfac        ....   1.050
   Max. coefficient     DIISMaxC        ....  10.000
 Trust-Rad. Augm. Hess. CNVTRAH         .... auto
   Auto Start mean grad. ratio tolernc. ....  1.125000
   Auto Start start iteration           ....    20
   Auto Start num. interpolation iter.  ....    10
   Max. Number of Micro iterations      ....    16
   Max. Number of Macro iterations      .... Maxiter - #DIIS iter
   Number of Davidson start vectors     ....     2
   Converg. threshold I  (grad. norm)   ....   1.000e-05
   Converg. threshold II (energy diff.) ....   1.000e-08
   Grad. Scal. Fac. for Micro threshold ....   0.100
   Minimum threshold for Micro iter.    ....   0.010
   NR start threshold (gradient norm)   ....   0.001
   Initial trust radius                 ....   0.400
   Minimum AH scaling param. (alpha)    ....   1.000
   Maximum AH scaling param. (alpha)    .... 1000.000
   Orbital update algorithm             .... Taylor
   White noise on init. David. guess    .... on
   Maximum white noise                  ....   0.010
   Quad. conv. algorithm                .... NR
 SOSCF                  CNVSOSCF        .... on
   Start iteration      SOSCFMaxIt      ....   150
   Startup grad/error   SOSCFStart      ....  0.003300
 Level Shifting         CNVShift        .... on
   Level shift para.    LevelShift      ....    0.2500
   Turn off err/grad.   ShiftErr        ....    0.0010
 Zerner damping         CNVZerner       .... off
 Static damping         CNVDamp         .... on
   Fraction old density DampFac         ....    0.7000
   Max. Damping (<1)    DampMax         ....    0.9800
   Min. Damping (>=0)   DampMin         ....    0.0000
   Turn off err/grad.   DampErr         ....    0.1000
 Fernandez-Rico         CNVRico         .... off

SCF Procedure:
 Maximum # iterations   MaxIter         ....   150
 SCF integral mode      SCFMode         .... Direct
   Integral package                     .... SHARK and LIBINT hybrid scheme
 Reset frequency        DirectResetFreq ....    20
 Integral Threshold     Thresh          ....  2.500e-11 Eh
 Primitive CutOff       TCut            ....  2.500e-12 Eh

Convergence Tolerance:
 Convergence Check Mode ConvCheckMode   .... Total+1el-Energy
 Convergence forced     ConvForced      .... 0
 Energy Change          TolE            ....  1.000e-08 Eh
 1-El. energy change                    ....  1.000e-05 Eh
 Orbital Gradient       TolG            ....  1.000e-05
 Orbital Rotation angle TolX            ....  1.000e-05
 DIIS Error             TolErr          ....  5.000e-07


Diagonalization of the overlap matrix:
Smallest eigenvalue                        ... 1.159e-05
Time for diagonalization                   ...    0.023 sec
Threshold for overlap eigenvalues          ... 1.000e-08
Number of eigenvalues below threshold      ... 0
Time for construction of square roots      ...    0.015 sec
Total time needed                          ...    0.040 sec

Time for model grid setup =    0.119 sec

------------------------------
INITIAL GUESS: MODEL POTENTIAL
------------------------------
Loading Hartree-Fock densities                     ... done
Calculating cut-offs                               ... done
Initializing the effective Hamiltonian             ... done
Setting up the integral package (SHARK)            ... done
Starting the Coulomb interaction                   ... done (   0.1 sec)
Reading the grid                                   ... done
Mapping shells                                     ... done
Starting the XC term evaluation                    ... done (   0.2 sec)
  promolecular density results
     # of electrons  =     56.997559472
     EX              =    -61.483666563
     EC              =     -2.098908965
     EX+EC           =    -63.582575528
Transforming the Hamiltonian                       ... done (   0.0 sec)
Diagonalizing the Hamiltonian                      ... done (   0.0 sec)
Back transforming the eigenvectors                 ... done (   0.0 sec)
Now organizing SCF variables                       ... done
                      ------------------
                      INITIAL GUESS DONE (   0.4 sec)
                      ------------------
-------------------
DFT GRID GENERATION
-------------------

General Integration Accuracy     IntAcc      ... 4.388
Radial Grid Type                 RadialGrid  ... OptM3 with GC (2021)
Angular Grid (max. ang.)         AngularGrid ... 4 (Lebedev-302)
Angular grid pruning method      GridPruning ... 4 (adaptive)
Weight generation scheme         WeightScheme... Becke
Basis function cutoff            BFCut       ... 1.0000e-11
Integration weight cutoff        WCut        ... 1.0000e-14
Angular grids for H and He will be reduced by one unit
Partially contracted basis set               ... off
Rotationally invariant grid construction     ... off

Total number of grid points                  ...    56617
Total number of batches                      ...      891
Average number of points per batch           ...       63
Average number of grid points per atom       ...     5147
Time for grid setup =    0.453 sec

--------------------
COSX GRID GENERATION
--------------------

GRIDX 1
-------
General Integration Accuracy     IntAcc      ... 3.816
Radial Grid Type                 RadialGrid  ... OptM3 with GC (2021)
Angular Grid (max. ang.)         AngularGrid ... 1 (Lebedev-50)
Angular grid pruning method      GridPruning ... 4 (adaptive)
Weight generation scheme         WeightScheme... Becke
Basis function cutoff            BFCut       ... 1.0000e-11
Integration weight cutoff        WCut        ... 1.0000e-14
Angular grids for H and He will be reduced by one unit
Partially contracted basis set               ... on
Rotationally invariant grid construction     ... off

Total number of grid points                  ...     7023
Total number of batches                      ...      115
Average number of points per batch           ...       61
Average number of grid points per atom       ...      638
UseSFitting                                  ... on

GRIDX 2
-------
General Integration Accuracy     IntAcc      ... 4.020
Radial Grid Type                 RadialGrid  ... OptM3 with GC (2021)
Angular Grid (max. ang.)         AngularGrid ... 2 (Lebedev-110)
Angular grid pruning method      GridPruning ... 4 (adaptive)
Weight generation scheme         WeightScheme... Becke
Basis function cutoff            BFCut       ... 1.0000e-11
Integration weight cutoff        WCut        ... 1.0000e-14
Angular grids for H and He will be reduced by one unit
Partially contracted basis set               ... on
Rotationally invariant grid construction     ... off

Total number of grid points                  ...    17410
Total number of batches                      ...      279
Average number of points per batch           ...       62
Average number of grid points per atom       ...     1583
UseSFitting                                  ... on

GRIDX 3
-------
General Integration Accuracy     IntAcc      ... 4.338
Radial Grid Type                 RadialGrid  ... OptM3 with GC (2021)
Angular Grid (max. ang.)         AngularGrid ... 3 (Lebedev-194)
Angular grid pruning method      GridPruning ... 4 (adaptive)
Weight generation scheme         WeightScheme... Becke
Basis function cutoff            BFCut       ... 1.0000e-11
Integration weight cutoff        WCut        ... 1.0000e-14
Angular grids for H and He will be reduced by one unit
Partially contracted basis set               ... on
Rotationally invariant grid construction     ... off

Total number of grid points                  ...    39343
Total number of batches                      ...      618
Average number of points per batch           ...       63
Average number of grid points per atom       ...     3577
UseSFitting                                  ... on

Time for X-Grid setup             =    0.508 sec

--------------
SCF ITERATIONS
--------------
ITER       Energy         Delta-E        Max-DP      RMS-DP      [F,P]     Damp
               ***  Starting incremental Fock matrix formation  ***
  0   -702.6627033586   0.000000000000 0.12712353  0.00185143  0.3395614 0.7000
  1   -702.8803251061  -0.217621747503 0.07922156  0.00115013  0.1310527 0.7000
                               ***Turning on DIIS***
  2   -702.9510137443  -0.070688638206 0.08411246  0.00164311  0.0428355 0.0000
  3   -703.0781209439  -0.127107199622 0.05674731  0.00076729  0.0752326 0.0000
  4   -703.1012090624  -0.023088118481 0.02078942  0.00025625  0.0178082 0.0000
  5   -703.1029696972  -0.001760634810 0.00560392  0.00008069  0.0037267 0.0000
                      *** Initiating the SOSCF procedure ***
                           *** Shutting down DIIS ***
                      *** Re-Reading the Fockian *** 
                      *** Removing any level shift *** 
ITER      Energy       Delta-E        Grad      Rot      Max-DP    RMS-DP
  6   -703.10305642  -0.0000867208  0.000224  0.000224  0.006373  0.000098
               *** Restarting incremental Fock matrix formation ***
  7   -703.10306809  -0.0000116753  0.000160  0.000344  0.001618  0.000028
  8   -703.10306336   0.0000047348  0.000336  0.000231  0.000548  0.000010
  9   -703.10306976  -0.0000063987  0.000020  0.000025  0.000268  0.000003
 10   -703.10306973   0.0000000305  0.000028  0.000014  0.000145  0.000002
                  ***Gradient check signals convergence***
              ***Rediagonalizing the Fockian in SOSCF/NRSCF***

               *****************************************************
               *                     SUCCESS                       *
               *           SCF CONVERGED AFTER  11 CYCLES          *
               *****************************************************

Old exchange energy                            =    -12.451488666 Eh
New exchange energy                            =    -12.451493826 Eh
Exchange energy change after final integration =     -0.000005160 Eh
Total energy after final integration           =   -703.103074955 Eh
Final COS-X integration done in                =     5.837 sec

----------------
TOTAL SCF ENERGY
----------------

Total Energy       :         -703.10307495 Eh          -19132.40734 eV

Components:
Nuclear Repulsion  :          348.10111563 Eh            9472.31292 eV
Electronic Energy  :        -1051.20419059 Eh          -28604.72026 eV
One Electron Energy:        -1670.11901730 Eh          -45446.24890 eV
Two Electron Energy:          618.91482671 Eh           16841.52864 eV
Max COSX asymmetry :            0.00000140 Eh               0.00004 eV

Virial components:
Potential Energy   :        -1404.45657064 Eh          -38217.20621 eV
Kinetic Energy     :          701.35349568 Eh           19084.79887 eV
Virial Ratio       :            2.00249458


DFT components:
N(Alpha)           :       28.999926593343 electrons
N(Beta)            :       28.999926593343 electrons
N(Total)           :       57.999853186685 electrons
E(X)               :      -49.523795050727 Eh       
E(C)               :       -2.501904973661 Eh       
E(XC)              :      -52.025700024387 Eh       
DFET-embed. en.    :        0.000000000000 Eh       

---------------
SCF CONVERGENCE
---------------

  Last Energy change         ...   -6.8019e-08  Tolerance :   1.0000e-08
  Last MAX-Density change    ...    1.2212e-15  Tolerance :   1.0000e-07
  Last RMS-Density change    ...    1.5657e-17  Tolerance :   5.0000e-09
  Last Orbital Gradient      ...    2.1848e-06  Tolerance :   1.0000e-05
  Last Orbital Rotation      ...    4.0715e-06  Tolerance :   1.0000e-05

             **** THE GBW FILE WAS UPDATED (TZVPD_B3LYP_A_wt_dlpno_neg.gbw) ****
             **** DENSITY TZVPD_B3LYP_A_wt_dlpno_neg.scfp WAS UPDATED ****
             **** ENERGY FILE WAS UPDATED (TZVPD_B3LYP_A_wt_dlpno_neg.en.tmp) ****
             **** THE GBW FILE WAS UPDATED (TZVPD_B3LYP_A_wt_dlpno_neg.gbw) ****
             **** DENSITY TZVPD_B3LYP_A_wt_dlpno_neg.scfp WAS UPDATED ****
----------------
ORBITAL ENERGIES
----------------

  NO   OCC          E(Eh)            E(eV) 
   0   2.0000     -88.838894     -2417.4292 
   1   2.0000     -18.909579      -514.5558 
   2   2.0000     -18.896024      -514.1869 
   3   2.0000     -18.895217      -514.1650 
   4   2.0000     -10.031413      -272.9686 
   5   2.0000     -10.027110      -272.8515 
   6   2.0000      -7.882209      -214.4858 
   7   2.0000      -5.845756      -159.0711 
   8   2.0000      -5.844695      -159.0422 
   9   2.0000      -5.844491      -159.0367 
  10   2.0000      -0.921083       -25.0639 
  11   2.0000      -0.791518       -21.5383 
  12   2.0000      -0.768366       -20.9083 
  13   2.0000      -0.631378       -17.1807 
  14   2.0000      -0.509527       -13.8649 
  15   2.0000      -0.380830       -10.3629 
  16   2.0000      -0.318659        -8.6711 
  17   2.0000      -0.310995        -8.4626 
  18   2.0000      -0.274567        -7.4714 
  19   2.0000      -0.257927        -7.0186 
  20   2.0000      -0.256704        -6.9853 
  21   2.0000      -0.226274        -6.1572 
  22   2.0000      -0.220691        -6.0053 
  23   2.0000      -0.150343        -4.0911 
  24   2.0000      -0.147873        -4.0238 
  25   2.0000      -0.116834        -3.1792 
  26   2.0000      -0.105658        -2.8751 
  27   2.0000      -0.099667        -2.7121 
  28   2.0000      -0.062958        -1.7132 
  29   0.0000       0.120042         3.2665 
  30   0.0000       0.144791         3.9400 
  31   0.0000       0.152292         4.1441 
  32   0.0000       0.162135         4.4119 
  33   0.0000       0.176693         4.8081 
  34   0.0000       0.184585         5.0228 
  35   0.0000       0.201112         5.4725 
  36   0.0000       0.209781         5.7084 
  37   0.0000       0.213559         5.8112 
  38   0.0000       0.229486         6.2446 
  39   0.0000       0.241928         6.5832 
  40   0.0000       0.249122         6.7789 
  41   0.0000       0.250886         6.8269 
  42   0.0000       0.258647         7.0382 
  43   0.0000       0.270877         7.3709 
  44   0.0000       0.275048         7.4844 
  45   0.0000       0.282074         7.6756 
  46   0.0000       0.287645         7.8272 
  47   0.0000       0.295512         8.0413 
  48   0.0000       0.299105         8.1391 
  49   0.0000       0.301895         8.2150 
  50   0.0000       0.309719         8.4279 
  51   0.0000       0.317815         8.6482 
  52   0.0000       0.326278         8.8785 
  53   0.0000       0.340980         9.2785 
  54   0.0000       0.352355         9.5881 
  55   0.0000       0.355698         9.6790 
  56   0.0000       0.368599        10.0301 
  57   0.0000       0.378538        10.3005 
  58   0.0000       0.386084        10.5059 
  59   0.0000       0.392593        10.6830 
  60   0.0000       0.401161        10.9161 
  61   0.0000       0.411502        11.1975 
  62   0.0000       0.417024        11.3478 
  63   0.0000       0.422342        11.4925 
  64   0.0000       0.433033        11.7834 
  65   0.0000       0.439623        11.9627 
  66   0.0000       0.448850        12.2138 
  67   0.0000       0.450653        12.2629 
  68   0.0000       0.455105        12.3841 
  69   0.0000       0.468705        12.7541 
  70   0.0000       0.470499        12.8029 
  71   0.0000       0.474460        12.9107 
  72   0.0000       0.490050        13.3349 
  73   0.0000       0.499840        13.6013 
  74   0.0000       0.511565        13.9204 
  75   0.0000       0.518370        14.1056 
  76   0.0000       0.524046        14.2600 
  77   0.0000       0.530366        14.4320 
  78   0.0000       0.538015        14.6401 
  79   0.0000       0.543293        14.7838 
  80   0.0000       0.552851        15.0438 
  81   0.0000       0.563484        15.3332 
  82   0.0000       0.579644        15.7729 
  83   0.0000       0.581345        15.8192 
  84   0.0000       0.591118        16.0851 
  85   0.0000       0.602694        16.4001 
  86   0.0000       0.607299        16.5254 
  87   0.0000       0.621578        16.9140 
  88   0.0000       0.646462        17.5911 
  89   0.0000       0.655943        17.8491 
  90   0.0000       0.681868        18.5546 
  91   0.0000       0.687383        18.7046 
  92   0.0000       0.689796        18.7703 
  93   0.0000       0.707566        19.2539 
  94   0.0000       0.713251        19.4086 
  95   0.0000       0.728879        19.8338 
  96   0.0000       0.738725        20.1017 
  97   0.0000       0.749530        20.3957 
  98   0.0000       0.763808        20.7843 
  99   0.0000       0.774283        21.0693 
 100   0.0000       0.779741        21.2178 
 101   0.0000       0.782797        21.3010 
 102   0.0000       0.791609        21.5408 
 103   0.0000       0.796394        21.6710 
 104   0.0000       0.809828        22.0365 
 105   0.0000       0.811422        22.0799 
 106   0.0000       0.833907        22.6918 
 107   0.0000       0.840032        22.8584 
 108   0.0000       0.842751        22.9324 
 109   0.0000       0.852936        23.2096 
 110   0.0000       0.858016        23.3478 
 111   0.0000       0.872202        23.7338 
 112   0.0000       0.878546        23.9064 
 113   0.0000       0.889752        24.2114 
 114   0.0000       0.903056        24.5734 
 115   0.0000       0.926935        25.2232 
 116   0.0000       0.944969        25.7139 
 117   0.0000       0.961004        26.1502 
 118   0.0000       0.984007        26.7762 
 119   0.0000       1.004869        27.3439 
 120   0.0000       1.007904        27.4265 
 121   0.0000       1.049479        28.5578 
 122   0.0000       1.054525        28.6951 
 123   0.0000       1.092129        29.7183 
 124   0.0000       1.094734        29.7892 
 125   0.0000       1.106311        30.1043 
 126   0.0000       1.141974        31.0747 
 127   0.0000       1.148783        31.2600 
 128   0.0000       1.155920        31.4542 
 129   0.0000       1.177360        32.0376 
 130   0.0000       1.182614        32.1806 
 131   0.0000       1.210796        32.9474 
 132   0.0000       1.223961        33.3057 
 133   0.0000       1.236923        33.6584 
 134   0.0000       1.260490        34.2997 
 135   0.0000       1.274988        34.6942 
 136   0.0000       1.296777        35.2871 
 137   0.0000       1.327487        36.1228 
 138   0.0000       1.362470        37.0747 
 139   0.0000       1.373352        37.3708 
 140   0.0000       1.417684        38.5772 
 141   0.0000       1.430482        38.9254 
 142   0.0000       1.471632        40.0451 
 143   0.0000       1.477615        40.2080 
 144   0.0000       1.499242        40.7964 
 145   0.0000       1.582215        43.0543 
 146   0.0000       1.736149        47.2430 
 147   0.0000       1.749645        47.6103 
 148   0.0000       1.761094        47.9218 
 149   0.0000       1.768269        48.1170 
 150   0.0000       1.781591        48.4795 
 151   0.0000       1.813606        49.3507 
 152   0.0000       1.850001        50.3411 
 153   0.0000       1.898681        51.6657 
 154   0.0000       1.907442        51.9041 
 155   0.0000       1.935994        52.6811 
 156   0.0000       1.954320        53.1798 
 157   0.0000       1.958172        53.2846 
 158   0.0000       1.968703        53.5711 
 159   0.0000       1.970393        53.6171 
 160   0.0000       1.988178        54.1011 
 161   0.0000       1.996605        54.3304 
 162   0.0000       2.038379        55.4671 
 163   0.0000       2.057036        55.9748 
 164   0.0000       2.073792        56.4307 
 165   0.0000       2.081371        56.6370 
 166   0.0000       2.101788        57.1926 
 167   0.0000       2.125875        57.8480 
 168   0.0000       2.147569        58.4383 
 169   0.0000       2.183388        59.4130 
 170   0.0000       2.210957        60.1632 
 171   0.0000       2.236374        60.8548 
 172   0.0000       2.258688        61.4620 
 173   0.0000       2.297726        62.5243 
 174   0.0000       2.331108        63.4327 
 175   0.0000       2.361713        64.2655 
 176   0.0000       2.462268        67.0017 
 177   0.0000       2.518316        68.5269 
 178   0.0000       2.548732        69.3545 
 179   0.0000       2.576923        70.1216 
 180   0.0000       2.586716        70.3881 
 181   0.0000       2.598884        70.7192 
 182   0.0000       2.622441        71.3603 
 183   0.0000       2.638545        71.7985 
 184   0.0000       2.643475        71.9326 
 185   0.0000       2.660255        72.3892 
 186   0.0000       2.678888        72.8962 
 187   0.0000       2.707947        73.6870 
 188   0.0000       2.721590        74.0582 
 189   0.0000       2.731473        74.3272 
 190   0.0000       2.756399        75.0054 
 191   0.0000       2.783094        75.7318 
 192   0.0000       2.802094        76.2489 
 193   0.0000       2.862743        77.8992 
 194   0.0000       2.875515        78.2467 
 195   0.0000       2.883930        78.4757 
 196   0.0000       2.892524        78.7096 
 197   0.0000       2.925927        79.6185 
 198   0.0000       2.935482        79.8785 
 199   0.0000       2.971715        80.8645 
 200   0.0000       3.009450        81.8913 
 201   0.0000       3.035580        82.6023 
 202   0.0000       3.145067        85.5816 
 203   0.0000       3.184463        86.6536 
 204   0.0000       3.270100        88.9840 
 205   0.0000       3.301579        89.8405 
 206   0.0000       3.334642        90.7402 
 207   0.0000       3.341396        90.9240 
 208   0.0000       3.373588        91.8000 
 209   0.0000       3.388507        92.2060 
 210   0.0000       3.399171        92.4961 
 211   0.0000       3.406949        92.7078 
 212   0.0000       3.418787        93.0299 
 213   0.0000       3.434122        93.4472 
 214   0.0000       3.508402        95.4685 
 215   0.0000       3.544946        96.4629 
 216   0.0000       3.571060        97.1735 
 217   0.0000       3.596744        97.8724 
 218   0.0000       3.619574        98.4936 
 219   0.0000       3.653041        99.4043 
 220   0.0000       3.663775        99.6964 
 221   0.0000       3.686704       100.3203 
 222   0.0000       3.697946       100.6262 
 223   0.0000       3.732104       101.5557 
 224   0.0000       3.777081       102.7796 
 225   0.0000       3.889633       105.8423 
 226   0.0000       3.965305       107.9014 
 227   0.0000       3.991488       108.6139 
 228   0.0000       4.109175       111.8163 
 229   0.0000       4.136190       112.5515 
 230   0.0000       4.196712       114.1983 
 231   0.0000       4.227876       115.0464 
 232   0.0000       4.413747       120.1042 
 233   0.0000       4.452169       121.1497 
 234   0.0000       4.549735       123.8046 
 235   0.0000       4.601512       125.2135 
 236   0.0000       4.687593       127.5559 
 237   0.0000       4.713769       128.2682 
 238   0.0000       4.879325       132.7732 
 239   0.0000       5.080639       138.2512 
 240   0.0000       5.329325       145.0183 
 241   0.0000       5.345640       145.4623 
 242   0.0000       5.362125       145.9108 
 243   0.0000       5.365497       146.0026 
 244   0.0000       5.371461       146.1649 
 245   0.0000       5.389116       146.6453 
 246   0.0000       5.390933       146.6947 
 247   0.0000       5.407540       147.1467 
 248   0.0000       5.410741       147.2337 
 249   0.0000       5.521532       150.2485 
 250   0.0000       5.527508       150.4111 
 251   0.0000       5.543891       150.8569 
 252   0.0000       5.593006       152.1934 
 253   0.0000       5.618464       152.8862 
 254   0.0000       5.690119       154.8360 
 255   0.0000       5.776185       157.1780 
 256   0.0000       5.810117       158.1013 
 257   0.0000       5.872519       159.7994 
 258   0.0000       5.908532       160.7793 
 259   0.0000       5.940399       161.6465 
 260   0.0000       6.076322       165.3451 
 261   0.0000       6.635970       180.5739 
 262   0.0000       6.645096       180.8222 
 263   0.0000       6.660955       181.2538 
 264   0.0000       6.744147       183.5176 
 265   0.0000       6.750108       183.6798 
 266   0.0000       6.789858       184.7614 
 267   0.0000       6.914464       188.1521 
 268   0.0000       6.948040       189.0658 
 269   0.0000       6.959379       189.3743 
 270   0.0000       6.970540       189.6780 
 271   0.0000       7.169099       195.0811 
 272   0.0000       7.200520       195.9361 
 273   0.0000       7.218768       196.4327 
 274   0.0000       7.306618       198.8232 
 275   0.0000       7.331645       199.5042 
 276   0.0000       9.694725       263.8069 
 277   0.0000       9.905375       269.5390 
 278   0.0000      10.006378       272.2874 
 279   0.0000      22.598066       614.9246 
 280   0.0000      22.695687       617.5810 
 281   0.0000      23.074775       627.8965 
 282   0.0000      44.024795      1197.9756 
 283   0.0000      44.204606      1202.8685 
 284   0.0000      44.247958      1204.0481 

                    ********************************
                    * MULLIKEN POPULATION ANALYSIS *
                    ********************************

-----------------------
MULLIKEN ATOMIC CHARGES
-----------------------
   0 C :   -0.402221
   1 S :    1.252327
   2 O :   -0.703792
   3 O :   -0.748414
   4 O :   -0.751448
   5 C :   -0.969584
   6 H :    0.251093
   7 H :    0.248673
   8 H :    0.300227
   9 H :    0.257885
  10 H :    0.265254
Sum of atomic charges:   -1.0000000

--------------------------------
MULLIKEN REDUCED ORBITAL CHARGES
--------------------------------
  0 C s       :     3.308353  s :     3.308353
      pz      :     1.029057  p :     3.049641
      px      :     0.978261
      py      :     1.042323
      dz2     :    -0.018627  d :     0.039262
      dxz     :     0.018224
      dyz     :    -0.007154
      dx2y2   :     0.029092
      dxy     :     0.017727
      f0      :     0.000539  f :     0.004966
      f+1     :     0.001352
      f-1     :     0.000337
      f+2     :     0.000367
      f-2     :     0.000929
      f+3     :     0.000801
      f-3     :     0.000640
  1 S s       :     5.323580  s :     5.323580
      pz      :     2.627767  p :     8.070734
      px      :     2.736426
      py      :     2.706541
      dz2     :     0.276978  d :     1.232880
      dxz     :     0.237140
      dyz     :     0.235768
      dx2y2   :     0.192559
      dxy     :     0.290436
      f0      :     0.014485  f :     0.120478
      f+1     :     0.023802
      f-1     :     0.025755
      f+2     :     0.013587
      f-2     :     0.015576
      f+3     :     0.016306
      f-3     :     0.010967
  2 O s       :     3.957486  s :     3.957486
      pz      :     1.685174  p :     4.705904
      px      :     1.386837
      py      :     1.633893
      dz2     :     0.004684  d :     0.038404
      dxz     :     0.008415
      dyz     :     0.003445
      dx2y2   :     0.012196
      dxy     :     0.009664
      f0      :     0.000184  f :     0.001999
      f+1     :     0.000324
      f-1     :     0.000103
      f+2     :     0.000221
      f-2     :     0.000296
      f+3     :     0.000477
      f-3     :     0.000394
  3 O s       :     3.960110  s :     3.960110
      pz      :     1.624426  p :     4.749685
      px      :     1.714107
      py      :     1.411152
      dz2     :     0.004392  d :     0.036814
      dxz     :     0.004208
      dyz     :     0.011344
      dx2y2   :     0.010121
      dxy     :     0.006750
      f0      :     0.000172  f :     0.001805
      f+1     :     0.000056
      f-1     :     0.000419
      f+2     :     0.000347
      f-2     :     0.000307
      f+3     :     0.000255
      f-3     :     0.000248
  4 O s       :     3.963805  s :     3.963805
      pz      :     1.284473  p :     4.751904
      px      :     1.744752
      py      :     1.722679
      dz2     :     0.014299  d :     0.033955
      dxz     :     0.007914
      dyz     :     0.008968
      dx2y2   :     0.002138
      dxy     :     0.000635
      f0      :     0.000649  f :     0.001784
      f+1     :     0.000448
      f-1     :     0.000509
      f+2     :     0.000080
      f-2     :     0.000090
      f+3     :     0.000004
      f-3     :     0.000004
  5 C s       :     3.406336  s :     3.406336
      pz      :     1.120782  p :     3.529694
      px      :     1.116703
      py      :     1.292209
      dz2     :    -0.003222  d :     0.029957
      dxz     :     0.012645
      dyz     :    -0.002752
      dx2y2   :    -0.006640
      dxy     :     0.029927
      f0      :     0.000425  f :     0.003596
      f+1     :     0.001123
      f-1     :     0.000094
      f+2     :     0.000241
      f-2     :     0.000893
      f+3     :     0.000602
      f-3     :     0.000219
  6 H s       :     0.695512  s :     0.695512
      pz      :     0.040805  p :     0.053396
      px      :     0.012682
      py      :    -0.000091
  7 H s       :     0.711064  s :     0.711064
      pz      :    -0.001066  p :     0.040262
      px      :     0.016214
      py      :     0.025114
  8 H s       :     0.634271  s :     0.634271
      pz      :     0.010695  p :     0.065502
      px      :     0.027808
      py      :     0.026999
  9 H s       :     0.666654  s :     0.666654
      pz      :     0.039373  p :     0.075462
      px      :     0.007603
      py      :     0.028487
 10 H s       :     0.657369  s :     0.657369
      pz      :     0.017141  p :     0.077378
      px      :     0.029036
      py      :     0.031201


                     *******************************
                     * LOEWDIN POPULATION ANALYSIS *
                     *******************************

----------------------
LOEWDIN ATOMIC CHARGES
----------------------
   0 C :   -0.315320
   1 S :    0.365748
   2 O :   -0.384680
   3 O :   -0.421038
   4 O :   -0.413922
   5 C :   -0.138979
   6 H :    0.075377
   7 H :    0.071528
   8 H :    0.046341
   9 H :    0.054947
  10 H :    0.059999

-------------------------------
LOEWDIN REDUCED ORBITAL CHARGES
-------------------------------
  0 C s       :     2.734732  s :     2.734732
      pz      :     0.954208  p :     2.823919
      px      :     0.932921
      py      :     0.936791
      dz2     :     0.174339  d :     0.723664
      dxz     :     0.144303
      dyz     :     0.088865
      dx2y2   :     0.137612
      dxy     :     0.178545
      f0      :     0.003499  f :     0.033005
      f+1     :     0.006693
      f-1     :     0.004234
      f+2     :     0.003808
      f-2     :     0.004938
      f+3     :     0.005795
      f-3     :     0.004038
  1 S s       :     4.581195  s :     4.581195
      pz      :     2.790061  p :     8.367374
      px      :     2.788594
      py      :     2.788719
      dz2     :     0.530039  d :     2.314241
      dxz     :     0.417006
      dyz     :     0.461853
      dx2y2   :     0.389227
      dxy     :     0.516116
      f0      :     0.052420  f :     0.371443
      f+1     :     0.065888
      f-1     :     0.075500
      f+2     :     0.042017
      f-2     :     0.047928
      f+3     :     0.049759
      f-3     :     0.037930
  2 O s       :     3.471751  s :     3.471751
      pz      :     1.573823  p :     4.637278
      px      :     1.503649
      py      :     1.559806
      dz2     :     0.044618  d :     0.270874
      dxz     :     0.053893
      dyz     :     0.028986
      dx2y2   :     0.066258
      dxy     :     0.077117
      f0      :     0.000501  f :     0.004777
      f+1     :     0.000720
      f-1     :     0.000226
      f+2     :     0.000494
      f-2     :     0.000756
      f+3     :     0.000822
      f-3     :     0.001260
  3 O s       :     3.495088  s :     3.495088
      pz      :     1.576162  p :     4.659736
      px      :     1.583923
      py      :     1.499651
      dz2     :     0.061919  d :     0.261944
      dxz     :     0.023269
      dyz     :     0.064424
      dx2y2   :     0.050030
      dxy     :     0.062302
      f0      :     0.000525  f :     0.004270
      f+1     :     0.000111
      f-1     :     0.000802
      f+2     :     0.001010
      f-2     :     0.000688
      f+3     :     0.000609
      f-3     :     0.000525
  4 O s       :     3.492742  s :     3.492742
      pz      :     1.469540  p :     4.654111
      px      :     1.595174
      py      :     1.589398
      dz2     :     0.092118  d :     0.262820
      dxz     :     0.063786
      dyz     :     0.077720
      dx2y2   :     0.009517
      dxy     :     0.019679
      f0      :     0.001911  f :     0.004248
      f+1     :     0.000771
      f-1     :     0.001213
      f+2     :     0.000146
      f-2     :     0.000191
      f+3     :     0.000010
      f-3     :     0.000006
  5 C s       :     2.731916  s :     2.731916
      pz      :     0.968288  p :     2.894624
      px      :     0.957783
      py      :     0.968552
      dz2     :     0.131517  d :     0.484548
      dxz     :     0.102489
      dyz     :     0.061770
      dx2y2   :     0.047164
      dxy     :     0.141608
      f0      :     0.003215  f :     0.027892
      f+1     :     0.005930
      f-1     :     0.003364
      f+2     :     0.003896
      f-2     :     0.004833
      f+3     :     0.004626
      f-3     :     0.002029
  6 H s       :     0.696098  s :     0.696098
      pz      :     0.095342  p :     0.228525
      px      :     0.063319
      py      :     0.069864
  7 H s       :     0.696764  s :     0.696764
      pz      :     0.056671  p :     0.231708
      px      :     0.076322
      py      :     0.098715
  8 H s       :     0.719489  s :     0.719489
      pz      :     0.065501  p :     0.234171
      px      :     0.082258
      py      :     0.086412
  9 H s       :     0.705137  s :     0.705137
      pz      :     0.097507  p :     0.239916
      px      :     0.074113
      py      :     0.068296
 10 H s       :     0.707451  s :     0.707451
      pz      :     0.058766  p :     0.232550
      px      :     0.070785
      py      :     0.102999


                      *****************************
                      * MAYER POPULATION ANALYSIS *
                      *****************************

  NA   - Mulliken gross atomic population
  ZA   - Total nuclear charge
  QA   - Mulliken gross atomic charge
  VA   - Mayer's total valence
  BVA  - Mayer's bonded valence
  FA   - Mayer's free valence

  ATOM       NA         ZA         QA         VA         BVA        FA
  0 C      6.4022     6.0000    -0.4022     3.7167     3.7167     0.0000
  1 S     14.7477    16.0000     1.2523     5.4291     5.4291     0.0000
  2 O      8.7038     8.0000    -0.7038     1.7371     1.7371     0.0000
  3 O      8.7484     8.0000    -0.7484     1.6993     1.6993     0.0000
  4 O      8.7514     8.0000    -0.7514     1.6832     1.6832     0.0000
  5 C      6.9696     6.0000    -0.9696     3.5637     3.5637    -0.0000
  6 H      0.7489     1.0000     0.2511     0.9785     0.9785    -0.0000
  7 H      0.7513     1.0000     0.2487     0.9374     0.9374     0.0000
  8 H      0.6998     1.0000     0.3002     0.9951     0.9951     0.0000
  9 H      0.7421     1.0000     0.2579     1.0719     1.0719     0.0000
 10 H      0.7347     1.0000     0.2653     1.0537     1.0537    -0.0000

  Mayer bond orders larger than 0.100000
B(  0-C ,  1-S ) :   0.9019 B(  0-C ,  2-O ) :   0.1330 B(  0-C ,  3-O ) :   0.1304 
B(  0-C ,  5-C ) :   0.5988 B(  0-C ,  6-H ) :   0.9813 B(  0-C ,  7-H ) :   0.9721 
B(  1-S ,  2-O ) :   1.4983 B(  1-S ,  3-O ) :   1.4660 B(  1-S ,  4-O ) :   1.4504 
B(  5-C ,  8-H ) :   0.9389 B(  5-C ,  9-H ) :   1.0048 B(  5-C , 10-H ) :   0.9883 


-------
TIMINGS
-------

Total SCF time: 0 days 0 hours 0 min 33 sec 

Total time                  ....      33.668 sec
Sum of individual times     ....      33.376 sec  ( 99.1%)

Fock matrix formation       ....      31.680 sec  ( 94.1%)
  Split-RI-J                ....       2.121 sec  (  6.7% of F)
  Chain of spheres X        ....      24.543 sec  ( 77.5% of F)
  XC integration            ....       4.941 sec  ( 15.6% of F)
    Basis function eval.    ....       1.283 sec  ( 26.0% of XC)
    Density eval.           ....       1.287 sec  ( 26.0% of XC)
    XC-Functional eval.     ....       0.173 sec  (  3.5% of XC)
    XC-Potential eval.      ....       2.000 sec  ( 40.5% of XC)
Diagonalization             ....       0.148 sec  (  0.4%)
Density matrix formation    ....       0.011 sec  (  0.0%)
Population analysis         ....       0.017 sec  (  0.1%)
Initial guess               ....       0.287 sec  (  0.9%)
Orbital Transformation      ....       0.000 sec  (  0.0%)
Orbital Orthonormalization  ....       0.000 sec  (  0.0%)
DIIS solution               ....       0.079 sec  (  0.2%)
SOSCF solution              ....       0.075 sec  (  0.2%)
Grid generation             ....       1.080 sec  (  3.2%)

Maximum memory used throughout the entire SCF-calculation: 76.5 MB


-------------------------------------------------------------------------------
                          DFT DISPERSION CORRECTION                            
                                                                               
                              DFTD3 V3.1  Rev 1                                
                          USING Becke-Johnson damping                          
-------------------------------------------------------------------------------
The B3LYP functional is recognized
Active option DFTDOPT                   ...         4   

molecular C6(AA) [au] = 1522.574213 


            DFT-D V3
 parameters
 s6 scaling factor         :     1.0000 
 a1 scaling factor         :     0.3981 
 s8 scaling factor         :     1.9889 
 a2 scaling factor         :     4.4211 
 ad hoc parameters k1-k3   :    16.0000     1.3333    -4.0000 

 Edisp/kcal,au: -10.323712809926  -0.016451881821 
 E6   /kcal   :  -4.733545381 
 E8   /kcal   :  -5.590167429 
 % E8         :  54.148808012 

-------------------------   ----------------
Dispersion correction           -0.016451882
-------------------------   ----------------


-------------------------   --------------------
FINAL SINGLE POINT ENERGY      -703.119526836475
-------------------------   --------------------


                            ***************************************
                            *     ORCA property calculations      *
                            ***************************************

                                    ---------------------
                                    Active property flags
                                    ---------------------
   (+) Dipole Moment


------------------------------------------------------------------------------
                       ORCA ELECTRIC PROPERTIES CALCULATION
------------------------------------------------------------------------------

Dipole Moment Calculation                       ... on
Quadrupole Moment Calculation                   ... off
Polarizability Calculation                      ... off
GBWName                                         ... TZVPD_B3LYP_A_wt_dlpno_neg.gbw
Electron density file                           ... TZVPD_B3LYP_A_wt_dlpno_neg.scfp
The origin for moment calculation is the CENTER OF MASS  = (-12.296080, -9.130664 -0.814482)

-------------
DIPOLE MOMENT
-------------
                                X             Y             Z
Electronic contribution:     -6.68240       4.31596      -0.91632
Nuclear contribution   :      8.13140      -5.68016       0.80206
                        -----------------------------------------
Total Dipole Moment    :      1.44900      -1.36420      -0.11426
                        -----------------------------------------
Magnitude (a.u.)       :      1.99342
Magnitude (Debye)      :      5.06686



--------------------
Rotational spectrum 
--------------------
 
Rotational constants in cm-1:     0.162101     0.080498     0.079099 
Rotational constants in MHz :  4859.669771  2413.267251  2371.338602 

 Dipole components along the rotational axes: 
x,y,z [a.u.] :    -1.846314    -0.751474    -0.010806 
x,y,z [Debye]:    -4.692958    -1.910094    -0.027468 

 

Timings for individual modules:

Sum of individual times         ...       36.169 sec (=   0.603 min)
GTO integral calculation        ...        2.100 sec (=   0.035 min)   5.8 %
SCF iterations                  ...       34.069 sec (=   0.568 min)  94.2 %
                             ****ORCA TERMINATED NORMALLY****
TOTAL RUN TIME: 0 days 0 hours 0 minutes 36 seconds 735 msec
