
                                        *****************
                                        * O   R   C   A *
                                        *****************

                                            #,                                       
                                            ###                                      
                                            ####                                     
                                            #####                                    
                                            ######                                   
                                           ########,                                 
                                     ,,################,,,,,                         
                               ,,#################################,,                 
                          ,,##########################################,,             
                       ,#########################################, ''#####,          
                    ,#############################################,,   '####,        
                  ,##################################################,,,,####,       
                ,###########''''           ''''###############################       
              ,#####''   ,,,,##########,,,,          '''####'''          '####       
            ,##' ,,,,###########################,,,                        '##       
           ' ,,###''''                  '''############,,,                           
         ,,##''                                '''############,,,,        ,,,,,,###''
      ,#''                                            '''#######################'''  
     '                                                          ''''####''''         
             ,#######,   #######,   ,#######,      ##                                
            ,#'     '#,  ##    ##  ,#'     '#,    #''#        ######   ,####,        
            ##       ##  ##   ,#'  ##            #'  '#       #        #'  '#        
            ##       ##  #######   ##           ,######,      #####,   #    #        
            '#,     ,#'  ##    ##  '#,     ,#' ,#      #,         ##   #,  ,#        
             '#######'   ##     ##  '#######'  #'      '#     #####' # '####'        



                  #######################################################
                  #                        -***-                        #
                  #          Department of theory and spectroscopy      #
                  #    Directorship and core code : Frank Neese         #
                  #        Max Planck Institute fuer Kohlenforschung    #
                  #                Kaiser Wilhelm Platz 1               #
                  #                 D-45470 Muelheim/Ruhr               #
                  #                      Germany                        #
                  #                                                     #
                  #                  All rights reserved                #
                  #                        -***-                        #
                  #######################################################


                         Program Version 5.0.0 -  RELEASE  -
                                (SVN: $Rev: 19529$)
                ($Date: 2021-06-28 11:36:33 +0200 (Mo, 28 Jun 2021) $)


 With contributions from (in alphabetic order):
   Daniel Aravena         : Magnetic Suceptibility
   Michael Atanasov       : Ab Initio Ligand Field Theory (pilot matlab implementation)
   Alexander A. Auer      : GIAO ZORA, VPT2 properties, NMR spectrum
   Ute Becker             : Parallelization
   Giovanni Bistoni       : ED, misc. LED, open-shell LED, HFLD
   Martin Brehm           : Molecular dynamics
   Dmytro Bykov           : SCF Hessian
   Vijay G. Chilkuri      : MRCI spin determinant printing, contributions to CSF-ICE
   Dipayan Datta          : RHF DLPNO-CCSD density
   Achintya Kumar Dutta   : EOM-CC, STEOM-CC
   Dmitry Ganyushin       : Spin-Orbit,Spin-Spin,Magnetic field MRCI
   Miquel Garcia          : C-PCM Hessian, Gaussian charge scheme
   Yang Guo               : DLPNO-NEVPT2, F12-NEVPT2, CIM, IAO-localization
   Andreas Hansen         : Spin unrestricted coupled pair/coupled cluster methods
   Benjamin Helmich-Paris : MC-RPA, TRAH-SCF, COSX integrals
   Lee Huntington         : MR-EOM, pCC
   Robert Izsak           : Overlap fitted RIJCOSX, COSX-SCS-MP3, EOM
   Marcus Kettner         : VPT2
   Christian Kollmar      : KDIIS, OOCD, Brueckner-CCSD(T), CCSD density, CASPT2, CASPT2-K
   Simone Kossmann        : Meta GGA functionals, TD-DFT gradient, OOMP2, MP2 Hessian
   Martin Krupicka        : Initial AUTO-CI
   Lucas Lang             : DCDCAS
   Marvin Lechner         : AUTO-CI (C++ implementation), FIC-MRCC
   Dagmar Lenk            : GEPOL surface, SMD
   Dimitrios Liakos       : Extrapolation schemes; Compound Job, initial MDCI parallelization
   Dimitrios Manganas     : Further ROCIS development; embedding schemes
   Dimitrios Pantazis     : SARC Basis sets
   Anastasios Papadopoulos: AUTO-CI, single reference methods and gradients
   Taras Petrenko         : DFT Hessian,TD-DFT gradient, ASA, ECA, R-Raman, ABS, FL, XAS/XES, NRVS
   Peter Pinski           : DLPNO-MP2, DLPNO-MP2 Gradient
   Christoph Reimann      : Effective Core Potentials
   Marius Retegan         : Local ZFS, SOC
   Christoph Riplinger    : Optimizer, TS searches, QM/MM, DLPNO-CCSD(T), (RO)-DLPNO pert. Triples
   Tobias Risthaus        : Range-separated hybrids, TD-DFT gradient, RPA, STAB
   Michael Roemelt        : Original ROCIS implementation
   Masaaki Saitow         : Open-shell DLPNO-CCSD energy and density
   Barbara Sandhoefer     : DKH picture change effects
   Avijit Sen             : IP-ROCIS
   Kantharuban Sivalingam : CASSCF convergence, NEVPT2, FIC-MRCI
   Bernardo de Souza      : ESD, SOC TD-DFT
   Georgi Stoychev        : AutoAux, RI-MP2 NMR
   Willem Van den Heuvel  : Paramagnetic NMR
   Boris Wezisla          : Elementary symmetry handling
   Frank Wennmohs         : Technical directorship


 We gratefully acknowledge several colleagues who have allowed us to
 interface, adapt or use parts of their codes:
   Stefan Grimme, W. Hujo, H. Kruse, P. Pracht,  : VdW corrections, initial TS optimization,
                  C. Bannwarth, S. Ehlert          DFT functionals, gCP, sTDA/sTD-DF
   Ed Valeev, F. Pavosevic, A. Kumar             : LibInt (2-el integral package), F12 methods
   Garnet Chan, S. Sharma, J. Yang, R. Olivares  : DMRG
   Ulf Ekstrom                                   : XCFun DFT Library
   Mihaly Kallay                                 : mrcc  (arbitrary order and MRCC methods)
   Jiri Pittner, Ondrej Demel                    : Mk-CCSD
   Frank Weinhold                                : gennbo (NPA and NBO analysis)
   Christopher J. Cramer and Donald G. Truhlar   : smd solvation model
   Lars Goerigk                                  : TD-DFT with DH, B97 family of functionals
   V. Asgeirsson, H. Jonsson                     : NEB implementation
   FAccTs GmbH                                   : IRC, NEB, NEB-TS, DLPNO-Multilevel, CI-OPT
                                                   MM, QMMM, 2- and 3-layer-ONIOM, Crystal-QMMM,
                                                   LR-CPCM, SF, NACMEs, symmetry and pop. for TD-DFT,
                                                   nearIR, NL-DFT gradient (VV10), updates on ESD,
                                                   ML-optimized integration grids
   S Lehtola, MJT Oliveira, MAL Marques          : LibXC Library
   Liviu Ungur et al                             : ANISO software


 Your calculation uses the libint2 library for the computation of 2-el integrals
 For citations please refer to: http://libint.valeyev.net

 Your ORCA version has been built with support for libXC version: 5.1.0
 For citations please refer to: https://tddft.org/programs/libxc/

 This ORCA versions uses:
   CBLAS   interface :  Fast vector & matrix operations
   LAPACKE interface :  Fast linear algebra routines
   SCALAPACK package :  Parallel linear algebra routines
   Shared memory     :  Shared parallel matrices
   BLAS/LAPACK       :  OpenBLAS 0.3.15  USE64BITINT DYNAMIC_ARCH NO_AFFINITY Haswell SINGLE_THREADED
        Core in use  :  Haswell
   Copyright (c) 2011-2014, The OpenBLAS Project




***************************************
The coordinates will be read from file: D1.xyz
***************************************


XCFun DFT library Copyright 2009-2010 Ulf Ekstrom and contributors.
See http://admol.org/xcfun for more information.
This is free software; see the source code for copying conditions.
There is ABSOLUTELY NO WARRANTY; not even for MERCHANTABILITY or FITNESS FOR A PARTICULAR PURPOSE.
For details see the documentation.
Scientific users of this library should cite U. Ekstrom, L. Visscher, R. Bast, A. J. Thorvaldsen and K. Ruud;
J.Chem.Theor.Comp. 2010, DOI: 10.1021/ct100117s
XCFun Version 0.99 

================================================================================

----- Orbital basis set information -----
Your calculation utilizes the basis: def2-SVPD
   F. Weigend and R. Ahlrichs, Phys. Chem. Chem. Phys. 7, 3297 (2005).
   D. Rappoport and F. Furche, J. Chem. Phys. 133 134105 (2010).

----- AuxJ basis set information -----
Your calculation utilizes the auxiliary basis: def2/J
   F. Weigend, Phys. Chem. Chem. Phys. 8, 1057 (2006).

================================================================================
                                        WARNINGS
                       Please study these warnings very carefully!
================================================================================


INFO   : the flag for use of the SHARK integral package has been found!

================================================================================
                                       INPUT FILE
================================================================================
NAME = 28Oct_SVPD_CAMB3LYP_D1_wb97.com
|  1> !CAM-B3LYP RIJCOSX def2-SVPD def2/J TightSCF xyzfile                                                                                         
|  2> 
|  3> *xyzfile 0 1 D1.xyz
|  4> 
|  5> %MaxCore 64000
|  6> 
|  7> %pal nprocs 4                                                                                                                                                  
|  8> end  
|  9> 
| 10> %scf
| 11>   MaxIter 150
| 12> end
| 13> 
| 14> 
| 15>                          ****END OF INPUT****
================================================================================

                       ****************************
                       * Single Point Calculation *
                       ****************************

---------------------------------
CARTESIAN COORDINATES (ANGSTROEM)
---------------------------------
  C      3.905947    2.819855   -3.752920
  C      5.295615    3.131515   -4.105334
  C      3.803511    1.374716   -3.260807
  C      3.939934    0.320362   -4.367729
  H      4.105043   -0.655085   -3.907733
  H      3.022801    0.280517   -4.957117
  C      5.105846    0.668022   -5.305463
  C      5.708619    3.468885   -5.324190
  N      6.904696    3.038954   -5.717084
  N      4.981884    4.293570   -6.097457
  H      5.000546    4.101311   -7.087761
  H      4.084693    4.596899   -5.739652
  H      5.963358    2.526112   -3.642391
  H      7.047164    2.066861   -5.473604
  H      7.198145    3.307994   -6.645225
  H      3.282025    2.949187   -4.640259
  H      3.565254    3.514574   -2.982523
  H      4.574833    1.215157   -2.500443
  H      2.843514    1.260845   -2.751465
  F      4.809132    1.150187   -6.414361
  O      6.267366    0.564999   -4.819481

----------------------------
CARTESIAN COORDINATES (A.U.)
----------------------------
  NO LB      ZA    FRAG     MASS         X           Y           Z
   0 C     6.0000    0    12.011    7.381171    5.328753   -7.091990
   1 C     6.0000    0    12.011   10.007263    5.917705   -7.757957
   2 C     6.0000    0    12.011    7.187595    2.597836   -6.162033
   3 C     6.0000    0    12.011    7.445396    0.605397   -8.253812
   4 H     1.0000    0     1.008    7.757407   -1.237930   -7.384545
   5 H     1.0000    0     1.008    5.712267    0.530101   -9.367594
   6 C     6.0000    0    12.011    9.648650    1.262379  -10.025871
   7 C     6.0000    0    12.011   10.787727    6.555244  -10.061262
   8 N     7.0000    0    14.007   13.047984    5.742790  -10.803723
   9 N     7.0000    0    14.007    9.414397    8.113671  -11.522523
  10 H     1.0000    0     1.008    9.449663    7.750356  -13.393928
  11 H     1.0000    0     1.008    7.718951    8.686880  -10.846370
  12 H     1.0000    0     1.008   11.269114    4.773660   -6.883122
  13 H     1.0000    0     1.008   13.317210    3.905801  -10.343612
  14 H     1.0000    0     1.008   13.602523    6.251203  -12.557656
  15 H     1.0000    0     1.008    6.202128    5.573156   -8.768819
  16 H     1.0000    0     1.008    6.737353    6.641582   -5.636151
  17 H     1.0000    0     1.008    8.645182    2.296314   -4.725153
  18 H     1.0000    0     1.008    5.373463    2.382653   -5.199515
  19 F     9.0000    0    18.998    9.087942    2.173538  -12.121386
  20 O     8.0000    0    15.999   11.843606    1.067694   -9.107499

--------------------------------
INTERNAL COORDINATES (ANGSTROEM)
--------------------------------
 C      0   0   0     0.000000000000     0.00000000     0.00000000
 C      1   0   0     1.467141978358     0.00000000     0.00000000
 C      1   2   0     1.530063517905   109.95648736     0.00000000
 C      3   1   2     1.534779619809   114.26304417   287.08499053
 H      4   3   1     1.091033620284   108.87872696   165.98404284
 H      4   3   1     1.090916052212   109.87805700   285.05600920
 C      4   3   1     1.536086504513   110.62627363    44.77550193
 C      2   1   3     1.330414023142   124.60886225   117.82427755
 N      8   2   1     1.330340554584   117.88637737   216.04032271
 N      8   2   1     1.343945232509   120.98842718    40.55760065
 H     10   8   2     1.008967339645   115.96355102   215.01872382
 H     10   8   2     1.012415453042   117.36824842   356.14625482
 H      2   1   3     1.013266581664   112.80126275   337.30529129
 H      9   8   2     1.012197712497   111.46140142    44.03797432
 H      9   8   2     1.009921403817   116.52360736   180.07724841
 H      1   2   3     1.092418234860   108.70639248   240.06343406
 H      1   2   3     1.091887397005   109.26080405   121.65715898
 H      3   1   2     1.094783130927   108.29253614    49.74675079
 H      3   1   2     1.092698650205   107.88852219   164.36908434
 F      7   4   3     1.245061367518   116.77397318   256.40244270
 O      7   4   3     1.263298100477   116.39547193    69.30146499

---------------------------
INTERNAL COORDINATES (A.U.)
---------------------------
 C      0   0   0     0.000000000000     0.00000000     0.00000000
 C      1   0   0     2.772496538677     0.00000000     0.00000000
 C      1   2   0     2.891401016345   109.95648736     0.00000000
 C      3   1   2     2.900313157364   114.26304417   287.08499053
 H      4   3   1     2.061754745237   108.87872696   165.98404284
 H      4   3   1     2.061532573779   109.87805700   285.05600920
 C      4   3   1     2.902782811542   110.62627363    44.77550193
 C      2   1   3     2.514118148466   124.60886225   117.82427755
 N      8   2   1     2.513979313013   117.88637737   216.04032271
 N      8   2   1     2.539688428430   120.98842718    40.55760065
 H     10   8   2     1.906671950000   115.96355102   215.01872382
 H     10   8   2     1.913187940000   117.36824842   356.14625482
 H      2   1   3     1.914796340000   112.80126275   337.30529129
 H      9   8   2     1.912776470000   111.46140142    44.03797432
 H      9   8   2     1.908474870000   116.52360736   180.07724841
 H      1   2   3     2.064371287587   108.70639248   240.06343406
 H      1   2   3     2.063368149420   109.26080405   121.65715898
 H      3   1   2     2.068840293488   108.29253614    49.74675079
 H      3   1   2     2.064901195792   107.88852219   164.36908434
 F      7   4   3     2.352825004535   116.77397318   256.40244270
 O      7   4   3     2.387287435404   116.39547193    69.30146499

---------------------
BASIS SET INFORMATION
---------------------
There are 5 groups of distinct atoms

 Group   1 Type C   : 8s4p2d contracted to 4s2p2d pattern {5111/31/11}
 Group   2 Type H   : 4s2p contracted to 2s2p pattern {31/11}
 Group   3 Type N   : 8s4p2d contracted to 4s2p2d pattern {5111/31/11}
 Group   4 Type F   : 8s5p2d contracted to 4s3p2d pattern {5111/311/11}
 Group   5 Type O   : 8s5p2d contracted to 4s3p2d pattern {5111/311/11}

Atom   0C    basis set group =>   1
Atom   1C    basis set group =>   1
Atom   2C    basis set group =>   1
Atom   3C    basis set group =>   1
Atom   4H    basis set group =>   2
Atom   5H    basis set group =>   2
Atom   6C    basis set group =>   1
Atom   7C    basis set group =>   1
Atom   8N    basis set group =>   3
Atom   9N    basis set group =>   3
Atom  10H    basis set group =>   2
Atom  11H    basis set group =>   2
Atom  12H    basis set group =>   2
Atom  13H    basis set group =>   2
Atom  14H    basis set group =>   2
Atom  15H    basis set group =>   2
Atom  16H    basis set group =>   2
Atom  17H    basis set group =>   2
Atom  18H    basis set group =>   2
Atom  19F    basis set group =>   4
Atom  20O    basis set group =>   5
---------------------------------
AUXILIARY/J BASIS SET INFORMATION
---------------------------------
There are 5 groups of distinct atoms

 Group   1 Type C   : 12s5p4d2f1g contracted to 6s4p3d1f1g pattern {711111/2111/211/2/1}
 Group   2 Type H   : 5s2p1d contracted to 3s1p1d pattern {311/2/1}
 Group   3 Type N   : 12s5p4d2f1g contracted to 6s4p3d1f1g pattern {711111/2111/211/2/1}
 Group   4 Type F   : 12s5p4d2f1g contracted to 6s4p3d1f1g pattern {711111/2111/211/2/1}
 Group   5 Type O   : 12s5p4d2f1g contracted to 6s4p3d1f1g pattern {711111/2111/211/2/1}

Atom   0C    basis set group =>   1
Atom   1C    basis set group =>   1
Atom   2C    basis set group =>   1
Atom   3C    basis set group =>   1
Atom   4H    basis set group =>   2
Atom   5H    basis set group =>   2
Atom   6C    basis set group =>   1
Atom   7C    basis set group =>   1
Atom   8N    basis set group =>   3
Atom   9N    basis set group =>   3
Atom  10H    basis set group =>   2
Atom  11H    basis set group =>   2
Atom  12H    basis set group =>   2
Atom  13H    basis set group =>   2
Atom  14H    basis set group =>   2
Atom  15H    basis set group =>   2
Atom  16H    basis set group =>   2
Atom  17H    basis set group =>   2
Atom  18H    basis set group =>   2
Atom  19F    basis set group =>   4
Atom  20O    basis set group =>   5


           ************************************************************
           *        Program running with 4 parallel MPI-processes     *
           *              working on a common directory               *
           ************************************************************
------------------------------------------------------------------------------
                           ORCA GTO INTEGRAL CALCULATION
                           -- RI-GTO INTEGRALS CHOSEN --
------------------------------------------------------------------------------
------------------------------------------------------------------------------
                   ___                                                        
                  /   \      - P O W E R E D   B Y -                         
                 /     \                                                     
                 |  |  |   _    _      __       _____    __    __             
                 |  |  |  | |  | |    /  \     |  _  \  |  |  /  |          
                  \  \/   | |  | |   /    \    | | | |  |  | /  /          
                 / \  \   | |__| |  /  /\  \   | |_| |  |  |/  /          
                |  |  |   |  __  | /  /__\  \  |    /   |      \           
                |  |  |   | |  | | |   __   |  |    \   |  |\   \          
                \     /   | |  | | |  |  |  |  | |\  \  |  | \   \       
                 \___/    |_|  |_| |__|  |__|  |_| \__\ |__|  \__/        
                                                                              
                      - O R C A' S   B I G   F R I E N D -                    
                                      &                                       
                       - I N T E G R A L  F E E D E R -                       
                                                                              
 v1 FN, 2020, v2 2021                                                         
------------------------------------------------------------------------------


Reading SHARK input file 28Oct_SVPD_CAMB3LYP_D1_wb97.SHARKINP.tmp ... ok
----------------------
SHARK INTEGRAL PACKAGE
----------------------

Number of atoms                             ...     21
Number of basis functions                   ...    294
Number of shells                            ...    126
Maximum angular momentum                    ...      2
Integral batch strategy                     ... SHARK/LIBINT Hybrid
RI-J (if used) integral strategy            ... SPLIT-RIJ (Revised 2003 algorithm where possible)
Printlevel                                  ...      1
Contraction scheme used                     ... SEGMENTED contraction
Coulomb Range Separation                    ... NOT USED
Exchange Range Separation                   ... Long Range
   Mu parameter                             ...  0.330000
   Scaling (regular/separated)              ...  0.190000  0.460000
Finite Nucleus Model                        ... NOT USED
Auxiliary Coulomb fitting basis             ... AVAILABLE
   # of basis functions in Aux-J            ...    611
   # of shells in Aux-J                     ...    205
   Maximum angular momentum in Aux-J        ...      4
Auxiliary J/K fitting basis                 ... NOT available
Auxiliary Correlation fitting basis         ... NOT available
Auxiliary 'external' fitting basis          ... NOT available
Integral threshold                          ...     2.500000e-11
Primitive cut-off                           ...     2.500000e-12
Primitive pair pre-selection threshold      ...     2.500000e-12

Calculating pre-screening integrals         ... done (  0.1 sec) Dimension = 126
Organizing shell pair data                  ... done (  0.1 sec)
Shell pair information
Total number of shell pairs                 ...      8001
Shell pairs after pre-screening             ...      7771
Total number of primitive shell pairs       ...     21899
Primitive shell pairs kept                  ...     17030
          la=0 lb=0:   1879 shell pairs
          la=1 lb=0:   2640 shell pairs
          la=1 lb=1:    964 shell pairs
          la=2 lb=0:   1214 shell pairs
          la=2 lb=1:    865 shell pairs
          la=2 lb=2:    209 shell pairs

Calculating one electron integrals          ... done (  0.0 sec)
Calculating RI/J V-Matrix + Cholesky decomp.... done (  0.0 sec)
Calculating Nuclear repulsion               ... done (  0.0 sec) ENN=    595.312497094716 Eh

SHARK setup successfully completed in   0.2 seconds

Maximum memory used throughout the entire GTOINT-calculation: 13.9 MB


           ************************************************************
           *        Program running with 4 parallel MPI-processes     *
           *              working on a common directory               *
           ************************************************************
-------------------------------------------------------------------------------
                                 ORCA SCF
-------------------------------------------------------------------------------

------------
SCF SETTINGS
------------
Hamiltonian:
 Density Functional     Method          .... DFT(GTOs)
 Exchange Functional    Exchange        .... WB88
 Correlation Functional Correlation     .... LYP
 LDA part of GGA corr.  LDAOpt          .... VWN-5
 Gradients option       PostSCFGGA      .... off
 Hybrid DFT is turned on
   Fraction HF Exchange ScalHFX         ....  0.190000
   Scaling of DF-GGA-X  ScalDFX         ....  0.350000
   Scaling of DF-GGA-C  ScalDFC         ....  0.810000
   Scaling of DF-LDA-C  ScalLDAC        ....  1.000000
   Perturbative correction              ....  0.000000
   Density functional embedding theory  .... OFF
 Long-range corrected/Screened/Range-Separated Hybrid DFT is turned on
   Amount of maximum screened exact exchange              ....  0.460000
   Range separation parameter mu (erf(mu*r12)/r12)        ....  0.330000
 RI-approximation to the Coulomb term is turned on
   Number of AuxJ basis functions       .... 611
   RIJ-COSX (HFX calculated with COS-X)).... on


General Settings:
 Integral files         IntName         .... 28Oct_SVPD_CAMB3LYP_D1_wb97
 Hartree-Fock type      HFTyp           .... RHF
 Total Charge           Charge          ....    0
 Multiplicity           Mult            ....    1
 Number of Electrons    NEL             ....   78
 Basis Dimension        Dim             ....  294
 Nuclear Repulsion      ENuc            ....    595.3124970947 Eh

Convergence Acceleration:
 DIIS                   CNVDIIS         .... on
   Start iteration      DIISMaxIt       ....    12
   Startup error        DIISStart       ....  0.200000
   # of expansion vecs  DIISMaxEq       ....     5
   Bias factor          DIISBfac        ....   1.050
   Max. coefficient     DIISMaxC        ....  10.000
 Trust-Rad. Augm. Hess. CNVTRAH         .... auto
   Auto Start mean grad. ratio tolernc. ....  1.125000
   Auto Start start iteration           ....    20
   Auto Start num. interpolation iter.  ....    10
   Max. Number of Micro iterations      ....    16
   Max. Number of Macro iterations      .... Maxiter - #DIIS iter
   Number of Davidson start vectors     ....     2
   Converg. threshold I  (grad. norm)   ....   1.000e-05
   Converg. threshold II (energy diff.) ....   1.000e-08
   Grad. Scal. Fac. for Micro threshold ....   0.100
   Minimum threshold for Micro iter.    ....   0.010
   NR start threshold (gradient norm)   ....   0.001
   Initial trust radius                 ....   0.400
   Minimum AH scaling param. (alpha)    ....   1.000
   Maximum AH scaling param. (alpha)    .... 1000.000
   Orbital update algorithm             .... Taylor
   White noise on init. David. guess    .... on
   Maximum white noise                  ....   0.010
   Quad. conv. algorithm                .... NR
 SOSCF                  CNVSOSCF        .... on
   Start iteration      SOSCFMaxIt      ....   150
   Startup grad/error   SOSCFStart      ....  0.003300
 Level Shifting         CNVShift        .... on
   Level shift para.    LevelShift      ....    0.2500
   Turn off err/grad.   ShiftErr        ....    0.0010
 Zerner damping         CNVZerner       .... off
 Static damping         CNVDamp         .... on
   Fraction old density DampFac         ....    0.7000
   Max. Damping (<1)    DampMax         ....    0.9800
   Min. Damping (>=0)   DampMin         ....    0.0000
   Turn off err/grad.   DampErr         ....    0.1000
 Fernandez-Rico         CNVRico         .... off

SCF Procedure:
 Maximum # iterations   MaxIter         ....   150
 SCF integral mode      SCFMode         .... Direct
   Integral package                     .... SHARK and LIBINT hybrid scheme
 Reset frequency        DirectResetFreq ....    20
 Integral Threshold     Thresh          ....  2.500e-11 Eh
 Primitive CutOff       TCut            ....  2.500e-12 Eh

Convergence Tolerance:
 Convergence Check Mode ConvCheckMode   .... Total+1el-Energy
 Convergence forced     ConvForced      .... 0
 Energy Change          TolE            ....  1.000e-08 Eh
 1-El. energy change                    ....  1.000e-05 Eh
 Orbital Gradient       TolG            ....  1.000e-05
 Orbital Rotation angle TolX            ....  1.000e-05
 DIIS Error             TolErr          ....  5.000e-07


Diagonalization of the overlap matrix:
Smallest eigenvalue                        ... 4.569e-05
Time for diagonalization                   ...    0.014 sec
Threshold for overlap eigenvalues          ... 1.000e-08
Number of eigenvalues below threshold      ... 0
Time for construction of square roots      ...    0.013 sec
Total time needed                          ...    0.028 sec

Time for model grid setup =    0.193 sec

------------------------------
INITIAL GUESS: MODEL POTENTIAL
------------------------------
Loading Hartree-Fock densities                     ... done
Calculating cut-offs                               ... done
Initializing the effective Hamiltonian             ... done
Setting up the integral package (SHARK)            ... done
Starting the Coulomb interaction                   ... done (   0.1 sec)
Reading the grid                                   ... done
Mapping shells                                     ... done
Starting the XC term evaluation                    ... done (   0.2 sec)
  promolecular density results
     # of electrons  =     78.000877066
     EX              =    -65.283906098
     EC              =     -2.633014733
     EX+EC           =    -67.916920832
Transforming the Hamiltonian                       ... done (   0.0 sec)
Diagonalizing the Hamiltonian                      ... done (   0.0 sec)
Back transforming the eigenvectors                 ... done (   0.0 sec)
Now organizing SCF variables                       ... done
                      ------------------
                      INITIAL GUESS DONE (   0.6 sec)
                      ------------------
-------------------
DFT GRID GENERATION
-------------------

General Integration Accuracy     IntAcc      ... 4.388
Radial Grid Type                 RadialGrid  ... OptM3 with GC (2021)
Angular Grid (max. ang.)         AngularGrid ... 4 (Lebedev-302)
Angular grid pruning method      GridPruning ... 4 (adaptive)
Weight generation scheme         WeightScheme... Becke
Basis function cutoff            BFCut       ... 1.0000e-11
Integration weight cutoff        WCut        ... 1.0000e-14
Angular grids for H and He will be reduced by one unit
Partially contracted basis set               ... off
Rotationally invariant grid construction     ... off

Total number of grid points                  ...    97575
Total number of batches                      ...     1537
Average number of points per batch           ...       63
Average number of grid points per atom       ...     4646
Time for grid setup =    0.731 sec

--------------------
COSX GRID GENERATION
--------------------

GRIDX 1
-------
General Integration Accuracy     IntAcc      ... 3.816
Radial Grid Type                 RadialGrid  ... OptM3 with GC (2021)
Angular Grid (max. ang.)         AngularGrid ... 1 (Lebedev-50)
Angular grid pruning method      GridPruning ... 4 (adaptive)
Weight generation scheme         WeightScheme... Becke
Basis function cutoff            BFCut       ... 1.0000e-11
Integration weight cutoff        WCut        ... 1.0000e-14
Angular grids for H and He will be reduced by one unit
Partially contracted basis set               ... on
Rotationally invariant grid construction     ... off

Total number of grid points                  ...    12188
Total number of batches                      ...      203
Average number of points per batch           ...       60
Average number of grid points per atom       ...      580
UseSFitting                                  ... on

GRIDX 2
-------
General Integration Accuracy     IntAcc      ... 4.020
Radial Grid Type                 RadialGrid  ... OptM3 with GC (2021)
Angular Grid (max. ang.)         AngularGrid ... 2 (Lebedev-110)
Angular grid pruning method      GridPruning ... 4 (adaptive)
Weight generation scheme         WeightScheme... Becke
Basis function cutoff            BFCut       ... 1.0000e-11
Integration weight cutoff        WCut        ... 1.0000e-14
Angular grids for H and He will be reduced by one unit
Partially contracted basis set               ... on
Rotationally invariant grid construction     ... off

Total number of grid points                  ...    27407
Total number of batches                      ...      439
Average number of points per batch           ...       62
Average number of grid points per atom       ...     1305
UseSFitting                                  ... on

GRIDX 3
-------
General Integration Accuracy     IntAcc      ... 4.338
Radial Grid Type                 RadialGrid  ... OptM3 with GC (2021)
Angular Grid (max. ang.)         AngularGrid ... 3 (Lebedev-194)
Angular grid pruning method      GridPruning ... 4 (adaptive)
Weight generation scheme         WeightScheme... Becke
Basis function cutoff            BFCut       ... 1.0000e-11
Integration weight cutoff        WCut        ... 1.0000e-14
Angular grids for H and He will be reduced by one unit
Partially contracted basis set               ... on
Rotationally invariant grid construction     ... off

Total number of grid points                  ...    61694
Total number of batches                      ...      974
Average number of points per batch           ...       63
Average number of grid points per atom       ...     2938
UseSFitting                                  ... on

Time for X-Grid setup             =    0.882 sec

--------------
SCF ITERATIONS
--------------
ITER       Energy         Delta-E        Max-DP      RMS-DP      [F,P]     Damp
               ***  Starting incremental Fock matrix formation  ***
  0   -518.8277332781   0.000000000000 0.51673396  0.00393195  0.2369833 0.7000
  1   -518.9969615186  -0.169228240425 0.45672638  0.00324251  0.1098739 0.7000
                               ***Turning on DIIS***
  2   -519.0681490096  -0.071187491034 0.86246699  0.00646199  0.0458815 0.0000
  3   -519.1797027752  -0.111553765596 0.29365941  0.00206179  0.0537711 0.0000
  4   -519.2031253300  -0.023422554763 0.05043694  0.00048530  0.0141826 0.0000
  5   -519.2040257557  -0.000900425698 0.01518185  0.00016775  0.0105855 0.0000
                      *** Initiating the SOSCF procedure ***
                           *** Shutting down DIIS ***
                      *** Re-Reading the Fockian *** 
                      *** Removing any level shift *** 
ITER      Energy       Delta-E        Grad      Rot      Max-DP    RMS-DP
  6   -519.20420924  -0.0001834826  0.000379  0.000379  0.017618  0.000147
               *** Restarting incremental Fock matrix formation ***
  7   -519.20428574  -0.0000765022  0.000079  0.000266  0.005351  0.000067
  8   -519.20428630  -0.0000005639  0.000134  0.000186  0.002289  0.000021
  9   -519.20428710  -0.0000007979  0.000029  0.000051  0.000457  0.000007
 10   -519.20428709   0.0000000156  0.000042  0.000036  0.000529  0.000004
 11   -519.20428716  -0.0000000696  0.000005  0.000021  0.000162  0.000003
 12   -519.20428716  -0.0000000045  0.000004  0.000007  0.000067  0.000001
                  ***Gradient check signals convergence***
              ***Rediagonalizing the Fockian in SOSCF/NRSCF***

               *****************************************************
               *                     SUCCESS                       *
               *           SCF CONVERGED AFTER  13 CYCLES          *
               *****************************************************

Old exchange energy                            =    -18.773925519 Eh
New exchange energy                            =    -18.773974814 Eh
Exchange energy change after final integration =     -0.000049295 Eh
Total energy after final integration           =   -519.204336458 Eh
Final COS-X integration done in                =    17.753 sec

----------------
TOTAL SCF ENERGY
----------------

Total Energy       :         -519.20433646 Eh          -14128.26826 eV

Components:
Nuclear Repulsion  :          595.31249709 Eh           16199.27660 eV
Electronic Energy  :        -1114.51683355 Eh          -30327.54486 eV
One Electron Energy:        -1888.85926501 Eh          -51398.47365 eV
Two Electron Energy:          774.34243146 Eh           21070.92879 eV
Max COSX asymmetry :            0.00000725 Eh               0.00020 eV

Virial components:
Potential Energy   :        -1033.92003988 Eh          -28134.39461 eV
Kinetic Energy     :          514.71570342 Eh           14006.12635 eV
Virial Ratio       :            2.00872061


DFT components:
N(Alpha)           :       39.000114847212 electrons
N(Beta)            :       39.000114847212 electrons
N(Total)           :       78.000229694424 electrons
E(XC)              :      -50.618992919524 Eh       
DFET-embed. en.    :        0.000000000000 Eh       

---------------
SCF CONVERGENCE
---------------

  Last Energy change         ...   -2.5952e-09  Tolerance :   1.0000e-08
  Last MAX-Density change    ...    3.1086e-15  Tolerance :   1.0000e-07
  Last RMS-Density change    ...    3.5369e-17  Tolerance :   5.0000e-09
  Last Orbital Gradient      ...    8.3313e-07  Tolerance :   1.0000e-05
  Last Orbital Rotation      ...    4.3926e-06  Tolerance :   1.0000e-05

             **** THE GBW FILE WAS UPDATED (28Oct_SVPD_CAMB3LYP_D1_wb97.gbw) ****
             **** DENSITY 28Oct_SVPD_CAMB3LYP_D1_wb97.scfp WAS UPDATED ****
             **** ENERGY FILE WAS UPDATED (28Oct_SVPD_CAMB3LYP_D1_wb97.en.tmp) ****
             **** THE GBW FILE WAS UPDATED (28Oct_SVPD_CAMB3LYP_D1_wb97.gbw) ****
             **** DENSITY 28Oct_SVPD_CAMB3LYP_D1_wb97.scfp WAS UPDATED ****
----------------
ORBITAL ENERGIES
----------------

  NO   OCC          E(Eh)            E(eV) 
   0   2.0000     -24.858770      -676.4415 
   1   2.0000     -19.229373      -523.2578 
   2   2.0000     -14.409739      -392.1089 
   3   2.0000     -14.387758      -391.5108 
   4   2.0000     -10.455530      -284.5094 
   5   2.0000     -10.303278      -280.3665 
   6   2.0000     -10.289367      -279.9879 
   7   2.0000     -10.266888      -279.3762 
   8   2.0000     -10.248801      -278.8841 
   9   2.0000     -10.185324      -277.1568 
  10   2.0000      -1.406778       -38.2804 
  11   2.0000      -1.116844       -30.3909 
  12   2.0000      -1.037309       -28.2266 
  13   2.0000      -0.944559       -25.7028 
  14   2.0000      -0.897987       -24.4355 
  15   2.0000      -0.830027       -22.5862 
  16   2.0000      -0.772723       -21.0269 
  17   2.0000      -0.739546       -20.1241 
  18   2.0000      -0.685460       -18.6523 
  19   2.0000      -0.655403       -17.8344 
  20   2.0000      -0.640811       -17.4373 
  21   2.0000      -0.621494       -16.9117 
  22   2.0000      -0.609302       -16.5799 
  23   2.0000      -0.593427       -16.1480 
  24   2.0000      -0.574730       -15.6392 
  25   2.0000      -0.540359       -14.7039 
  26   2.0000      -0.532976       -14.5030 
  27   2.0000      -0.514296       -13.9947 
  28   2.0000      -0.502675       -13.6785 
  29   2.0000      -0.472748       -12.8641 
  30   2.0000      -0.458364       -12.4727 
  31   2.0000      -0.437034       -11.8923 
  32   2.0000      -0.434441       -11.8217 
  33   2.0000      -0.416048       -11.3212 
  34   2.0000      -0.402988       -10.9659 
  35   2.0000      -0.389717       -10.6047 
  36   2.0000      -0.371521       -10.1096 
  37   2.0000      -0.332125        -9.0376 
  38   2.0000      -0.230149        -6.2627 
  39   0.0000       0.006497         0.1768 
  40   0.0000       0.040229         1.0947 
  41   0.0000       0.061120         1.6632 
  42   0.0000       0.070303         1.9130 
  43   0.0000       0.081140         2.2079 
  44   0.0000       0.086365         2.3501 
  45   0.0000       0.102430         2.7873 
  46   0.0000       0.105425         2.8687 
  47   0.0000       0.107912         2.9364 
  48   0.0000       0.120435         3.2772 
  49   0.0000       0.137292         3.7359 
  50   0.0000       0.140183         3.8146 
  51   0.0000       0.147915         4.0250 
  52   0.0000       0.159079         4.3288 
  53   0.0000       0.162065         4.4100 
  54   0.0000       0.167347         4.5537 
  55   0.0000       0.179516         4.8849 
  56   0.0000       0.185064         5.0359 
  57   0.0000       0.190774         5.1912 
  58   0.0000       0.201416         5.4808 
  59   0.0000       0.214224         5.8293 
  60   0.0000       0.220017         5.9870 
  61   0.0000       0.226557         6.1649 
  62   0.0000       0.229274         6.2389 
  63   0.0000       0.239727         6.5233 
  64   0.0000       0.247143         6.7251 
  65   0.0000       0.258393         7.0312 
  66   0.0000       0.260566         7.0904 
  67   0.0000       0.274137         7.4597 
  68   0.0000       0.278180         7.5697 
  69   0.0000       0.290456         7.9037 
  70   0.0000       0.296738         8.0747 
  71   0.0000       0.299852         8.1594 
  72   0.0000       0.315536         8.5862 
  73   0.0000       0.326166         8.8754 
  74   0.0000       0.329063         8.9543 
  75   0.0000       0.333020         9.0619 
  76   0.0000       0.335979         9.1425 
  77   0.0000       0.342863         9.3298 
  78   0.0000       0.349786         9.5182 
  79   0.0000       0.361043         9.8245 
  80   0.0000       0.365169         9.9367 
  81   0.0000       0.370972        10.0947 
  82   0.0000       0.374302        10.1853 
  83   0.0000       0.377803        10.2805 
  84   0.0000       0.380206        10.3459 
  85   0.0000       0.389408        10.5963 
  86   0.0000       0.397010        10.8032 
  87   0.0000       0.401790        10.9333 
  88   0.0000       0.406570        11.0633 
  89   0.0000       0.410721        11.1763 
  90   0.0000       0.418040        11.3754 
  91   0.0000       0.422525        11.4975 
  92   0.0000       0.426012        11.5924 
  93   0.0000       0.435075        11.8390 
  94   0.0000       0.439714        11.9652 
  95   0.0000       0.445832        12.1317 
  96   0.0000       0.450397        12.2559 
  97   0.0000       0.460412        12.5285 
  98   0.0000       0.466486        12.6937 
  99   0.0000       0.469753        12.7826 
 100   0.0000       0.476174        12.9573 
 101   0.0000       0.479200        13.0397 
 102   0.0000       0.489237        13.3128 
 103   0.0000       0.499698        13.5975 
 104   0.0000       0.505074        13.7438 
 105   0.0000       0.510833        13.9005 
 106   0.0000       0.512285        13.9400 
 107   0.0000       0.521753        14.1976 
 108   0.0000       0.528494        14.3811 
 109   0.0000       0.535872        14.5818 
 110   0.0000       0.537630        14.6297 
 111   0.0000       0.547960        14.9108 
 112   0.0000       0.550135        14.9699 
 113   0.0000       0.554895        15.0995 
 114   0.0000       0.563911        15.3448 
 115   0.0000       0.572637        15.5822 
 116   0.0000       0.576082        15.6760 
 117   0.0000       0.586913        15.9707 
 118   0.0000       0.591995        16.1090 
 119   0.0000       0.594725        16.1833 
 120   0.0000       0.603555        16.4236 
 121   0.0000       0.611141        16.6300 
 122   0.0000       0.612802        16.6752 
 123   0.0000       0.623510        16.9666 
 124   0.0000       0.628893        17.1130 
 125   0.0000       0.639623        17.4050 
 126   0.0000       0.641342        17.4518 
 127   0.0000       0.642603        17.4861 
 128   0.0000       0.653333        17.7781 
 129   0.0000       0.659924        17.9574 
 130   0.0000       0.664987        18.0952 
 131   0.0000       0.675947        18.3935 
 132   0.0000       0.681077        18.5330 
 133   0.0000       0.690127        18.7793 
 134   0.0000       0.702299        19.1105 
 135   0.0000       0.712520        19.3886 
 136   0.0000       0.716582        19.4992 
 137   0.0000       0.724797        19.7227 
 138   0.0000       0.739377        20.1195 
 139   0.0000       0.744838        20.2681 
 140   0.0000       0.755369        20.5546 
 141   0.0000       0.760436        20.6925 
 142   0.0000       0.773121        21.0377 
 143   0.0000       0.781196        21.2574 
 144   0.0000       0.799053        21.7433 
 145   0.0000       0.809640        22.0314 
 146   0.0000       0.815410        22.1884 
 147   0.0000       0.830836        22.6082 
 148   0.0000       0.836460        22.7612 
 149   0.0000       0.855910        23.2905 
 150   0.0000       0.866320        23.5738 
 151   0.0000       0.881254        23.9801 
 152   0.0000       0.883140        24.0314 
 153   0.0000       0.891897        24.2698 
 154   0.0000       0.910398        24.7732 
 155   0.0000       0.920431        25.0462 
 156   0.0000       0.933234        25.3946 
 157   0.0000       0.950706        25.8700 
 158   0.0000       0.980269        26.6745 
 159   0.0000       0.983173        26.7535 
 160   0.0000       1.007276        27.4094 
 161   0.0000       1.018741        27.7213 
 162   0.0000       1.035599        28.1801 
 163   0.0000       1.039008        28.2728 
 164   0.0000       1.057937        28.7879 
 165   0.0000       1.064965        28.9792 
 166   0.0000       1.077653        29.3244 
 167   0.0000       1.088221        29.6120 
 168   0.0000       1.097261        29.8580 
 169   0.0000       1.108658        30.1681 
 170   0.0000       1.115858        30.3640 
 171   0.0000       1.143812        31.1247 
 172   0.0000       1.159084        31.5403 
 173   0.0000       1.163781        31.6681 
 174   0.0000       1.173635        31.9362 
 175   0.0000       1.195335        32.5267 
 176   0.0000       1.197758        32.5926 
 177   0.0000       1.206959        32.8430 
 178   0.0000       1.223557        33.2947 
 179   0.0000       1.233709        33.5709 
 180   0.0000       1.257161        34.2091 
 181   0.0000       1.271773        34.6067 
 182   0.0000       1.295708        35.2580 
 183   0.0000       1.296316        35.2746 
 184   0.0000       1.314263        35.7629 
 185   0.0000       1.332173        36.2503 
 186   0.0000       1.360190        37.0127 
 187   0.0000       1.381888        37.6031 
 188   0.0000       1.419102        38.6157 
 189   0.0000       1.439676        39.1756 
 190   0.0000       1.446114        39.3508 
 191   0.0000       1.460724        39.7483 
 192   0.0000       1.472330        40.0641 
 193   0.0000       1.502263        40.8787 
 194   0.0000       1.512569        41.1591 
 195   0.0000       1.558392        42.4060 
 196   0.0000       1.567820        42.6626 
 197   0.0000       1.594954        43.4009 
 198   0.0000       1.617885        44.0249 
 199   0.0000       1.633714        44.4556 
 200   0.0000       1.668756        45.4092 
 201   0.0000       1.684702        45.8431 
 202   0.0000       1.699268        46.2394 
 203   0.0000       1.732099        47.1328 
 204   0.0000       1.754120        47.7320 
 205   0.0000       1.777059        48.3562 
 206   0.0000       1.786629        48.6166 
 207   0.0000       1.809851        49.2486 
 208   0.0000       1.817311        49.4515 
 209   0.0000       1.846492        50.2456 
 210   0.0000       1.850649        50.3587 
 211   0.0000       1.869595        50.8743 
 212   0.0000       1.884236        51.2727 
 213   0.0000       1.900495        51.7151 
 214   0.0000       1.914237        52.0890 
 215   0.0000       1.924232        52.3610 
 216   0.0000       1.948181        53.0127 
 217   0.0000       1.958873        53.3036 
 218   0.0000       1.979631        53.8685 
 219   0.0000       1.986705        54.0610 
 220   0.0000       2.004956        54.5576 
 221   0.0000       2.015044        54.8321 
 222   0.0000       2.036759        55.4230 
 223   0.0000       2.052210        55.8435 
 224   0.0000       2.072122        56.3853 
 225   0.0000       2.093162        56.9578 
 226   0.0000       2.106248        57.3139 
 227   0.0000       2.136813        58.1456 
 228   0.0000       2.142940        58.3124 
 229   0.0000       2.156646        58.6853 
 230   0.0000       2.164298        58.8935 
 231   0.0000       2.174280        59.1652 
 232   0.0000       2.181275        59.3555 
 233   0.0000       2.194675        59.7202 
 234   0.0000       2.211384        60.1748 
 235   0.0000       2.216802        60.3223 
 236   0.0000       2.228729        60.6468 
 237   0.0000       2.234216        60.7961 
 238   0.0000       2.246561        61.1320 
 239   0.0000       2.260298        61.5058 
 240   0.0000       2.296284        62.4851 
 241   0.0000       2.307078        62.7788 
 242   0.0000       2.337408        63.6041 
 243   0.0000       2.354532        64.0701 
 244   0.0000       2.385213        64.9049 
 245   0.0000       2.399529        65.2945 
 246   0.0000       2.406811        65.4927 
 247   0.0000       2.425932        66.0130 
 248   0.0000       2.446167        66.5636 
 249   0.0000       2.459452        66.9251 
 250   0.0000       2.478625        67.4468 
 251   0.0000       2.501855        68.0789 
 252   0.0000       2.506301        68.1999 
 253   0.0000       2.528964        68.8166 
 254   0.0000       2.556898        69.5767 
 255   0.0000       2.590284        70.4852 
 256   0.0000       2.614268        71.1378 
 257   0.0000       2.635494        71.7154 
 258   0.0000       2.670889        72.6786 
 259   0.0000       2.675846        72.8135 
 260   0.0000       2.723753        74.1171 
 261   0.0000       2.746574        74.7381 
 262   0.0000       2.775643        75.5291 
 263   0.0000       2.805900        76.3524 
 264   0.0000       2.865133        77.9642 
 265   0.0000       2.897278        78.8389 
 266   0.0000       2.943169        80.0877 
 267   0.0000       2.981632        81.1343 
 268   0.0000       2.996724        81.5450 
 269   0.0000       3.028186        82.4011 
 270   0.0000       3.076819        83.7245 
 271   0.0000       3.090787        84.1046 
 272   0.0000       3.124605        85.0248 
 273   0.0000       3.137224        85.3682 
 274   0.0000       3.168591        86.2218 
 275   0.0000       3.187243        86.7293 
 276   0.0000       3.208578        87.3099 
 277   0.0000       3.234860        88.0250 
 278   0.0000       3.256852        88.6234 
 279   0.0000       3.300000        89.7976 
 280   0.0000       3.305386        89.9441 
 281   0.0000       3.331384        90.6516 
 282   0.0000       3.362775        91.5058 
 283   0.0000       3.406145        92.6859 
 284   0.0000       3.490621        94.9846 
 285   0.0000       3.503504        95.3352 
 286   0.0000       3.517360        95.7122 
 287   0.0000       3.606774        98.1453 
 288   0.0000       3.623104        98.5897 
 289   0.0000       3.643778        99.1522 
 290   0.0000       3.761129       102.3455 
 291   0.0000       3.774077       102.6979 
 292   0.0000       3.869229       105.2871 
 293   0.0000       4.207132       114.4819 

                    ********************************
                    * MULLIKEN POPULATION ANALYSIS *
                    ********************************

-----------------------
MULLIKEN ATOMIC CHARGES
-----------------------
   0 C :    0.518282
   1 C :    0.125263
   2 C :    0.337160
   3 C :    0.437710
   4 H :   -0.143582
   5 H :   -0.074132
   6 C :    0.738181
   7 C :    0.015171
   8 N :    0.359960
   9 N :    0.112668
  10 H :   -0.081082
  11 H :   -0.025929
  12 H :   -0.356122
  13 H :   -0.140003
  14 H :   -0.068163
  15 H :   -0.225094
  16 H :   -0.303861
  17 H :   -0.009825
  18 H :   -0.255491
  19 F :   -0.382933
  20 O :   -0.578178
Sum of atomic charges:   -0.0000000

--------------------------------
MULLIKEN REDUCED ORBITAL CHARGES
--------------------------------
  0 C s       :     2.527796  s :     2.527796
      pz      :     0.825178  p :     2.653698
      px      :     1.010480
      py      :     0.818040
      dz2     :     0.044273  d :     0.300223
      dxz     :     0.067155
      dyz     :     0.053873
      dx2y2   :     0.004432
      dxy     :     0.130490
  1 C s       :     2.713930  s :     2.713930
      pz      :     1.049779  p :     2.860684
      px      :     0.765181
      py      :     1.045724
      dz2     :    -0.032636  d :     0.300123
      dxz     :     0.109104
      dyz     :     0.051832
      dx2y2   :     0.146461
      dxy     :     0.025362
  2 C s       :     2.638424  s :     2.638424
      pz      :     0.897335  p :     2.616277
      px      :     0.769341
      py      :     0.949601
      dz2     :     0.092251  d :     0.408139
      dxz     :     0.036112
      dyz     :     0.050827
      dx2y2   :     0.099114
      dxy     :     0.129835
  3 C s       :     2.601308  s :     2.601308
      pz      :     0.952364  p :     2.765386
      px      :     0.859449
      py      :     0.953573
      dz2     :     0.103854  d :     0.195597
      dxz     :     0.036926
      dyz     :     0.028686
      dx2y2   :     0.016338
      dxy     :     0.009793
  4 H s       :     1.133938  s :     1.133938
      pz      :    -0.017814  p :     0.009645
      px      :    -0.017779
      py      :     0.045238
  5 H s       :     1.069967  s :     1.069967
      pz      :    -0.009052  p :     0.004165
      px      :     0.035339
      py      :    -0.022122
  6 C s       :     2.861616  s :     2.861616
      pz      :     0.677696  p :     2.174740
      px      :     0.867268
      py      :     0.629776
      dz2     :     0.023202  d :     0.225463
      dxz     :     0.051681
      dyz     :     0.072284
      dx2y2   :     0.046592
      dxy     :     0.031703
  7 C s       :     2.966757  s :     2.966757
      pz      :     0.988362  p :     2.713515
      px      :     0.839051
      py      :     0.886102
      dz2     :     0.118633  d :     0.304557
      dxz     :     0.195986
      dyz     :    -0.014362
      dx2y2   :     0.064877
      dxy     :    -0.060577
  8 N s       :     3.022390  s :     3.022390
      pz      :     1.172663  p :     3.612339
      px      :     1.222116
      py      :     1.217560
      dz2     :    -0.017388  d :     0.005311
      dxz     :     0.023742
      dyz     :     0.007723
      dx2y2   :    -0.002010
      dxy     :    -0.006756
  9 N s       :     3.237604  s :     3.237604
      pz      :     1.015300  p :     3.635056
      px      :     1.178723
      py      :     1.441034
      dz2     :    -0.000527  d :     0.014671
      dxz     :     0.000748
      dyz     :     0.013580
      dx2y2   :     0.001434
      dxy     :    -0.000563
 10 H s       :     1.016586  s :     1.016586
      pz      :     0.029739  p :     0.064496
      px      :     0.014409
      py      :     0.020348
 11 H s       :     1.010388  s :     1.010388
      pz      :    -0.038439  p :     0.015541
      px      :     0.008614
      py      :     0.045367
 12 H s       :     1.292366  s :     1.292366
      pz      :     0.014408  p :     0.063756
      px      :     0.039380
      py      :     0.009968
 13 H s       :     1.051722  s :     1.051722
      pz      :     0.036732  p :     0.088281
      px      :    -0.006637
      py      :     0.058186
 14 H s       :     1.044023  s :     1.044023
      pz      :    -0.016711  p :     0.024141
      px      :     0.033585
      py      :     0.007267
 15 H s       :     1.211025  s :     1.211025
      pz      :     0.017277  p :     0.014069
      px      :     0.012948
      py      :    -0.016156
 16 H s       :     1.307991  s :     1.307991
      pz      :    -0.016007  p :    -0.004130
      px      :     0.001595
      py      :     0.010282
 17 H s       :     1.035887  s :     1.035887
      pz      :     0.025702  p :    -0.026063
      px      :    -0.039179
      py      :    -0.012585
 18 H s       :     1.263786  s :     1.263786
      pz      :    -0.006441  p :    -0.008296
      px      :     0.025941
      py      :    -0.027796
 19 F s       :     3.997168  s :     3.997168
      pz      :     1.559961  p :     5.358283
      px      :     1.950326
      py      :     1.847996
      dz2     :     0.009746  d :     0.027482
      dxz     :     0.003673
      dyz     :     0.007433
      dx2y2   :     0.003792
      dxy     :     0.002837
 20 O s       :     3.966643  s :     3.966643
      pz      :     1.699549  p :     4.572218
      px      :     1.346914
      py      :     1.525755
      dz2     :     0.006977  d :     0.039316
      dxz     :     0.005083
      dyz     :     0.009921
      dx2y2   :     0.004416
      dxy     :     0.012919


                     *******************************
                     * LOEWDIN POPULATION ANALYSIS *
                     *******************************

----------------------
LOEWDIN ATOMIC CHARGES
----------------------
   0 C :   -0.047301
   1 C :   -0.013086
   2 C :   -0.013634
   3 C :    0.066857
   4 H :    0.037727
   5 H :    0.025669
   6 C :    0.006234
   7 C :   -0.251236
   8 N :    0.222665
   9 N :    0.209929
  10 H :   -0.010946
  11 H :   -0.007454
  12 H :   -0.054560
  13 H :   -0.075912
  14 H :   -0.003381
  15 H :    0.006822
  16 H :    0.011954
  17 H :    0.033633
  18 H :    0.021514
  19 F :   -0.017315
  20 O :   -0.148178

-------------------------------
LOEWDIN REDUCED ORBITAL CHARGES
-------------------------------
  0 C s       :     2.675888  s :     2.675888
      pz      :     0.891908  p :     2.686162
      px      :     0.917589
      py      :     0.876665
      dz2     :     0.076343  d :     0.685251
      dxz     :     0.151610
      dyz     :     0.140561
      dx2y2   :     0.148520
      dxy     :     0.168216
  1 C s       :     2.687876  s :     2.687876
      pz      :     0.907389  p :     2.703092
      px      :     0.887198
      py      :     0.908506
      dz2     :     0.117321  d :     0.622118
      dxz     :     0.180829
      dyz     :     0.092475
      dx2y2   :     0.115882
      dxy     :     0.115611
  2 C s       :     2.680355  s :     2.680355
      pz      :     0.880067  p :     2.672170
      px      :     0.910443
      py      :     0.881659
      dz2     :     0.103122  d :     0.661110
      dxz     :     0.134506
      dyz     :     0.159442
      dx2y2   :     0.156908
      dxy     :     0.107132
  3 C s       :     2.682521  s :     2.682521
      pz      :     0.890738  p :     2.681448
      px      :     0.874958
      py      :     0.915752
      dz2     :     0.110117  d :     0.569175
      dxz     :     0.157727
      dyz     :     0.104647
      dx2y2   :     0.130454
      dxy     :     0.066228
  4 H s       :     0.716342  s :     0.716342
      pz      :     0.072461  p :     0.245931
      px      :     0.065966
      py      :     0.107504
  5 H s       :     0.724935  s :     0.724935
      pz      :     0.080855  p :     0.249396
      px      :     0.103509
      py      :     0.065031
  6 C s       :     2.640409  s :     2.640409
      pz      :     0.756081  p :     2.262669
      px      :     0.910579
      py      :     0.596009
      dz2     :     0.243025  d :     1.090689
      dxz     :     0.302841
      dyz     :     0.172277
      dx2y2   :     0.197529
      dxy     :     0.175016
  7 C s       :     2.627711  s :     2.627711
      pz      :     0.905761  p :     2.508631
      px      :     0.835202
      py      :     0.767668
      dz2     :     0.252597  d :     1.114893
      dxz     :     0.237899
      dyz     :     0.222215
      dx2y2   :     0.229458
      dxy     :     0.172724
  8 N s       :     2.930547  s :     2.930547
      pz      :     1.151504  p :     3.489698
      px      :     1.192542
      py      :     1.145653
      dz2     :     0.070786  d :     0.357090
      dxz     :     0.082902
      dyz     :     0.033133
      dx2y2   :     0.092954
      dxy     :     0.077315
  9 N s       :     2.944618  s :     2.944618
      pz      :     1.063685  p :     3.506095
      px      :     1.143701
      py      :     1.298710
      dz2     :     0.112673  d :     0.339358
      dxz     :     0.051102
      dyz     :     0.058808
      dx2y2   :     0.060050
      dxy     :     0.056725
 10 H s       :     0.664379  s :     0.664379
      pz      :     0.144887  p :     0.346567
      px      :     0.089334
      py      :     0.112347
 11 H s       :     0.647234  s :     0.647234
      pz      :     0.090824  p :     0.360220
      px      :     0.149990
      py      :     0.119405
 12 H s       :     0.720397  s :     0.720397
      pz      :     0.099323  p :     0.334163
      px      :     0.100146
      py      :     0.134694
 13 H s       :     0.607575  s :     0.607575
      pz      :     0.116655  p :     0.468337
      px      :     0.107883
      py      :     0.243798
 14 H s       :     0.664659  s :     0.664659
      pz      :     0.153643  p :     0.338721
      px      :     0.098730
      py      :     0.086348
 15 H s       :     0.719394  s :     0.719394
      pz      :     0.116899  p :     0.273784
      px      :     0.084046
      py      :     0.072839
 16 H s       :     0.736555  s :     0.736555
      pz      :     0.093750  p :     0.251491
      px      :     0.077517
      py      :     0.080224
 17 H s       :     0.713485  s :     0.713485
      pz      :     0.085896  p :     0.252882
      px      :     0.105634
      py      :     0.061352
 18 H s       :     0.730701  s :     0.730701
      pz      :     0.073819  p :     0.247785
      px      :     0.112271
      py      :     0.061696
 19 F s       :     3.596071  s :     3.596071
      pz      :     1.618093  p :     5.194638
      px      :     1.838518
      py      :     1.738027
      dz2     :     0.067593  d :     0.226607
      dxz     :     0.063094
      dyz     :     0.058917
      dx2y2   :     0.017152
      dxy     :     0.019850
 20 O s       :     3.432434  s :     3.432434
      pz      :     1.584888  p :     4.459782
      px      :     1.458373
      py      :     1.416522
      dz2     :     0.035737  d :     0.255961
      dxz     :     0.056677
      dyz     :     0.028819
      dx2y2   :     0.080039
      dxy     :     0.054689


                      *****************************
                      * MAYER POPULATION ANALYSIS *
                      *****************************

  NA   - Mulliken gross atomic population
  ZA   - Total nuclear charge
  QA   - Mulliken gross atomic charge
  VA   - Mayer's total valence
  BVA  - Mayer's bonded valence
  FA   - Mayer's free valence

  ATOM       NA         ZA         QA         VA         BVA        FA
  0 C      5.4817     6.0000     0.5183     4.5024     4.5024    -0.0000
  1 C      5.8747     6.0000     0.1253     4.0205     4.0205    -0.0000
  2 C      5.6628     6.0000     0.3372     4.6263     4.6263    -0.0000
  3 C      5.5623     6.0000     0.4377     4.1294     4.1294    -0.0000
  4 H      1.1436     1.0000    -0.1436     1.0172     1.0172    -0.0000
  5 H      1.0741     1.0000    -0.0741     0.9505     0.9505    -0.0000
  6 C      5.2618     6.0000     0.7382     3.9730     3.9730    -0.0000
  7 C      5.9848     6.0000     0.0152     4.6690     4.6690    -0.0000
  8 N      6.6400     7.0000     0.3600     3.2042     3.2042    -0.0000
  9 N      6.8873     7.0000     0.1127     3.3637     3.3637    -0.0000
 10 H      1.0811     1.0000    -0.0811     1.0335     1.0335    -0.0000
 11 H      1.0259     1.0000    -0.0259     0.8735     0.8735    -0.0000
 12 H      1.3561     1.0000    -0.3561     1.1311     1.1311     0.0000
 13 H      1.1400     1.0000    -0.1400     0.9920     0.9920    -0.0000
 14 H      1.0682     1.0000    -0.0682     0.9028     0.9028    -0.0000
 15 H      1.2251     1.0000    -0.2251     0.9673     0.9673    -0.0000
 16 H      1.3039     1.0000    -0.3039     0.8764     0.8764    -0.0000
 17 H      1.0098     1.0000    -0.0098     0.9080     0.9080    -0.0000
 18 H      1.2555     1.0000    -0.2555     0.9563     0.9563    -0.0000
 19 F      9.3829     9.0000    -0.3829     0.8725     0.8725    -0.0000
 20 O      8.5782     8.0000    -0.5782     2.0352     2.0352    -0.0000

  Mayer bond orders larger than 0.100000
B(  0-C ,  1-C ) :   0.9906 B(  0-C ,  2-C ) :   1.2057 B(  0-C , 12-H ) :   0.2346 
B(  0-C , 15-H ) :   0.7192 B(  0-C , 16-H ) :   0.7644 B(  0-C , 18-H ) :   0.2291 
B(  1-C ,  2-C ) :   0.1525 B(  1-C ,  7-C ) :   1.7887 B(  1-C ,  8-N ) :   0.3270 
B(  1-C ,  9-N ) :   0.1683 B(  1-C , 12-H ) :   0.3483 B(  1-C , 15-H ) :   0.1264 
B(  1-C , 16-H ) :   0.1769 B(  2-C ,  3-C ) :   1.1784 B(  2-C ,  4-H ) :   0.1915 
B(  2-C ,  5-H ) :   0.1336 B(  2-C , 17-H ) :   0.8049 B(  2-C , 18-H ) :   0.8144 
B(  3-C ,  4-H ) :   0.7680 B(  3-C ,  5-H ) :   0.8432 B(  3-C ,  6-C ) :   1.0913 
B(  3-C , 17-H ) :   0.1003 B(  4-H ,  6-C ) :   0.1294 B(  5-H ,  6-C ) :   0.1364 
B(  6-C , 19-F ) :   0.6924 B(  6-C , 20-O ) :   1.6758 B(  7-C ,  8-N ) :   0.9183 
B(  7-C ,  9-N ) :   1.0121 B(  7-C , 12-H ) :   0.3496 B(  7-C , 14-H ) :   0.1948 
B(  8-N ,  9-N ) :   0.1221 B(  8-N , 13-H ) :   0.9083 B(  8-N , 14-H ) :   0.8160 
B(  9-N , 10-H ) :   1.0501 B(  9-N , 11-H ) :   0.9799 B( 10-H , 11-H ) :  -0.1069 
B( 13-H , 20-O ) :   0.1233 B( 15-H , 16-H ) :  -0.1226 B( 17-H , 18-H ) :  -0.1076 


-------
TIMINGS
-------

Total SCF time: 0 days 0 hours 1 min 51 sec 

Total time                  ....     111.615 sec
Sum of individual times     ....     111.317 sec  ( 99.7%)

Fock matrix formation       ....     108.693 sec  ( 97.4%)
  Split-RI-J                ....       4.276 sec  (  3.9% of F)
  Chain of spheres X        ....      93.648 sec  ( 86.2% of F)
  XC integration            ....      10.672 sec  (  9.8% of F)
    Basis function eval.    ....       3.049 sec  ( 28.6% of XC)
    Density eval.           ....       2.951 sec  ( 27.6% of XC)
    XC-Functional eval.     ....       0.998 sec  (  9.4% of XC)
    XC-Potential eval.      ....       3.364 sec  ( 31.5% of XC)
Diagonalization             ....       0.164 sec  (  0.1%)
Density matrix formation    ....       0.013 sec  (  0.0%)
Population analysis         ....       0.020 sec  (  0.0%)
Initial guess               ....       0.416 sec  (  0.4%)
Orbital Transformation      ....       0.000 sec  (  0.0%)
Orbital Orthonormalization  ....       0.000 sec  (  0.0%)
DIIS solution               ....       0.087 sec  (  0.1%)
SOSCF solution              ....       0.117 sec  (  0.1%)
Grid generation             ....       1.806 sec  (  1.6%)

Maximum memory used throughout the entire SCF-calculation: 66.7 MB

-------------------------   --------------------
FINAL SINGLE POINT ENERGY      -519.204336457854
-------------------------   --------------------


                            ***************************************
                            *     ORCA property calculations      *
                            ***************************************

                                    ---------------------
                                    Active property flags
                                    ---------------------
   (+) Dipole Moment


------------------------------------------------------------------------------
                       ORCA ELECTRIC PROPERTIES CALCULATION
------------------------------------------------------------------------------

Dipole Moment Calculation                       ... on
Quadrupole Moment Calculation                   ... off
Polarizability Calculation                      ... off
GBWName                                         ... 28Oct_SVPD_CAMB3LYP_D1_wb97.gbw
Electron density file                           ... 28Oct_SVPD_CAMB3LYP_D1_wb97.scfp
The origin for moment calculation is the CENTER OF MASS  = ( 9.601419,  3.884988 -9.423337)

-------------
DIPOLE MOMENT
-------------
                                X             Y             Z
Electronic contribution:      3.36169      -3.65241      -6.44733
Nuclear contribution   :     -4.60158       3.22721       5.56005
                        -----------------------------------------
Total Dipole Moment    :     -1.23989      -0.42520      -0.88727
                        -----------------------------------------
Magnitude (a.u.)       :      1.58284
Magnitude (Debye)      :      4.02326



--------------------
Rotational spectrum 
--------------------
 
Rotational constants in cm-1:     0.061224     0.042534     0.033552 
Rotational constants in MHz :  1835.464095  1275.135177  1005.856966 

 Dipole components along the rotational axes: 
x,y,z [a.u.] :     0.476651     0.076909     1.507406 
x,y,z [Debye]:     1.211551     0.195488     3.831523 

 

Timings for individual modules:

Sum of individual times         ...      112.537 sec (=   1.876 min)
GTO integral calculation        ...        0.591 sec (=   0.010 min)   0.5 %
SCF iterations                  ...      111.946 sec (=   1.866 min)  99.5 %
                             ****ORCA TERMINATED NORMALLY****
TOTAL RUN TIME: 0 days 0 hours 1 minutes 53 seconds 43 msec
