
                                        *****************
                                        * O   R   C   A *
                                        *****************

                                            #,                                       
                                            ###                                      
                                            ####                                     
                                            #####                                    
                                            ######                                   
                                           ########,                                 
                                     ,,################,,,,,                         
                               ,,#################################,,                 
                          ,,##########################################,,             
                       ,#########################################, ''#####,          
                    ,#############################################,,   '####,        
                  ,##################################################,,,,####,       
                ,###########''''           ''''###############################       
              ,#####''   ,,,,##########,,,,          '''####'''          '####       
            ,##' ,,,,###########################,,,                        '##       
           ' ,,###''''                  '''############,,,                           
         ,,##''                                '''############,,,,        ,,,,,,###''
      ,#''                                            '''#######################'''  
     '                                                          ''''####''''         
             ,#######,   #######,   ,#######,      ##                                
            ,#'     '#,  ##    ##  ,#'     '#,    #''#        ######   ,####,        
            ##       ##  ##   ,#'  ##            #'  '#       #        #'  '#        
            ##       ##  #######   ##           ,######,      #####,   #    #        
            '#,     ,#'  ##    ##  '#,     ,#' ,#      #,         ##   #,  ,#        
             '#######'   ##     ##  '#######'  #'      '#     #####' # '####'        



                  #######################################################
                  #                        -***-                        #
                  #          Department of theory and spectroscopy      #
                  #    Directorship and core code : Frank Neese         #
                  #        Max Planck Institute fuer Kohlenforschung    #
                  #                Kaiser Wilhelm Platz 1               #
                  #                 D-45470 Muelheim/Ruhr               #
                  #                      Germany                        #
                  #                                                     #
                  #                  All rights reserved                #
                  #                        -***-                        #
                  #######################################################


                         Program Version 5.0.0 -  RELEASE  -
                                (SVN: $Rev: 19529$)
                ($Date: 2021-06-28 11:36:33 +0200 (Mo, 28 Jun 2021) $)


 With contributions from (in alphabetic order):
   Daniel Aravena         : Magnetic Suceptibility
   Michael Atanasov       : Ab Initio Ligand Field Theory (pilot matlab implementation)
   Alexander A. Auer      : GIAO ZORA, VPT2 properties, NMR spectrum
   Ute Becker             : Parallelization
   Giovanni Bistoni       : ED, misc. LED, open-shell LED, HFLD
   Martin Brehm           : Molecular dynamics
   Dmytro Bykov           : SCF Hessian
   Vijay G. Chilkuri      : MRCI spin determinant printing, contributions to CSF-ICE
   Dipayan Datta          : RHF DLPNO-CCSD density
   Achintya Kumar Dutta   : EOM-CC, STEOM-CC
   Dmitry Ganyushin       : Spin-Orbit,Spin-Spin,Magnetic field MRCI
   Miquel Garcia          : C-PCM Hessian, Gaussian charge scheme
   Yang Guo               : DLPNO-NEVPT2, F12-NEVPT2, CIM, IAO-localization
   Andreas Hansen         : Spin unrestricted coupled pair/coupled cluster methods
   Benjamin Helmich-Paris : MC-RPA, TRAH-SCF, COSX integrals
   Lee Huntington         : MR-EOM, pCC
   Robert Izsak           : Overlap fitted RIJCOSX, COSX-SCS-MP3, EOM
   Marcus Kettner         : VPT2
   Christian Kollmar      : KDIIS, OOCD, Brueckner-CCSD(T), CCSD density, CASPT2, CASPT2-K
   Simone Kossmann        : Meta GGA functionals, TD-DFT gradient, OOMP2, MP2 Hessian
   Martin Krupicka        : Initial AUTO-CI
   Lucas Lang             : DCDCAS
   Marvin Lechner         : AUTO-CI (C++ implementation), FIC-MRCC
   Dagmar Lenk            : GEPOL surface, SMD
   Dimitrios Liakos       : Extrapolation schemes; Compound Job, initial MDCI parallelization
   Dimitrios Manganas     : Further ROCIS development; embedding schemes
   Dimitrios Pantazis     : SARC Basis sets
   Anastasios Papadopoulos: AUTO-CI, single reference methods and gradients
   Taras Petrenko         : DFT Hessian,TD-DFT gradient, ASA, ECA, R-Raman, ABS, FL, XAS/XES, NRVS
   Peter Pinski           : DLPNO-MP2, DLPNO-MP2 Gradient
   Christoph Reimann      : Effective Core Potentials
   Marius Retegan         : Local ZFS, SOC
   Christoph Riplinger    : Optimizer, TS searches, QM/MM, DLPNO-CCSD(T), (RO)-DLPNO pert. Triples
   Tobias Risthaus        : Range-separated hybrids, TD-DFT gradient, RPA, STAB
   Michael Roemelt        : Original ROCIS implementation
   Masaaki Saitow         : Open-shell DLPNO-CCSD energy and density
   Barbara Sandhoefer     : DKH picture change effects
   Avijit Sen             : IP-ROCIS
   Kantharuban Sivalingam : CASSCF convergence, NEVPT2, FIC-MRCI
   Bernardo de Souza      : ESD, SOC TD-DFT
   Georgi Stoychev        : AutoAux, RI-MP2 NMR
   Willem Van den Heuvel  : Paramagnetic NMR
   Boris Wezisla          : Elementary symmetry handling
   Frank Wennmohs         : Technical directorship


 We gratefully acknowledge several colleagues who have allowed us to
 interface, adapt or use parts of their codes:
   Stefan Grimme, W. Hujo, H. Kruse, P. Pracht,  : VdW corrections, initial TS optimization,
                  C. Bannwarth, S. Ehlert          DFT functionals, gCP, sTDA/sTD-DF
   Ed Valeev, F. Pavosevic, A. Kumar             : LibInt (2-el integral package), F12 methods
   Garnet Chan, S. Sharma, J. Yang, R. Olivares  : DMRG
   Ulf Ekstrom                                   : XCFun DFT Library
   Mihaly Kallay                                 : mrcc  (arbitrary order and MRCC methods)
   Jiri Pittner, Ondrej Demel                    : Mk-CCSD
   Frank Weinhold                                : gennbo (NPA and NBO analysis)
   Christopher J. Cramer and Donald G. Truhlar   : smd solvation model
   Lars Goerigk                                  : TD-DFT with DH, B97 family of functionals
   V. Asgeirsson, H. Jonsson                     : NEB implementation
   FAccTs GmbH                                   : IRC, NEB, NEB-TS, DLPNO-Multilevel, CI-OPT
                                                   MM, QMMM, 2- and 3-layer-ONIOM, Crystal-QMMM,
                                                   LR-CPCM, SF, NACMEs, symmetry and pop. for TD-DFT,
                                                   nearIR, NL-DFT gradient (VV10), updates on ESD,
                                                   ML-optimized integration grids
   S Lehtola, MJT Oliveira, MAL Marques          : LibXC Library
   Liviu Ungur et al                             : ANISO software


 Your calculation uses the libint2 library for the computation of 2-el integrals
 For citations please refer to: http://libint.valeyev.net

 Your ORCA version has been built with support for libXC version: 5.1.0
 For citations please refer to: https://tddft.org/programs/libxc/

 This ORCA versions uses:
   CBLAS   interface :  Fast vector & matrix operations
   LAPACKE interface :  Fast linear algebra routines
   SCALAPACK package :  Parallel linear algebra routines
   Shared memory     :  Shared parallel matrices
   BLAS/LAPACK       :  OpenBLAS 0.3.15  USE64BITINT DYNAMIC_ARCH NO_AFFINITY Haswell SINGLE_THREADED
        Core in use  :  Haswell
   Copyright (c) 2011-2014, The OpenBLAS Project


Your calculation utilizes the atom-pairwise dispersion correction
with the zero-damping scheme (D30)
Cite in your paper:
S.Grimme, J.Antony, S.Ehrlich and H.Krieg, J.Chem.Phys., 132, (2010), 154104 
   

XCFun DFT library Copyright 2009-2010 Ulf Ekstrom and contributors.
See http://admol.org/xcfun for more information.
This is free software; see the source code for copying conditions.
There is ABSOLUTELY NO WARRANTY; not even for MERCHANTABILITY or FITNESS FOR A PARTICULAR PURPOSE.
For details see the documentation.
Scientific users of this library should cite U. Ekstrom, L. Visscher, R. Bast, A. J. Thorvaldsen and K. Ruud;
J.Chem.Theor.Comp. 2010, DOI: 10.1021/ct100117s
XCFun Version 0.99 

================================================================================

----- Orbital basis set information -----
Your calculation utilizes the basis: def2-SVPD
   F. Weigend and R. Ahlrichs, Phys. Chem. Chem. Phys. 7, 3297 (2005).
   D. Rappoport and F. Furche, J. Chem. Phys. 133 134105 (2010).

----- AuxJ basis set information -----
Your calculation utilizes the auxiliary basis: def2/J
   F. Weigend, Phys. Chem. Chem. Phys. 8, 1057 (2006).

================================================================================
                                        WARNINGS
                       Please study these warnings very carefully!
================================================================================


INFO   : the flag for use of the SHARK integral package has been found!

================================================================================
                                       INPUT FILE
================================================================================
NAME = C2_wt_dlpno_neg.com
|  1> !wB97X-D3 RIJCOSX def2-SVPD def2/J TightSCF
|  2> *xyz 0 1
|  3> C         -0.87096        0.24804       -2.66280
|  4> C         -0.47749        0.60819       -4.10105
|  5> H          0.20677        1.45830       -4.11875
|  6> H         -1.36844        0.92942       -4.64785
|  7> C          0.18467       -0.50664       -4.91676
|  8> O         -0.15869       -1.70109       -4.65798
|  9> F          1.05594       -0.17441       -5.74037
| 10> H         -1.54056       -0.58646       -2.67455
| 11> H         -1.35339        1.08600       -2.20455
| 12> H          0.00660       -0.00662       -2.10609
| 13> *
| 14> 
| 15> %MaxCore 64000
| 16> 
| 17> %pal nprocs 18
| 18> end  
| 19> 
| 20> %scf
| 21>   MaxIter 150
| 22> end
| 23> 
| 24> 
| 25>                          ****END OF INPUT****
================================================================================

                       ****************************
                       * Single Point Calculation *
                       ****************************

---------------------------------
CARTESIAN COORDINATES (ANGSTROEM)
---------------------------------
  C     -0.870960    0.248040   -2.662800
  C     -0.477490    0.608190   -4.101050
  H      0.206770    1.458300   -4.118750
  H     -1.368440    0.929420   -4.647850
  C      0.184670   -0.506640   -4.916760
  O     -0.158690   -1.701090   -4.657980
  F      1.055940   -0.174410   -5.740370
  H     -1.540560   -0.586460   -2.674550
  H     -1.353390    1.086000   -2.204550
  H      0.006600   -0.006620   -2.106090

----------------------------
CARTESIAN COORDINATES (A.U.)
----------------------------
  NO LB      ZA    FRAG     MASS         X           Y           Z
   0 C     6.0000    0    12.011   -1.645876    0.468728   -5.031963
   1 C     6.0000    0    12.011   -0.902325    1.149313   -7.749861
   2 H     1.0000    0     1.008    0.390739    2.755788   -7.783310
   3 H     1.0000    0     1.008   -2.585977    1.756349   -8.783164
   4 C     6.0000    0    12.011    0.348976   -0.957411   -9.291330
   5 O     8.0000    0    15.999   -0.299881   -3.214594   -8.802307
   6 F     9.0000    0    18.998    1.995437   -0.329587  -10.847727
   7 H     1.0000    0     1.008   -2.911236   -1.108249   -5.054167
   8 H     1.0000    0     1.008   -2.557536    2.052243   -4.165996
   9 H     1.0000    0     1.008    0.012472   -0.012510   -3.979933

--------------------------------
INTERNAL COORDINATES (ANGSTROEM)
--------------------------------
 C      0   0   0     0.000000000000     0.00000000     0.00000000
 C      1   0   0     1.533978398120     0.00000000     0.00000000
 H      2   1   0     1.091426612146   111.03194629     0.00000000
 H      2   1   3     1.093604524223   109.19524702   243.60560484
 C      2   1   3     1.531889225303   116.05717792   122.04169196
 O      5   2   1     1.269477837735   117.34060562    31.12046858
 F      5   2   1     1.244114792895   117.44393262   214.04945783
 H      1   2   3     1.069996482471   109.47107572   179.99941746
 H      1   2   3     1.070004078964   109.47075608    60.00022000
 H      1   2   3     1.069994996857   109.47099921   299.99993776

---------------------------
INTERNAL COORDINATES (A.U.)
---------------------------
 C      0   0   0     0.000000000000     0.00000000     0.00000000
 C      1   0   0     2.898799067799     0.00000000     0.00000000
 H      2   1   0     2.062497392229   111.03194629     0.00000000
 H      2   1   3     2.066613049598   109.19524702   243.60560484
 C      2   1   3     2.894851103328   116.05717792   122.04169196
 O      5   2   1     2.398965446401   117.34060562    31.12046858
 F      5   2   1     2.351036237732   117.44393262   214.04945783
 H      1   2   3     2.022000316129   109.47107572   179.99941746
 H      1   2   3     2.022014671421   109.47075608    60.00022000
 H      1   2   3     2.021997508727   109.47099921   299.99993776

---------------------
BASIS SET INFORMATION
---------------------
There are 4 groups of distinct atoms

 Group   1 Type C   : 8s4p2d contracted to 4s2p2d pattern {5111/31/11}
 Group   2 Type H   : 4s2p contracted to 2s2p pattern {31/11}
 Group   3 Type O   : 8s5p2d contracted to 4s3p2d pattern {5111/311/11}
 Group   4 Type F   : 8s5p2d contracted to 4s3p2d pattern {5111/311/11}

Atom   0C    basis set group =>   1
Atom   1C    basis set group =>   1
Atom   2H    basis set group =>   2
Atom   3H    basis set group =>   2
Atom   4C    basis set group =>   1
Atom   5O    basis set group =>   3
Atom   6F    basis set group =>   4
Atom   7H    basis set group =>   2
Atom   8H    basis set group =>   2
Atom   9H    basis set group =>   2
---------------------------------
AUXILIARY/J BASIS SET INFORMATION
---------------------------------
There are 4 groups of distinct atoms

 Group   1 Type C   : 12s5p4d2f1g contracted to 6s4p3d1f1g pattern {711111/2111/211/2/1}
 Group   2 Type H   : 5s2p1d contracted to 3s1p1d pattern {311/2/1}
 Group   3 Type O   : 12s5p4d2f1g contracted to 6s4p3d1f1g pattern {711111/2111/211/2/1}
 Group   4 Type F   : 12s5p4d2f1g contracted to 6s4p3d1f1g pattern {711111/2111/211/2/1}

Atom   0C    basis set group =>   1
Atom   1C    basis set group =>   1
Atom   2H    basis set group =>   2
Atom   3H    basis set group =>   2
Atom   4C    basis set group =>   1
Atom   5O    basis set group =>   3
Atom   6F    basis set group =>   4
Atom   7H    basis set group =>   2
Atom   8H    basis set group =>   2
Atom   9H    basis set group =>   2


           ************************************************************
           *        Program running with 18 parallel MPI-processes    *
           *              working on a common directory               *
           ************************************************************
------------------------------------------------------------------------------
                           ORCA GTO INTEGRAL CALCULATION
                           -- RI-GTO INTEGRALS CHOSEN --
------------------------------------------------------------------------------
------------------------------------------------------------------------------
                   ___                                                        
                  /   \      - P O W E R E D   B Y -                         
                 /     \                                                     
                 |  |  |   _    _      __       _____    __    __             
                 |  |  |  | |  | |    /  \     |  _  \  |  |  /  |          
                  \  \/   | |  | |   /    \    | | | |  |  | /  /          
                 / \  \   | |__| |  /  /\  \   | |_| |  |  |/  /          
                |  |  |   |  __  | /  /__\  \  |    /   |      \           
                |  |  |   | |  | | |   __   |  |    \   |  |\   \          
                \     /   | |  | | |  |  |  |  | |\  \  |  | \   \       
                 \___/    |_|  |_| |__|  |__|  |_| \__\ |__|  \__/        
                                                                              
                      - O R C A' S   B I G   F R I E N D -                    
                                      &                                       
                       - I N T E G R A L  F E E D E R -                       
                                                                              
 v1 FN, 2020, v2 2021                                                         
------------------------------------------------------------------------------


Reading SHARK input file C2_wt_dlpno_neg.SHARKINP.tmp ... ok
----------------------
SHARK INTEGRAL PACKAGE
----------------------

Number of atoms                             ...     10
Number of basis functions                   ...    146
Number of shells                            ...     62
Maximum angular momentum                    ...      2
Integral batch strategy                     ... SHARK/LIBINT Hybrid
RI-J (if used) integral strategy            ... SPLIT-RIJ (Revised 2003 algorithm where possible)
Printlevel                                  ...      1
Contraction scheme used                     ... SEGMENTED contraction
Coulomb Range Separation                    ... NOT USED
Exchange Range Separation                   ... Long Range
   Mu parameter                             ...  0.250000
   Scaling (regular/separated)              ...  0.195728  0.804272
Finite Nucleus Model                        ... NOT USED
Auxiliary Coulomb fitting basis             ... AVAILABLE
   # of basis functions in Aux-J            ...    300
   # of shells in Aux-J                     ...    100
   Maximum angular momentum in Aux-J        ...      4
Auxiliary J/K fitting basis                 ... NOT available
Auxiliary Correlation fitting basis         ... NOT available
Auxiliary 'external' fitting basis          ... NOT available
Integral threshold                          ...     2.500000e-11
Primitive cut-off                           ...     2.500000e-12
Primitive pair pre-selection threshold      ...     2.500000e-12

Calculating pre-screening integrals         ... done (  0.0 sec) Dimension = 62
Organizing shell pair data                  ... done (  0.0 sec)
Shell pair information
Total number of shell pairs                 ...      1953
Shell pairs after pre-screening             ...      1934
Total number of primitive shell pairs       ...      5333
Primitive shell pairs kept                  ...      4522
          la=0 lb=0:    457 shell pairs
          la=1 lb=0:    653 shell pairs
          la=1 lb=1:    252 shell pairs
          la=2 lb=0:    298 shell pairs
          la=2 lb=1:    219 shell pairs
          la=2 lb=2:     55 shell pairs

Calculating one electron integrals          ... done (  0.0 sec)
Calculating RI/J V-Matrix + Cholesky decomp.... done (  0.0 sec)
Calculating Nuclear repulsion               ... done (  0.0 sec) ENN=    176.049016748323 Eh

SHARK setup successfully completed in   0.2 seconds

Maximum memory used throughout the entire GTOINT-calculation: 8.8 MB


           ************************************************************
           *        Program running with 18 parallel MPI-processes    *
           *              working on a common directory               *
           ************************************************************
-------------------------------------------------------------------------------
                                 ORCA SCF
-------------------------------------------------------------------------------

------------
SCF SETTINGS
------------
Hamiltonian:
 Density Functional     Method          .... DFT(GTOs)
 Exchange Functional    Exchange        .... WB97X-D3
 Correlation Functional Correlation     .... WB97X-D3
 Gradients option       PostSCFGGA      .... off
 Hybrid DFT is turned on
   Fraction HF Exchange ScalHFX         ....  0.195728
   Scaling of DF-GGA-X  ScalDFX         ....  0.000000
   Scaling of DF-GGA-C  ScalDFC         ....  1.000000
   Scaling of DF-LDA-C  ScalLDAC        ....  1.000000
   Perturbative correction              ....  0.000000
   Density functional embedding theory  .... OFF
 Long-range corrected/Screened/Range-Separated Hybrid DFT is turned on
   Amount of maximum screened exact exchange              ....  0.804272
   Range separation parameter mu (erf(mu*r12)/r12)        ....  0.250000
 RI-approximation to the Coulomb term is turned on
   Number of AuxJ basis functions       .... 300
   RIJ-COSX (HFX calculated with COS-X)).... on


General Settings:
 Integral files         IntName         .... C2_wt_dlpno_neg
 Hartree-Fock type      HFTyp           .... RHF
 Total Charge           Charge          ....    0
 Multiplicity           Mult            ....    1
 Number of Electrons    NEL             ....   40
 Basis Dimension        Dim             ....  146
 Nuclear Repulsion      ENuc            ....    176.0490167483 Eh

Convergence Acceleration:
 DIIS                   CNVDIIS         .... on
   Start iteration      DIISMaxIt       ....    12
   Startup error        DIISStart       ....  0.200000
   # of expansion vecs  DIISMaxEq       ....     5
   Bias factor          DIISBfac        ....   1.050
   Max. coefficient     DIISMaxC        ....  10.000
 Trust-Rad. Augm. Hess. CNVTRAH         .... auto
   Auto Start mean grad. ratio tolernc. ....  1.125000
   Auto Start start iteration           ....    20
   Auto Start num. interpolation iter.  ....    10
   Max. Number of Micro iterations      ....    16
   Max. Number of Macro iterations      .... Maxiter - #DIIS iter
   Number of Davidson start vectors     ....     2
   Converg. threshold I  (grad. norm)   ....   1.000e-05
   Converg. threshold II (energy diff.) ....   1.000e-08
   Grad. Scal. Fac. for Micro threshold ....   0.100
   Minimum threshold for Micro iter.    ....   0.010
   NR start threshold (gradient norm)   ....   0.001
   Initial trust radius                 ....   0.400
   Minimum AH scaling param. (alpha)    ....   1.000
   Maximum AH scaling param. (alpha)    .... 1000.000
   Orbital update algorithm             .... Taylor
   White noise on init. David. guess    .... on
   Maximum white noise                  ....   0.010
   Quad. conv. algorithm                .... NR
 SOSCF                  CNVSOSCF        .... on
   Start iteration      SOSCFMaxIt      ....   150
   Startup grad/error   SOSCFStart      ....  0.003300
 Level Shifting         CNVShift        .... on
   Level shift para.    LevelShift      ....    0.2500
   Turn off err/grad.   ShiftErr        ....    0.0010
 Zerner damping         CNVZerner       .... off
 Static damping         CNVDamp         .... on
   Fraction old density DampFac         ....    0.7000
   Max. Damping (<1)    DampMax         ....    0.9800
   Min. Damping (>=0)   DampMin         ....    0.0000
   Turn off err/grad.   DampErr         ....    0.1000
 Fernandez-Rico         CNVRico         .... off

SCF Procedure:
 Maximum # iterations   MaxIter         ....   150
 SCF integral mode      SCFMode         .... Direct
   Integral package                     .... SHARK and LIBINT hybrid scheme
 Reset frequency        DirectResetFreq ....    20
 Integral Threshold     Thresh          ....  2.500e-11 Eh
 Primitive CutOff       TCut            ....  2.500e-12 Eh

Convergence Tolerance:
 Convergence Check Mode ConvCheckMode   .... Total+1el-Energy
 Convergence forced     ConvForced      .... 0
 Energy Change          TolE            ....  1.000e-08 Eh
 1-El. energy change                    ....  1.000e-05 Eh
 Orbital Gradient       TolG            ....  1.000e-05
 Orbital Rotation angle TolX            ....  1.000e-05
 DIIS Error             TolErr          ....  5.000e-07


Diagonalization of the overlap matrix:
Smallest eigenvalue                        ... 2.104e-04
Time for diagonalization                   ...    0.006 sec
Threshold for overlap eigenvalues          ... 1.000e-08
Number of eigenvalues below threshold      ... 0
Time for construction of square roots      ...    0.013 sec
Total time needed                          ...    0.020 sec

Time for model grid setup =    0.043 sec

------------------------------
INITIAL GUESS: MODEL POTENTIAL
------------------------------
Loading Hartree-Fock densities                     ... done
Calculating cut-offs                               ... done
Initializing the effective Hamiltonian             ... done
Setting up the integral package (SHARK)            ... done
Starting the Coulomb interaction                   ... done (   0.0 sec)
Reading the grid                                   ... done
Mapping shells                                     ... done
Starting the XC term evaluation                    ... done (   0.0 sec)
  promolecular density results
     # of electrons  =     39.997172054
     EX              =    -34.955704869
     EC              =     -1.329587010
     EX+EC           =    -36.285291879
Transforming the Hamiltonian                       ... done (   0.0 sec)
Diagonalizing the Hamiltonian                      ... done (   0.0 sec)
Back transforming the eigenvectors                 ... done (   0.0 sec)
Now organizing SCF variables                       ... done
                      ------------------
                      INITIAL GUESS DONE (   0.1 sec)
                      ------------------
-------------------
DFT GRID GENERATION
-------------------

General Integration Accuracy     IntAcc      ... 4.388
Radial Grid Type                 RadialGrid  ... OptM3 with GC (2021)
Angular Grid (max. ang.)         AngularGrid ... 4 (Lebedev-302)
Angular grid pruning method      GridPruning ... 4 (adaptive)
Weight generation scheme         WeightScheme... Becke
Basis function cutoff            BFCut       ... 1.0000e-11
Integration weight cutoff        WCut        ... 1.0000e-14
Angular grids for H and He will be reduced by one unit
Partially contracted basis set               ... off
Rotationally invariant grid construction     ... off

Total number of grid points                  ...    48177
Total number of batches                      ...      757
Average number of points per batch           ...       63
Average number of grid points per atom       ...     4818
Time for grid setup =    0.259 sec

--------------------
COSX GRID GENERATION
--------------------

GRIDX 1
-------
General Integration Accuracy     IntAcc      ... 3.816
Radial Grid Type                 RadialGrid  ... OptM3 with GC (2021)
Angular Grid (max. ang.)         AngularGrid ... 1 (Lebedev-50)
Angular grid pruning method      GridPruning ... 4 (adaptive)
Weight generation scheme         WeightScheme... Becke
Basis function cutoff            BFCut       ... 1.0000e-11
Integration weight cutoff        WCut        ... 1.0000e-14
Angular grids for H and He will be reduced by one unit
Partially contracted basis set               ... on
Rotationally invariant grid construction     ... off

Total number of grid points                  ...     6040
Total number of batches                      ...      100
Average number of points per batch           ...       60
Average number of grid points per atom       ...      604
UseSFitting                                  ... on

GRIDX 2
-------
General Integration Accuracy     IntAcc      ... 4.020
Radial Grid Type                 RadialGrid  ... OptM3 with GC (2021)
Angular Grid (max. ang.)         AngularGrid ... 2 (Lebedev-110)
Angular grid pruning method      GridPruning ... 4 (adaptive)
Weight generation scheme         WeightScheme... Becke
Basis function cutoff            BFCut       ... 1.0000e-11
Integration weight cutoff        WCut        ... 1.0000e-14
Angular grids for H and He will be reduced by one unit
Partially contracted basis set               ... on
Rotationally invariant grid construction     ... off

Total number of grid points                  ...    14238
Total number of batches                      ...      229
Average number of points per batch           ...       62
Average number of grid points per atom       ...     1424
UseSFitting                                  ... on

GRIDX 3
-------
General Integration Accuracy     IntAcc      ... 4.338
Radial Grid Type                 RadialGrid  ... OptM3 with GC (2021)
Angular Grid (max. ang.)         AngularGrid ... 3 (Lebedev-194)
Angular grid pruning method      GridPruning ... 4 (adaptive)
Weight generation scheme         WeightScheme... Becke
Basis function cutoff            BFCut       ... 1.0000e-11
Integration weight cutoff        WCut        ... 1.0000e-14
Angular grids for H and He will be reduced by one unit
Partially contracted basis set               ... on
Rotationally invariant grid construction     ... off

Total number of grid points                  ...    32198
Total number of batches                      ...      507
Average number of points per batch           ...       63
Average number of grid points per atom       ...     3220
UseSFitting                                  ... on

Time for X-Grid setup             =    0.202 sec

--------------
SCF ITERATIONS
--------------
ITER       Energy         Delta-E        Max-DP      RMS-DP      [F,P]     Damp
               ***  Starting incremental Fock matrix formation  ***
  0   -291.9213399744   0.000000000000 0.09215899  0.00291306  0.2600840 0.7000
  1   -292.0066812519  -0.085341277545 0.05398535  0.00181392  0.1075190 0.7000
                               ***Turning on DIIS***
  2   -292.0412352462  -0.034553994273 0.09056924  0.00315931  0.0492241 0.0000
  3   -292.1004578841  -0.059222637891 0.03970193  0.00134755  0.0582535 0.0000
  4   -292.1101567331  -0.009698849052 0.01227225  0.00035722  0.0133206 0.0000
  5   -292.1106800883  -0.000523355120 0.00306425  0.00010141  0.0037816 0.0000
                      *** Initiating the SOSCF procedure ***
                           *** Shutting down DIIS ***
                      *** Re-Reading the Fockian *** 
                      *** Removing any level shift *** 
ITER      Energy       Delta-E        Grad      Rot      Max-DP    RMS-DP
  6   -292.11071957  -0.0000394814  0.000926  0.000926  0.002751  0.000075
               *** Restarting incremental Fock matrix formation ***
  7   -292.11076495  -0.0000453759  0.000130  0.000254  0.001359  0.000035
  8   -292.11076550  -0.0000005495  0.000319  0.000429  0.000460  0.000013
  9   -292.11076633  -0.0000008342  0.000050  0.000079  0.000256  0.000006
 10   -292.11076634  -0.0000000061  0.000054  0.000046  0.000090  0.000002
 11   -292.11076637  -0.0000000329  0.000004  0.000003  0.000018  0.000001
                  ***Gradient check signals convergence***
              ***Rediagonalizing the Fockian in SOSCF/NRSCF***

               *****************************************************
               *                     SUCCESS                       *
               *           SCF CONVERGED AFTER  12 CYCLES          *
               *****************************************************

Old exchange energy                            =    -11.266962176 Eh
New exchange energy                            =    -11.266942312 Eh
Exchange energy change after final integration =      0.000019864 Eh
Total energy after final integration           =   -292.110746505 Eh
Final COS-X integration done in                =     0.650 sec

----------------
TOTAL SCF ENERGY
----------------

Total Energy       :         -292.11074650 Eh           -7948.73752 eV

Components:
Nuclear Repulsion  :          176.04901675 Eh            4790.53729 eV
Electronic Energy  :         -468.15976325 Eh          -12739.27481 eV
One Electron Energy:         -747.82916990 Eh          -20349.46626 eV
Two Electron Energy:          279.66940665 Eh            7610.19145 eV
Max COSX asymmetry :            0.00000262 Eh               0.00007 eV

Virial components:
Potential Energy   :         -581.52894132 Eh          -15824.20698 eV
Kinetic Energy     :          289.41819481 Eh            7875.46946 eV
Virial Ratio       :            2.00930333


DFT components:
N(Alpha)           :       20.000039690008 electrons
N(Beta)            :       20.000039690008 electrons
N(Total)           :       40.000079380016 electrons
E(XC)              :      -25.775206177955 Eh       
DFET-embed. en.    :        0.000000000000 Eh       

---------------
SCF CONVERGENCE
---------------

  Last Energy change         ...   -7.1054e-10  Tolerance :   1.0000e-08
  Last MAX-Density change    ...    1.3323e-15  Tolerance :   1.0000e-07
  Last RMS-Density change    ...    3.4141e-17  Tolerance :   5.0000e-09
  Last Orbital Gradient      ...    1.8827e-06  Tolerance :   1.0000e-05
  Last Orbital Rotation      ...    1.5403e-06  Tolerance :   1.0000e-05

             **** THE GBW FILE WAS UPDATED (C2_wt_dlpno_neg.gbw) ****
             **** DENSITY C2_wt_dlpno_neg.scfp WAS UPDATED ****
             **** ENERGY FILE WAS UPDATED (C2_wt_dlpno_neg.en.tmp) ****
             **** THE GBW FILE WAS UPDATED (C2_wt_dlpno_neg.gbw) ****
             **** DENSITY C2_wt_dlpno_neg.scfp WAS UPDATED ****
----------------
ORBITAL ENERGIES
----------------

  NO   OCC          E(Eh)            E(eV) 
   0   2.0000     -24.880717      -677.0387 
   1   2.0000     -19.253969      -523.9271 
   2   2.0000     -10.477861      -285.1171 
   3   2.0000     -10.326351      -280.9943 
   4   2.0000     -10.293614      -280.1035 
   5   2.0000      -1.434979       -39.0478 
   6   2.0000      -1.134332       -30.8667 
   7   2.0000      -0.911455       -24.8019 
   8   2.0000      -0.804330       -21.8869 
   9   2.0000      -0.750147       -20.4125 
  10   2.0000      -0.664916       -18.0933 
  11   2.0000      -0.648487       -17.6462 
  12   2.0000      -0.613116       -16.6837 
  13   2.0000      -0.569666       -15.5014 
  14   2.0000      -0.534641       -14.5483 
  15   2.0000      -0.495016       -13.4701 
  16   2.0000      -0.474754       -12.9187 
  17   2.0000      -0.472594       -12.8599 
  18   2.0000      -0.444738       -12.1019 
  19   2.0000      -0.391561       -10.6549 
  20   0.0000       0.050539         1.3752 
  21   0.0000       0.084002         2.2858 
  22   0.0000       0.112820         3.0700 
  23   0.0000       0.126641         3.4461 
  24   0.0000       0.147236         4.0065 
  25   0.0000       0.171273         4.6606 
  26   0.0000       0.179420         4.8823 
  27   0.0000       0.183290         4.9876 
  28   0.0000       0.197683         5.3792 
  29   0.0000       0.202587         5.5127 
  30   0.0000       0.219827         5.9818 
  31   0.0000       0.229206         6.2370 
  32   0.0000       0.239529         6.5179 
  33   0.0000       0.254522         6.9259 
  34   0.0000       0.255503         6.9526 
  35   0.0000       0.267440         7.2774 
  36   0.0000       0.280364         7.6291 
  37   0.0000       0.304050         8.2736 
  38   0.0000       0.316755         8.6193 
  39   0.0000       0.321435         8.7467 
  40   0.0000       0.339753         9.2452 
  41   0.0000       0.356501         9.7009 
  42   0.0000       0.380237        10.3468 
  43   0.0000       0.387472        10.5436 
  44   0.0000       0.405038        11.0216 
  45   0.0000       0.413855        11.2616 
  46   0.0000       0.426832        11.6147 
  47   0.0000       0.432853        11.7785 
  48   0.0000       0.441922        12.0253 
  49   0.0000       0.451106        12.2752 
  50   0.0000       0.458786        12.4842 
  51   0.0000       0.468586        12.7509 
  52   0.0000       0.470547        12.8042 
  53   0.0000       0.477310        12.9883 
  54   0.0000       0.487968        13.2783 
  55   0.0000       0.504324        13.7234 
  56   0.0000       0.515168        14.0184 
  57   0.0000       0.532540        14.4912 
  58   0.0000       0.538874        14.6635 
  59   0.0000       0.549809        14.9611 
  60   0.0000       0.555281        15.1100 
  61   0.0000       0.566742        15.4218 
  62   0.0000       0.575979        15.6732 
  63   0.0000       0.596761        16.2387 
  64   0.0000       0.608624        16.5615 
  65   0.0000       0.622673        16.9438 
  66   0.0000       0.624333        16.9890 
  67   0.0000       0.631617        17.1872 
  68   0.0000       0.659429        17.9440 
  69   0.0000       0.669477        18.2174 
  70   0.0000       0.726079        19.7576 
  71   0.0000       0.735922        20.0254 
  72   0.0000       0.741026        20.1643 
  73   0.0000       0.769562        20.9408 
  74   0.0000       0.799812        21.7640 
  75   0.0000       0.816299        22.2126 
  76   0.0000       0.837861        22.7993 
  77   0.0000       0.845016        22.9941 
  78   0.0000       0.861860        23.4524 
  79   0.0000       0.886123        24.1126 
  80   0.0000       0.930779        25.3278 
  81   0.0000       0.941755        25.6264 
  82   0.0000       0.987042        26.8588 
  83   0.0000       1.002822        27.2882 
  84   0.0000       1.017227        27.6802 
  85   0.0000       1.063746        28.9460 
  86   0.0000       1.076462        29.2920 
  87   0.0000       1.099957        29.9313 
  88   0.0000       1.108331        30.1592 
  89   0.0000       1.117218        30.4010 
  90   0.0000       1.166264        31.7357 
  91   0.0000       1.184510        32.2322 
  92   0.0000       1.212980        33.0069 
  93   0.0000       1.228568        33.4310 
  94   0.0000       1.286522        35.0080 
  95   0.0000       1.339398        36.4469 
  96   0.0000       1.358221        36.9591 
  97   0.0000       1.442231        39.2451 
  98   0.0000       1.584011        43.1031 
  99   0.0000       1.631156        44.3860 
 100   0.0000       1.647828        44.8397 
 101   0.0000       1.668287        45.3964 
 102   0.0000       1.695188        46.1284 
 103   0.0000       1.740005        47.3479 
 104   0.0000       1.765349        48.0376 
 105   0.0000       1.782257        48.4977 
 106   0.0000       1.805403        49.1275 
 107   0.0000       1.876316        51.0572 
 108   0.0000       1.898703        51.6663 
 109   0.0000       1.928267        52.4708 
 110   0.0000       1.939905        52.7875 
 111   0.0000       1.963238        53.4224 
 112   0.0000       2.001358        54.4597 
 113   0.0000       2.057410        55.9850 
 114   0.0000       2.079758        56.5931 
 115   0.0000       2.126481        57.8645 
 116   0.0000       2.142373        58.2969 
 117   0.0000       2.170026        59.0494 
 118   0.0000       2.207993        60.0825 
 119   0.0000       2.253569        61.3227 
 120   0.0000       2.283555        62.1387 
 121   0.0000       2.328148        63.3521 
 122   0.0000       2.375451        64.6393 
 123   0.0000       2.389962        65.0342 
 124   0.0000       2.458257        66.8926 
 125   0.0000       2.545202        69.2585 
 126   0.0000       2.594179        70.5912 
 127   0.0000       2.632064        71.6221 
 128   0.0000       2.683567        73.0236 
 129   0.0000       2.753123        74.9163 
 130   0.0000       2.785205        75.7893 
 131   0.0000       2.975115        80.9570 
 132   0.0000       2.995659        81.5160 
 133   0.0000       3.031872        82.5014 
 134   0.0000       3.111222        84.6606 
 135   0.0000       3.136089        85.3373 
 136   0.0000       3.183250        86.6206 
 137   0.0000       3.229706        87.8848 
 138   0.0000       3.261292        88.7443 
 139   0.0000       3.315523        90.2200 
 140   0.0000       3.415540        92.9416 
 141   0.0000       3.438955        93.5787 
 142   0.0000       3.578042        97.3635 
 143   0.0000       3.631387        98.8151 
 144   0.0000       3.852896       104.8426 
 145   0.0000       4.193703       114.1164 

                    ********************************
                    * MULLIKEN POPULATION ANALYSIS *
                    ********************************

-----------------------
MULLIKEN ATOMIC CHARGES
-----------------------
   0 C :    0.553589
   1 C :   -0.478973
   2 H :    0.026850
   3 H :    0.078892
   4 C :    0.766439
   5 O :   -0.523136
   6 F :   -0.363026
   7 H :   -0.009334
   8 H :   -0.029410
   9 H :   -0.021891
Sum of atomic charges:    0.0000000

--------------------------------
MULLIKEN REDUCED ORBITAL CHARGES
--------------------------------
  0 C s       :     2.513631  s :     2.513631
      pz      :     0.930524  p :     2.803848
      px      :     0.932370
      py      :     0.940954
      dz2     :     0.041955  d :     0.128932
      dxz     :     0.042490
      dyz     :     0.058168
      dx2y2   :    -0.015323
      dxy     :     0.001642
  1 C s       :     2.906089  s :     2.906089
      pz      :     1.079486  p :     3.170192
      px      :     1.080791
      py      :     1.009915
      dz2     :     0.084860  d :     0.402692
      dxz     :     0.152553
      dyz     :     0.102981
      dx2y2   :     0.022474
      dxy     :     0.039823
  2 H s       :     0.917745  s :     0.917745
      pz      :    -0.005823  p :     0.055405
      px      :     0.022649
      py      :     0.038578
  3 H s       :     0.886006  s :     0.886006
      pz      :     0.005583  p :     0.035102
      px      :     0.027820
      py      :     0.001700
  4 C s       :     2.864188  s :     2.864188
      pz      :     0.640076  p :     2.192015
      px      :     0.682779
      py      :     0.869160
      dz2     :     0.022544  d :     0.177358
      dxz     :     0.009781
      dyz     :     0.030776
      dx2y2   :     0.048881
      dxy     :     0.065375
  5 O s       :     3.896380  s :     3.896380
      pz      :     1.638951  p :     4.588646
      px      :     1.613163
      py      :     1.336532
      dz2     :     0.002858  d :     0.038110
      dxz     :     0.003820
      dyz     :     0.014884
      dx2y2   :     0.004973
      dxy     :     0.011577
  6 F s       :     4.009033  s :     4.009033
      pz      :     1.708746  p :     5.326764
      px      :     1.682570
      py      :     1.935448
      dz2     :     0.008251  d :     0.027228
      dxz     :     0.006936
      dyz     :     0.004504
      dx2y2   :     0.005289
      dxy     :     0.002249
  7 H s       :     0.957344  s :     0.957344
      pz      :     0.007881  p :     0.051989
      px      :     0.018127
      py      :     0.025981
  8 H s       :     1.003792  s :     1.003792
      pz      :    -0.008613  p :     0.025618
      px      :    -0.009992
      py      :     0.044223
  9 H s       :     0.979897  s :     0.979897
      pz      :     0.014519  p :     0.041994
      px      :     0.054396
      py      :    -0.026921


                     *******************************
                     * LOEWDIN POPULATION ANALYSIS *
                     *******************************

----------------------
LOEWDIN ATOMIC CHARGES
----------------------
   0 C :    0.137742
   1 C :   -0.000723
   2 H :    0.024828
   3 H :    0.041038
   4 C :    0.003944
   5 O :   -0.147617
   6 F :   -0.030914
   7 H :   -0.009563
   8 H :   -0.012232
   9 H :   -0.006503

-------------------------------
LOEWDIN REDUCED ORBITAL CHARGES
-------------------------------
  0 C s       :     2.699086  s :     2.699086
      pz      :     0.882736  p :     2.768944
      px      :     0.943751
      py      :     0.942457
      dz2     :     0.092924  d :     0.394228
      dxz     :     0.108365
      dyz     :     0.096648
      dx2y2   :     0.025353
      dxy     :     0.070937
  1 C s       :     2.688587  s :     2.688587
      pz      :     0.902859  p :     2.717169
      px      :     0.921817
      py      :     0.892493
      dz2     :     0.142081  d :     0.594967
      dxz     :     0.148978
      dyz     :     0.138397
      dx2y2   :     0.061390
      dxy     :     0.104121
  2 H s       :     0.724573  s :     0.724573
      pz      :     0.061571  p :     0.250599
      px      :     0.091210
      py      :     0.097818
  3 H s       :     0.714346  s :     0.714346
      pz      :     0.072983  p :     0.244616
      px      :     0.103719
      py      :     0.067915
  4 C s       :     2.654457  s :     2.654457
      pz      :     0.688854  p :     2.297075
      px      :     0.692408
      py      :     0.915813
      dz2     :     0.173235  d :     1.044524
      dxz     :     0.149898
      dyz     :     0.234824
      dx2y2   :     0.238336
      dxy     :     0.248231
  5 O s       :     3.482612  s :     3.482612
      pz      :     1.509970  p :     4.467386
      px      :     1.491767
      py      :     1.465649
      dz2     :     0.026390  d :     0.197618
      dxz     :     0.011856
      dyz     :     0.047454
      dx2y2   :     0.065686
      dxy     :     0.046233
  6 F s       :     3.611254  s :     3.611254
      pz      :     1.692743  p :     5.203354
      px      :     1.672165
      py      :     1.838445
      dz2     :     0.039665  d :     0.216307
      dxz     :     0.063442
      dyz     :     0.038479
      dx2y2   :     0.034356
      dxy     :     0.040366
  7 H s       :     0.730949  s :     0.730949
      pz      :     0.069317  p :     0.278614
      px      :     0.096004
      py      :     0.113292
  8 H s       :     0.742923  s :     0.742923
      pz      :     0.073567  p :     0.269309
      px      :     0.085283
      py      :     0.110459
  9 H s       :     0.740516  s :     0.740516
      pz      :     0.076778  p :     0.265987
      px      :     0.113930
      py      :     0.075280


                      *****************************
                      * MAYER POPULATION ANALYSIS *
                      *****************************

  NA   - Mulliken gross atomic population
  ZA   - Total nuclear charge
  QA   - Mulliken gross atomic charge
  VA   - Mayer's total valence
  BVA  - Mayer's bonded valence
  FA   - Mayer's free valence

  ATOM       NA         ZA         QA         VA         BVA        FA
  0 C      5.4464     6.0000     0.5536     3.9790     3.9790     0.0000
  1 C      6.4790     6.0000    -0.4790     4.8306     4.8306     0.0000
  2 H      0.9732     1.0000     0.0268     1.2009     1.2009     0.0000
  3 H      0.9211     1.0000     0.0789     1.0886     1.0886     0.0000
  4 C      5.2336     6.0000     0.7664     3.8240     3.8240     0.0000
  5 O      8.5231     8.0000    -0.5231     1.9484     1.9484    -0.0000
  6 F      9.3630     9.0000    -0.3630     0.9181     0.9181    -0.0000
  7 H      1.0093     1.0000    -0.0093     1.1252     1.1252     0.0000
  8 H      1.0294     1.0000    -0.0294     1.0477     1.0477     0.0000
  9 H      1.0219     1.0000    -0.0219     1.0874     1.0874    -0.0000

  Mayer bond orders larger than 0.100000
B(  0-C ,  1-C ) :   1.3086 B(  0-C ,  7-H ) :   0.8377 B(  0-C ,  8-H ) :   0.8260 
B(  0-C ,  9-H ) :   0.8574 B(  1-C ,  2-H ) :   0.9410 B(  1-C ,  3-H ) :   0.8884 
B(  1-C ,  4-C ) :   1.0905 B(  1-C ,  7-H ) :   0.1834 B(  1-C ,  8-H ) :   0.1815 
B(  1-C ,  9-H ) :   0.1589 B(  2-H ,  4-C ) :   0.1068 B(  4-C ,  5-O ) :   1.8358 
B(  4-C ,  6-F ) :   0.7665 

-------
TIMINGS
-------

Total SCF time: 0 days 0 hours 0 min 6 sec 

Total time                  ....       6.101 sec
Sum of individual times     ....       5.599 sec  ( 91.8%)

Fock matrix formation       ....       4.939 sec  ( 80.9%)
  Split-RI-J                ....       0.434 sec  (  8.8% of F)
  Chain of spheres X        ....       3.557 sec  ( 72.0% of F)
  XC integration            ....       0.759 sec  ( 15.4% of F)
    Basis function eval.    ....       0.163 sec  ( 21.4% of XC)
    Density eval.           ....       0.109 sec  ( 14.4% of XC)
    XC-Functional eval.     ....       0.057 sec  (  7.5% of XC)
    XC-Potential eval.      ....       0.147 sec  ( 19.3% of XC)
Diagonalization             ....       0.046 sec  (  0.7%)
Density matrix formation    ....       0.006 sec  (  0.1%)
Population analysis         ....       0.007 sec  (  0.1%)
Initial guess               ....       0.033 sec  (  0.5%)
Orbital Transformation      ....       0.000 sec  (  0.0%)
Orbital Orthonormalization  ....       0.000 sec  (  0.0%)
DIIS solution               ....       0.035 sec  (  0.6%)
SOSCF solution              ....       0.030 sec  (  0.5%)
Grid generation             ....       0.504 sec  (  8.3%)

Maximum memory used throughout the entire SCF-calculation: 49.0 MB


-------------------------------------------------------------------------------
                          DFT DISPERSION CORRECTION                            
                                                                               
                              DFTD3 V3.1  Rev 1                                
                              USING zero damping                               
-------------------------------------------------------------------------------
The omegaB97X-D3 functional is recognized. Fit by Chai et al.
Active option DFTDOPT                   ...         3   

molecular C6(AA) [au] = 808.530570 


            DFT-D V3
 parameters
 s6 scaling factor         :     1.0000 
 rs6 scaling factor        :     1.2810 
 s8 scaling factor         :     1.0000 
 rs8 scaling factor        :     1.0940 
 Damping factor alpha6     :    14.0000 
 Damping factor alpha8     :    16.0000 
 ad hoc parameters k1-k3   :    16.0000     1.3333    -4.0000 

 Edisp/kcal,au: -1.195845857889  -0.001905701475 
 E6   /kcal   :  -0.414521361 
 E8   /kcal   :  -0.781324497 
 % E8         :  65.336555877 

-------------------------   ----------------
Dispersion correction           -0.001905701
-------------------------   ----------------


-------------------------   --------------------
FINAL SINGLE POINT ENERGY      -292.112652206429
-------------------------   --------------------


                            ***************************************
                            *     ORCA property calculations      *
                            ***************************************

                                    ---------------------
                                    Active property flags
                                    ---------------------
   (+) Dipole Moment


------------------------------------------------------------------------------
                       ORCA ELECTRIC PROPERTIES CALCULATION
------------------------------------------------------------------------------

Dipole Moment Calculation                       ... on
Quadrupole Moment Calculation                   ... off
Polarizability Calculation                      ... off
GBWName                                         ... C2_wt_dlpno_neg.gbw
Electron density file                           ... C2_wt_dlpno_neg.scfp
The origin for moment calculation is the CENTER OF MASS  = (-0.013358, -0.581961 -8.440102)

-------------
DIPOLE MOMENT
-------------
                                X             Y             Z
Electronic contribution:      4.64243      -2.80106      -7.11275
Nuclear contribution   :     -4.75269       4.00281       7.35060
                        -----------------------------------------
Total Dipole Moment    :     -0.11026       1.20175       0.23785
                        -----------------------------------------
Magnitude (a.u.)       :      1.23002
Magnitude (Debye)      :      3.12645



--------------------
Rotational spectrum 
--------------------
 
Rotational constants in cm-1:     0.323805     0.124913     0.096140 
Rotational constants in MHz :  9707.430323  3744.789513  2882.191141 

 Dipole components along the rotational axes: 
x,y,z [a.u.] :     0.593709    -1.072536    -0.100580 
x,y,z [Debye]:     1.509089    -2.726170    -0.255654 

 

Timings for individual modules:

Sum of individual times         ...        7.183 sec (=   0.120 min)
GTO integral calculation        ...        0.619 sec (=   0.010 min)   8.6 %
SCF iterations                  ...        6.564 sec (=   0.109 min)  91.4 %
                             ****ORCA TERMINATED NORMALLY****
TOTAL RUN TIME: 0 days 0 hours 0 minutes 7 seconds 757 msec
