
                                        *****************
                                        * O   R   C   A *
                                        *****************

                                            #,                                       
                                            ###                                      
                                            ####                                     
                                            #####                                    
                                            ######                                   
                                           ########,                                 
                                     ,,################,,,,,                         
                               ,,#################################,,                 
                          ,,##########################################,,             
                       ,#########################################, ''#####,          
                    ,#############################################,,   '####,        
                  ,##################################################,,,,####,       
                ,###########''''           ''''###############################       
              ,#####''   ,,,,##########,,,,          '''####'''          '####       
            ,##' ,,,,###########################,,,                        '##       
           ' ,,###''''                  '''############,,,                           
         ,,##''                                '''############,,,,        ,,,,,,###''
      ,#''                                            '''#######################'''  
     '                                                          ''''####''''         
             ,#######,   #######,   ,#######,      ##                                
            ,#'     '#,  ##    ##  ,#'     '#,    #''#        ######   ,####,        
            ##       ##  ##   ,#'  ##            #'  '#       #        #'  '#        
            ##       ##  #######   ##           ,######,      #####,   #    #        
            '#,     ,#'  ##    ##  '#,     ,#' ,#      #,         ##   #,  ,#        
             '#######'   ##     ##  '#######'  #'      '#     #####' # '####'        



                  #######################################################
                  #                        -***-                        #
                  #          Department of theory and spectroscopy      #
                  #    Directorship and core code : Frank Neese         #
                  #        Max Planck Institute fuer Kohlenforschung    #
                  #                Kaiser Wilhelm Platz 1               #
                  #                 D-45470 Muelheim/Ruhr               #
                  #                      Germany                        #
                  #                                                     #
                  #                  All rights reserved                #
                  #                        -***-                        #
                  #######################################################


                         Program Version 5.0.0 -  RELEASE  -
                                (SVN: $Rev: 19529$)
                ($Date: 2021-06-28 11:36:33 +0200 (Mo, 28 Jun 2021) $)


 With contributions from (in alphabetic order):
   Daniel Aravena         : Magnetic Suceptibility
   Michael Atanasov       : Ab Initio Ligand Field Theory (pilot matlab implementation)
   Alexander A. Auer      : GIAO ZORA, VPT2 properties, NMR spectrum
   Ute Becker             : Parallelization
   Giovanni Bistoni       : ED, misc. LED, open-shell LED, HFLD
   Martin Brehm           : Molecular dynamics
   Dmytro Bykov           : SCF Hessian
   Vijay G. Chilkuri      : MRCI spin determinant printing, contributions to CSF-ICE
   Dipayan Datta          : RHF DLPNO-CCSD density
   Achintya Kumar Dutta   : EOM-CC, STEOM-CC
   Dmitry Ganyushin       : Spin-Orbit,Spin-Spin,Magnetic field MRCI
   Miquel Garcia          : C-PCM Hessian, Gaussian charge scheme
   Yang Guo               : DLPNO-NEVPT2, F12-NEVPT2, CIM, IAO-localization
   Andreas Hansen         : Spin unrestricted coupled pair/coupled cluster methods
   Benjamin Helmich-Paris : MC-RPA, TRAH-SCF, COSX integrals
   Lee Huntington         : MR-EOM, pCC
   Robert Izsak           : Overlap fitted RIJCOSX, COSX-SCS-MP3, EOM
   Marcus Kettner         : VPT2
   Christian Kollmar      : KDIIS, OOCD, Brueckner-CCSD(T), CCSD density, CASPT2, CASPT2-K
   Simone Kossmann        : Meta GGA functionals, TD-DFT gradient, OOMP2, MP2 Hessian
   Martin Krupicka        : Initial AUTO-CI
   Lucas Lang             : DCDCAS
   Marvin Lechner         : AUTO-CI (C++ implementation), FIC-MRCC
   Dagmar Lenk            : GEPOL surface, SMD
   Dimitrios Liakos       : Extrapolation schemes; Compound Job, initial MDCI parallelization
   Dimitrios Manganas     : Further ROCIS development; embedding schemes
   Dimitrios Pantazis     : SARC Basis sets
   Anastasios Papadopoulos: AUTO-CI, single reference methods and gradients
   Taras Petrenko         : DFT Hessian,TD-DFT gradient, ASA, ECA, R-Raman, ABS, FL, XAS/XES, NRVS
   Peter Pinski           : DLPNO-MP2, DLPNO-MP2 Gradient
   Christoph Reimann      : Effective Core Potentials
   Marius Retegan         : Local ZFS, SOC
   Christoph Riplinger    : Optimizer, TS searches, QM/MM, DLPNO-CCSD(T), (RO)-DLPNO pert. Triples
   Tobias Risthaus        : Range-separated hybrids, TD-DFT gradient, RPA, STAB
   Michael Roemelt        : Original ROCIS implementation
   Masaaki Saitow         : Open-shell DLPNO-CCSD energy and density
   Barbara Sandhoefer     : DKH picture change effects
   Avijit Sen             : IP-ROCIS
   Kantharuban Sivalingam : CASSCF convergence, NEVPT2, FIC-MRCI
   Bernardo de Souza      : ESD, SOC TD-DFT
   Georgi Stoychev        : AutoAux, RI-MP2 NMR
   Willem Van den Heuvel  : Paramagnetic NMR
   Boris Wezisla          : Elementary symmetry handling
   Frank Wennmohs         : Technical directorship


 We gratefully acknowledge several colleagues who have allowed us to
 interface, adapt or use parts of their codes:
   Stefan Grimme, W. Hujo, H. Kruse, P. Pracht,  : VdW corrections, initial TS optimization,
                  C. Bannwarth, S. Ehlert          DFT functionals, gCP, sTDA/sTD-DF
   Ed Valeev, F. Pavosevic, A. Kumar             : LibInt (2-el integral package), F12 methods
   Garnet Chan, S. Sharma, J. Yang, R. Olivares  : DMRG
   Ulf Ekstrom                                   : XCFun DFT Library
   Mihaly Kallay                                 : mrcc  (arbitrary order and MRCC methods)
   Jiri Pittner, Ondrej Demel                    : Mk-CCSD
   Frank Weinhold                                : gennbo (NPA and NBO analysis)
   Christopher J. Cramer and Donald G. Truhlar   : smd solvation model
   Lars Goerigk                                  : TD-DFT with DH, B97 family of functionals
   V. Asgeirsson, H. Jonsson                     : NEB implementation
   FAccTs GmbH                                   : IRC, NEB, NEB-TS, DLPNO-Multilevel, CI-OPT
                                                   MM, QMMM, 2- and 3-layer-ONIOM, Crystal-QMMM,
                                                   LR-CPCM, SF, NACMEs, symmetry and pop. for TD-DFT,
                                                   nearIR, NL-DFT gradient (VV10), updates on ESD,
                                                   ML-optimized integration grids
   S Lehtola, MJT Oliveira, MAL Marques          : LibXC Library
   Liviu Ungur et al                             : ANISO software


 Your calculation uses the libint2 library for the computation of 2-el integrals
 For citations please refer to: http://libint.valeyev.net

 Your ORCA version has been built with support for libXC version: 5.1.0
 For citations please refer to: https://tddft.org/programs/libxc/

 This ORCA versions uses:
   CBLAS   interface :  Fast vector & matrix operations
   LAPACKE interface :  Fast linear algebra routines
   SCALAPACK package :  Parallel linear algebra routines
   Shared memory     :  Shared parallel matrices
   BLAS/LAPACK       :  OpenBLAS 0.3.15  USE64BITINT DYNAMIC_ARCH NO_AFFINITY Haswell SINGLE_THREADED
        Core in use  :  Haswell
   Copyright (c) 2011-2014, The OpenBLAS Project


Your calculation utilizes the atom-pairwise dispersion correction
with the zero-damping scheme (D30)
Cite in your paper:
S.Grimme, J.Antony, S.Ehrlich and H.Krieg, J.Chem.Phys., 132, (2010), 154104 
   

XCFun DFT library Copyright 2009-2010 Ulf Ekstrom and contributors.
See http://admol.org/xcfun for more information.
This is free software; see the source code for copying conditions.
There is ABSOLUTELY NO WARRANTY; not even for MERCHANTABILITY or FITNESS FOR A PARTICULAR PURPOSE.
For details see the documentation.
Scientific users of this library should cite U. Ekstrom, L. Visscher, R. Bast, A. J. Thorvaldsen and K. Ruud;
J.Chem.Theor.Comp. 2010, DOI: 10.1021/ct100117s
XCFun Version 0.99 

================================================================================

----- Orbital basis set information -----
Your calculation utilizes the basis: def2-SVPD
   F. Weigend and R. Ahlrichs, Phys. Chem. Chem. Phys. 7, 3297 (2005).
   D. Rappoport and F. Furche, J. Chem. Phys. 133 134105 (2010).

----- AuxJ basis set information -----
Your calculation utilizes the auxiliary basis: def2/J
   F. Weigend, Phys. Chem. Chem. Phys. 8, 1057 (2006).

================================================================================
                                        WARNINGS
                       Please study these warnings very carefully!
================================================================================


INFO   : the flag for use of the SHARK integral package has been found!

================================================================================
                                       INPUT FILE
================================================================================
NAME = C1_wt_dlpno_pos.com
|  1> !wB97X-D3 RIJCOSX def2-SVPD def2/J TightSCF
|  2> *xyz 0 1 
|  3> C          4.49059        1.15590       -2.46929
|  4> C          4.30539        1.22276       -3.90832
|  5> C          4.63192        2.24637       -4.67096
|  6> N          4.54169        2.14399       -5.98714
|  7> N          5.08409        3.39358       -4.11855
|  8> H          4.92067        3.57050       -3.13587
|  9> H          5.25465        4.19739       -4.70696
| 10> H          3.82453        0.44911       -4.35093
| 11> H          4.34337        1.24932       -6.41665
| 12> H          4.67671        2.95662       -6.57411
| 13> C          5.94213        0.93950       -2.03689
| 14> H          3.86431        0.32853       -2.13661
| 15> H          4.07623        2.04999       -1.98901
| 16> H          6.32982        0.06401       -2.51451
| 17> H          5.98308        0.81426       -0.97504
| 18> H          6.52865        1.78889       -2.31873
| 19> *
| 20> 
| 21> %MaxCore 64000
| 22> 
| 23> %pal nprocs 18
| 24> end  
| 25> 
| 26> %scf
| 27>   MaxIter 150
| 28> end
| 29> 
| 30> 
| 31>                          ****END OF INPUT****
================================================================================

                       ****************************
                       * Single Point Calculation *
                       ****************************

---------------------------------
CARTESIAN COORDINATES (ANGSTROEM)
---------------------------------
  C      4.490590    1.155900   -2.469290
  C      4.305390    1.222760   -3.908320
  C      4.631920    2.246370   -4.670960
  N      4.541690    2.143990   -5.987140
  N      5.084090    3.393580   -4.118550
  H      4.920670    3.570500   -3.135870
  H      5.254650    4.197390   -4.706960
  H      3.824530    0.449110   -4.350930
  H      4.343370    1.249320   -6.416650
  H      4.676710    2.956620   -6.574110
  C      5.942130    0.939500   -2.036890
  H      3.864310    0.328530   -2.136610
  H      4.076230    2.049990   -1.989010
  H      6.329820    0.064010   -2.514510
  H      5.983080    0.814260   -0.975040
  H      6.528650    1.788890   -2.318730

----------------------------
CARTESIAN COORDINATES (A.U.)
----------------------------
  NO LB      ZA    FRAG     MASS         X           Y           Z
   0 C     6.0000    0    12.011    8.485985    2.184334   -4.666282
   1 C     6.0000    0    12.011    8.136008    2.310682   -7.385654
   2 C     6.0000    0    12.011    8.753060    4.245024   -8.826835
   3 N     7.0000    0    14.007    8.582550    4.051554  -11.314055
   4 N     7.0000    0    14.007    9.607538    6.412937   -7.782932
   5 H     1.0000    0     1.008    9.298719    6.747267   -5.925935
   6 H     1.0000    0     1.008    9.929849    7.931918   -8.894865
   7 H     1.0000    0     1.008    7.227314    0.848695   -8.222066
   8 H     1.0000    0     1.008    8.207780    2.360873  -12.125711
   9 H     1.0000    0     1.008    8.837701    5.587202  -12.423267
  10 C     6.0000    0    12.011   11.228998    1.775398   -3.849164
  11 H     1.0000    0     1.008    7.302488    0.620832   -4.037608
  12 H     1.0000    0     1.008    7.702958    3.873920   -3.758684
  13 H     1.0000    0     1.008   11.961626    0.120961   -4.751735
  14 H     1.0000    0     1.008   11.306383    1.538728   -1.842559
  15 H     1.0000    0     1.008   12.337361    3.380512   -4.381765

--------------------------------
INTERNAL COORDINATES (ANGSTROEM)
--------------------------------
 C      0   0   0     0.000000000000     0.00000000     0.00000000
 C      1   0   0     1.452438170973     0.00000000     0.00000000
 C      2   1   0     1.317580753730   125.28453029     0.00000000
 N      3   2   1     1.323235772529   119.91566171   173.18826598
 N      3   2   1     1.351186627043   120.39112332   354.48821383
 H      5   3   2     1.011764184581   119.43884036   342.13850582
 H      5   3   2     1.010656993149   119.58539031   185.29632085
 H      2   1   3     1.012750845075   117.28263783   184.79039578
 H      4   3   2     1.012049441184   120.25788289   351.78722447
 H      4   3   2     1.011499727237   120.39384801   172.23558929
 C      1   2   3     1.529956565266   114.04780337   285.32676705
 H      1   2   3     1.089698920666   105.31614526   163.90058499
 H      1   2   3     1.096248154434   110.38507371    50.41661390
 H     11   1   2     1.070003336724   109.47101574   305.03093902
 H     11   1   2     1.069994104002   109.47140393   185.03055546
 H     11   1   2     1.070001340233   109.47108837    65.03054338

---------------------------
INTERNAL COORDINATES (A.U.)
---------------------------
 C      0   0   0     0.000000000000     0.00000000     0.00000000
 C      1   0   0     2.744710369593     0.00000000     0.00000000
 C      2   1   0     2.489866783875   125.28453029     0.00000000
 N      3   2   1     2.500553220687   119.91566171   173.18826598
 N      3   2   1     2.553372680928   120.39112332   354.48821383
 H      5   3   2     1.911957220967   119.43884036   342.13850582
 H      5   3   2     1.909864932383   119.58539031   185.29632085
 H      2   1   3     1.913821739089   117.28263783   184.79039578
 H      4   3   2     1.912496277825   120.25788289   351.78722447
 H      4   3   2     1.911457469013   120.39384801   172.23558929
 C      1   2   3     2.891198905147   114.04780337   285.32676705
 H      1   2   3     2.059232528488   105.31614526   163.90058499
 H      1   2   3     2.071608786697   110.38507371    50.41661390
 H     11   1   2     2.022013268790   109.47101574   305.03093902
 H     11   1   2     2.021995821475   109.47140393   185.03055546
 H     11   1   2     2.022009495969   109.47108837    65.03054338

---------------------
BASIS SET INFORMATION
---------------------
There are 3 groups of distinct atoms

 Group   1 Type C   : 8s4p2d contracted to 4s2p2d pattern {5111/31/11}
 Group   2 Type N   : 8s4p2d contracted to 4s2p2d pattern {5111/31/11}
 Group   3 Type H   : 4s2p contracted to 2s2p pattern {31/11}

Atom   0C    basis set group =>   1
Atom   1C    basis set group =>   1
Atom   2C    basis set group =>   1
Atom   3N    basis set group =>   2
Atom   4N    basis set group =>   2
Atom   5H    basis set group =>   3
Atom   6H    basis set group =>   3
Atom   7H    basis set group =>   3
Atom   8H    basis set group =>   3
Atom   9H    basis set group =>   3
Atom  10C    basis set group =>   1
Atom  11H    basis set group =>   3
Atom  12H    basis set group =>   3
Atom  13H    basis set group =>   3
Atom  14H    basis set group =>   3
Atom  15H    basis set group =>   3
---------------------------------
AUXILIARY/J BASIS SET INFORMATION
---------------------------------
There are 3 groups of distinct atoms

 Group   1 Type C   : 12s5p4d2f1g contracted to 6s4p3d1f1g pattern {711111/2111/211/2/1}
 Group   2 Type N   : 12s5p4d2f1g contracted to 6s4p3d1f1g pattern {711111/2111/211/2/1}
 Group   3 Type H   : 5s2p1d contracted to 3s1p1d pattern {311/2/1}

Atom   0C    basis set group =>   1
Atom   1C    basis set group =>   1
Atom   2C    basis set group =>   1
Atom   3N    basis set group =>   2
Atom   4N    basis set group =>   2
Atom   5H    basis set group =>   3
Atom   6H    basis set group =>   3
Atom   7H    basis set group =>   3
Atom   8H    basis set group =>   3
Atom   9H    basis set group =>   3
Atom  10C    basis set group =>   1
Atom  11H    basis set group =>   3
Atom  12H    basis set group =>   3
Atom  13H    basis set group =>   3
Atom  14H    basis set group =>   3
Atom  15H    basis set group =>   3


           ************************************************************
           *        Program running with 18 parallel MPI-processes    *
           *              working on a common directory               *
           ************************************************************
------------------------------------------------------------------------------
                           ORCA GTO INTEGRAL CALCULATION
                           -- RI-GTO INTEGRALS CHOSEN --
------------------------------------------------------------------------------
------------------------------------------------------------------------------
                   ___                                                        
                  /   \      - P O W E R E D   B Y -                         
                 /     \                                                     
                 |  |  |   _    _      __       _____    __    __             
                 |  |  |  | |  | |    /  \     |  _  \  |  |  /  |          
                  \  \/   | |  | |   /    \    | | | |  |  | /  /          
                 / \  \   | |__| |  /  /\  \   | |_| |  |  |/  /          
                |  |  |   |  __  | /  /__\  \  |    /   |      \           
                |  |  |   | |  | | |   __   |  |    \   |  |\   \          
                \     /   | |  | | |  |  |  |  | |\  \  |  | \   \       
                 \___/    |_|  |_| |__|  |__|  |_| \__\ |__|  \__/        
                                                                              
                      - O R C A' S   B I G   F R I E N D -                    
                                      &                                       
                       - I N T E G R A L  F E E D E R -                       
                                                                              
 v1 FN, 2020, v2 2021                                                         
------------------------------------------------------------------------------


Reading SHARK input file C1_wt_dlpno_pos.SHARKINP.tmp ... ok
----------------------
SHARK INTEGRAL PACKAGE
----------------------

Number of atoms                             ...     16
Number of basis functions                   ...    200
Number of shells                            ...     88
Maximum angular momentum                    ...      2
Integral batch strategy                     ... SHARK/LIBINT Hybrid
RI-J (if used) integral strategy            ... SPLIT-RIJ (Revised 2003 algorithm where possible)
Printlevel                                  ...      1
Contraction scheme used                     ... SEGMENTED contraction
Coulomb Range Separation                    ... NOT USED
Exchange Range Separation                   ... Long Range
   Mu parameter                             ...  0.250000
   Scaling (regular/separated)              ...  0.195728  0.804272
Finite Nucleus Model                        ... NOT USED
Auxiliary Coulomb fitting basis             ... AVAILABLE
   # of basis functions in Aux-J            ...    404
   # of shells in Aux-J                     ...    140
   Maximum angular momentum in Aux-J        ...      4
Auxiliary J/K fitting basis                 ... NOT available
Auxiliary Correlation fitting basis         ... NOT available
Auxiliary 'external' fitting basis          ... NOT available
Integral threshold                          ...     2.500000e-11
Primitive cut-off                           ...     2.500000e-12
Primitive pair pre-selection threshold      ...     2.500000e-12

Calculating pre-screening integrals         ... done (  0.0 sec) Dimension = 88
Organizing shell pair data                  ... done (  0.0 sec)
Shell pair information
Total number of shell pairs                 ...      3916
Shell pairs after pre-screening             ...      3848
Total number of primitive shell pairs       ...     10548
Primitive shell pairs kept                  ...      8644
          la=0 lb=0:    969 shell pairs
          la=1 lb=0:   1381 shell pairs
          la=1 lb=1:    516 shell pairs
          la=2 lb=0:    522 shell pairs
          la=2 lb=1:    382 shell pairs
          la=2 lb=2:     78 shell pairs

Calculating one electron integrals          ... done (  0.0 sec)
Calculating RI/J V-Matrix + Cholesky decomp.... done (  0.0 sec)
Calculating Nuclear repulsion               ... done (  0.0 sec) ENN=    248.609024405615 Eh

SHARK setup successfully completed in   0.2 seconds

Maximum memory used throughout the entire GTOINT-calculation: 8.9 MB


           ************************************************************
           *        Program running with 18 parallel MPI-processes    *
           *              working on a common directory               *
           ************************************************************
-------------------------------------------------------------------------------
                                 ORCA SCF
-------------------------------------------------------------------------------

------------
SCF SETTINGS
------------
Hamiltonian:
 Density Functional     Method          .... DFT(GTOs)
 Exchange Functional    Exchange        .... WB97X-D3
 Correlation Functional Correlation     .... WB97X-D3
 Gradients option       PostSCFGGA      .... off
 Hybrid DFT is turned on
   Fraction HF Exchange ScalHFX         ....  0.195728
   Scaling of DF-GGA-X  ScalDFX         ....  0.000000
   Scaling of DF-GGA-C  ScalDFC         ....  1.000000
   Scaling of DF-LDA-C  ScalLDAC        ....  1.000000
   Perturbative correction              ....  0.000000
   Density functional embedding theory  .... OFF
 Long-range corrected/Screened/Range-Separated Hybrid DFT is turned on
   Amount of maximum screened exact exchange              ....  0.804272
   Range separation parameter mu (erf(mu*r12)/r12)        ....  0.250000
 RI-approximation to the Coulomb term is turned on
   Number of AuxJ basis functions       .... 404
   RIJ-COSX (HFX calculated with COS-X)).... on


General Settings:
 Integral files         IntName         .... C1_wt_dlpno_pos
 Hartree-Fock type      HFTyp           .... RHF
 Total Charge           Charge          ....    0
 Multiplicity           Mult            ....    1
 Number of Electrons    NEL             ....   48
 Basis Dimension        Dim             ....  200
 Nuclear Repulsion      ENuc            ....    248.6090244056 Eh

Convergence Acceleration:
 DIIS                   CNVDIIS         .... on
   Start iteration      DIISMaxIt       ....    12
   Startup error        DIISStart       ....  0.200000
   # of expansion vecs  DIISMaxEq       ....     5
   Bias factor          DIISBfac        ....   1.050
   Max. coefficient     DIISMaxC        ....  10.000
 Trust-Rad. Augm. Hess. CNVTRAH         .... auto
   Auto Start mean grad. ratio tolernc. ....  1.125000
   Auto Start start iteration           ....    20
   Auto Start num. interpolation iter.  ....    10
   Max. Number of Micro iterations      ....    16
   Max. Number of Macro iterations      .... Maxiter - #DIIS iter
   Number of Davidson start vectors     ....     2
   Converg. threshold I  (grad. norm)   ....   1.000e-05
   Converg. threshold II (energy diff.) ....   1.000e-08
   Grad. Scal. Fac. for Micro threshold ....   0.100
   Minimum threshold for Micro iter.    ....   0.010
   NR start threshold (gradient norm)   ....   0.001
   Initial trust radius                 ....   0.400
   Minimum AH scaling param. (alpha)    ....   1.000
   Maximum AH scaling param. (alpha)    .... 1000.000
   Orbital update algorithm             .... Taylor
   White noise on init. David. guess    .... on
   Maximum white noise                  ....   0.010
   Quad. conv. algorithm                .... NR
 SOSCF                  CNVSOSCF        .... on
   Start iteration      SOSCFMaxIt      ....   150
   Startup grad/error   SOSCFStart      ....  0.003300
 Level Shifting         CNVShift        .... on
   Level shift para.    LevelShift      ....    0.2500
   Turn off err/grad.   ShiftErr        ....    0.0010
 Zerner damping         CNVZerner       .... off
 Static damping         CNVDamp         .... on
   Fraction old density DampFac         ....    0.7000
   Max. Damping (<1)    DampMax         ....    0.9800
   Min. Damping (>=0)   DampMin         ....    0.0000
   Turn off err/grad.   DampErr         ....    0.1000
 Fernandez-Rico         CNVRico         .... off

SCF Procedure:
 Maximum # iterations   MaxIter         ....   150
 SCF integral mode      SCFMode         .... Direct
   Integral package                     .... SHARK and LIBINT hybrid scheme
 Reset frequency        DirectResetFreq ....    20
 Integral Threshold     Thresh          ....  2.500e-11 Eh
 Primitive CutOff       TCut            ....  2.500e-12 Eh

Convergence Tolerance:
 Convergence Check Mode ConvCheckMode   .... Total+1el-Energy
 Convergence forced     ConvForced      .... 0
 Energy Change          TolE            ....  1.000e-08 Eh
 1-El. energy change                    ....  1.000e-05 Eh
 Orbital Gradient       TolG            ....  1.000e-05
 Orbital Rotation angle TolX            ....  1.000e-05
 DIIS Error             TolErr          ....  5.000e-07


Diagonalization of the overlap matrix:
Smallest eigenvalue                        ... 3.950e-05
Time for diagonalization                   ...    0.012 sec
Threshold for overlap eigenvalues          ... 1.000e-08
Number of eigenvalues below threshold      ... 0
Time for construction of square roots      ...    0.022 sec
Total time needed                          ...    0.035 sec

Time for model grid setup =    0.058 sec

------------------------------
INITIAL GUESS: MODEL POTENTIAL
------------------------------
Loading Hartree-Fock densities                     ... done
Calculating cut-offs                               ... done
Initializing the effective Hamiltonian             ... done
Setting up the integral package (SHARK)            ... done
Starting the Coulomb interaction                   ... done (   0.0 sec)
Reading the grid                                   ... done
Mapping shells                                     ... done
Starting the XC term evaluation                    ... done (   0.0 sec)
  promolecular density results
     # of electrons  =     47.995815407
     EX              =    -36.588040820
     EC              =     -1.577759249
     EX+EC           =    -38.165800068
Transforming the Hamiltonian                       ... done (   0.0 sec)
Diagonalizing the Hamiltonian                      ... done (   0.0 sec)
Back transforming the eigenvectors                 ... done (   0.0 sec)
Now organizing SCF variables                       ... done
                      ------------------
                      INITIAL GUESS DONE (   0.1 sec)
                      ------------------
-------------------
DFT GRID GENERATION
-------------------

General Integration Accuracy     IntAcc      ... 4.388
Radial Grid Type                 RadialGrid  ... OptM3 with GC (2021)
Angular Grid (max. ang.)         AngularGrid ... 4 (Lebedev-302)
Angular grid pruning method      GridPruning ... 4 (adaptive)
Weight generation scheme         WeightScheme... Becke
Basis function cutoff            BFCut       ... 1.0000e-11
Integration weight cutoff        WCut        ... 1.0000e-14
Angular grids for H and He will be reduced by one unit
Partially contracted basis set               ... off
Rotationally invariant grid construction     ... off

Total number of grid points                  ...    70185
Total number of batches                      ...     1106
Average number of points per batch           ...       63
Average number of grid points per atom       ...     4387
Time for grid setup =    0.348 sec

--------------------
COSX GRID GENERATION
--------------------

GRIDX 1
-------
General Integration Accuracy     IntAcc      ... 3.816
Radial Grid Type                 RadialGrid  ... OptM3 with GC (2021)
Angular Grid (max. ang.)         AngularGrid ... 1 (Lebedev-50)
Angular grid pruning method      GridPruning ... 4 (adaptive)
Weight generation scheme         WeightScheme... Becke
Basis function cutoff            BFCut       ... 1.0000e-11
Integration weight cutoff        WCut        ... 1.0000e-14
Angular grids for H and He will be reduced by one unit
Partially contracted basis set               ... on
Rotationally invariant grid construction     ... off

Total number of grid points                  ...     8785
Total number of batches                      ...      147
Average number of points per batch           ...       59
Average number of grid points per atom       ...      549
UseSFitting                                  ... on

GRIDX 2
-------
General Integration Accuracy     IntAcc      ... 4.020
Radial Grid Type                 RadialGrid  ... OptM3 with GC (2021)
Angular Grid (max. ang.)         AngularGrid ... 2 (Lebedev-110)
Angular grid pruning method      GridPruning ... 4 (adaptive)
Weight generation scheme         WeightScheme... Becke
Basis function cutoff            BFCut       ... 1.0000e-11
Integration weight cutoff        WCut        ... 1.0000e-14
Angular grids for H and He will be reduced by one unit
Partially contracted basis set               ... on
Rotationally invariant grid construction     ... off

Total number of grid points                  ...    19237
Total number of batches                      ...      309
Average number of points per batch           ...       62
Average number of grid points per atom       ...     1202
UseSFitting                                  ... on

GRIDX 3
-------
General Integration Accuracy     IntAcc      ... 4.338
Radial Grid Type                 RadialGrid  ... OptM3 with GC (2021)
Angular Grid (max. ang.)         AngularGrid ... 3 (Lebedev-194)
Angular grid pruning method      GridPruning ... 4 (adaptive)
Weight generation scheme         WeightScheme... Becke
Basis function cutoff            BFCut       ... 1.0000e-11
Integration weight cutoff        WCut        ... 1.0000e-14
Angular grids for H and He will be reduced by one unit
Partially contracted basis set               ... on
Rotationally invariant grid construction     ... off

Total number of grid points                  ...    43990
Total number of batches                      ...      693
Average number of points per batch           ...       63
Average number of grid points per atom       ...     2749
UseSFitting                                  ... on

Time for X-Grid setup             =    0.237 sec

--------------
SCF ITERATIONS
--------------
ITER       Energy         Delta-E        Max-DP      RMS-DP      [F,P]     Damp
               ***  Starting incremental Fock matrix formation  ***
  0   -267.3801732054   0.000000000000 0.10220459  0.00308750  0.2137100 0.7000
  1   -267.4979021481  -0.117728942733 0.10319245  0.00220003  0.1225415 0.7000
                               ***Turning on DIIS***
  2   -267.5573111503  -0.059409002229 0.29532991  0.00467929  0.0601730 0.0000
  3   -267.6489977146  -0.091686564277 0.05321772  0.00150385  0.0486344 0.0000
  4   -267.6652637990  -0.016266084381 0.01187985  0.00033687  0.0074830 0.0000
                      *** Initiating the SOSCF procedure ***
                           *** Shutting down DIIS ***
                      *** Re-Reading the Fockian *** 
                      *** Removing any level shift *** 
ITER      Energy       Delta-E        Grad      Rot      Max-DP    RMS-DP
  5   -267.66566344  -0.0003996361  0.000798  0.000798  0.003973  0.000118
               *** Restarting incremental Fock matrix formation ***
  6   -267.66570300  -0.0000395671  0.000454  0.001201  0.004482  0.000111
  7   -267.66571288  -0.0000098794  0.000253  0.001064  0.002753  0.000066
  8   -267.66571557  -0.0000026871  0.000061  0.000113  0.000523  0.000020
  9   -267.66571576  -0.0000001932  0.000027  0.000036  0.000192  0.000007
 10   -267.66571580  -0.0000000343  0.000009  0.000031  0.000082  0.000003
 11   -267.66571580  -0.0000000049  0.000003  0.000011  0.000022  0.000001
                  ***Gradient check signals convergence***
              ***Rediagonalizing the Fockian in SOSCF/NRSCF***

               *****************************************************
               *                     SUCCESS                       *
               *           SCF CONVERGED AFTER  12 CYCLES          *
               *****************************************************

Old exchange energy                            =    -12.496257889 Eh
New exchange energy                            =    -12.496252965 Eh
Exchange energy change after final integration =      0.000004924 Eh
Total energy after final integration           =   -267.665710877 Eh
Final COS-X integration done in                =     1.425 sec

----------------
TOTAL SCF ENERGY
----------------

Total Energy       :         -267.66571088 Eh           -7283.55428 eV

Components:
Nuclear Repulsion  :          248.60902441 Eh            6764.99548 eV
Electronic Energy  :         -516.27473528 Eh          -14048.54976 eV
One Electron Energy:         -853.00679186 Eh          -23211.49486 eV
Two Electron Energy:          336.73205658 Eh            9162.94509 eV
Max COSX asymmetry :            0.00000751 Eh               0.00020 eV

Virial components:
Potential Energy   :         -532.76366186 Eh          -14497.23626 eV
Kinetic Energy     :          265.09795099 Eh            7213.68198 eV
Virial Ratio       :            2.00968608


DFT components:
N(Alpha)           :       23.999959145941 electrons
N(Beta)            :       23.999959145941 electrons
N(Total)           :       47.999918291881 electrons
E(XC)              :      -26.827845222169 Eh       
DFET-embed. en.    :        0.000000000000 Eh       

---------------
SCF CONVERGENCE
---------------

  Last Energy change         ...    4.2280e-10  Tolerance :   1.0000e-08
  Last MAX-Density change    ...    4.4409e-15  Tolerance :   1.0000e-07
  Last RMS-Density change    ...    4.7343e-17  Tolerance :   5.0000e-09
  Last Orbital Gradient      ...    1.1139e-06  Tolerance :   1.0000e-05
  Last Orbital Rotation      ...    2.1460e-06  Tolerance :   1.0000e-05

             **** THE GBW FILE WAS UPDATED (C1_wt_dlpno_pos.gbw) ****
             **** DENSITY C1_wt_dlpno_pos.scfp WAS UPDATED ****
             **** ENERGY FILE WAS UPDATED (C1_wt_dlpno_pos.en.tmp) ****
             **** THE GBW FILE WAS UPDATED (C1_wt_dlpno_pos.gbw) ****
             **** DENSITY C1_wt_dlpno_pos.scfp WAS UPDATED ****
----------------
ORBITAL ENERGIES
----------------

  NO   OCC          E(Eh)            E(eV) 
   0   2.0000     -14.438613      -392.8946 
   1   2.0000     -14.436294      -392.8315 
   2   2.0000     -10.333335      -281.1843 
   3   2.0000     -10.263274      -279.2779 
   4   2.0000     -10.252103      -278.9739 
   5   2.0000     -10.208097      -277.7764 
   6   2.0000      -1.069738       -29.1091 
   7   2.0000      -0.976763       -26.5791 
   8   2.0000      -0.882367       -24.0104 
   9   2.0000      -0.801904       -21.8209 
  10   2.0000      -0.723269       -19.6811 
  11   2.0000      -0.682186       -18.5632 
  12   2.0000      -0.645602       -17.5677 
  13   2.0000      -0.610361       -16.6088 
  14   2.0000      -0.574637       -15.6367 
  15   2.0000      -0.536987       -14.6122 
  16   2.0000      -0.522358       -14.2141 
  17   2.0000      -0.488744       -13.2994 
  18   2.0000      -0.484540       -13.1850 
  19   2.0000      -0.446353       -12.1459 
  20   2.0000      -0.422527       -11.4976 
  21   2.0000      -0.409867       -11.1530 
  22   2.0000      -0.360499        -9.8097 
  23   2.0000      -0.246631        -6.7112 
  24   0.0000       0.088684         2.4132 
  25   0.0000       0.112343         3.0570 
  26   0.0000       0.123745         3.3673 
  27   0.0000       0.131381         3.5751 
  28   0.0000       0.154477         4.2035 
  29   0.0000       0.155935         4.2432 
  30   0.0000       0.166756         4.5377 
  31   0.0000       0.171706         4.6723 
  32   0.0000       0.196303         5.3417 
  33   0.0000       0.215105         5.8533 
  34   0.0000       0.220488         5.9998 
  35   0.0000       0.227886         6.2011 
  36   0.0000       0.237530         6.4635 
  37   0.0000       0.243179         6.6172 
  38   0.0000       0.247924         6.7464 
  39   0.0000       0.261916         7.1271 
  40   0.0000       0.264581         7.1996 
  41   0.0000       0.274437         7.4678 
  42   0.0000       0.286529         7.7969 
  43   0.0000       0.295950         8.0532 
  44   0.0000       0.308442         8.3931 
  45   0.0000       0.317891         8.6503 
  46   0.0000       0.321980         8.7615 
  47   0.0000       0.347250         9.4491 
  48   0.0000       0.352121         9.5817 
  49   0.0000       0.357450         9.7267 
  50   0.0000       0.370632        10.0854 
  51   0.0000       0.390063        10.6142 
  52   0.0000       0.396899        10.8002 
  53   0.0000       0.398658        10.8480 
  54   0.0000       0.404495        11.0069 
  55   0.0000       0.407064        11.0768 
  56   0.0000       0.415893        11.3170 
  57   0.0000       0.424559        11.5528 
  58   0.0000       0.433362        11.7924 
  59   0.0000       0.440190        11.9782 
  60   0.0000       0.442128        12.0309 
  61   0.0000       0.457012        12.4359 
  62   0.0000       0.463820        12.6212 
  63   0.0000       0.465232        12.6596 
  64   0.0000       0.471329        12.8255 
  65   0.0000       0.476618        12.9694 
  66   0.0000       0.486963        13.2509 
  67   0.0000       0.500528        13.6201 
  68   0.0000       0.504212        13.7203 
  69   0.0000       0.507705        13.8154 
  70   0.0000       0.522396        14.2151 
  71   0.0000       0.533620        14.5205 
  72   0.0000       0.535769        14.5790 
  73   0.0000       0.540437        14.7060 
  74   0.0000       0.551505        15.0072 
  75   0.0000       0.571122        15.5410 
  76   0.0000       0.575078        15.6487 
  77   0.0000       0.579807        15.7774 
  78   0.0000       0.584395        15.9022 
  79   0.0000       0.593218        16.1423 
  80   0.0000       0.596736        16.2380 
  81   0.0000       0.618022        16.8172 
  82   0.0000       0.625908        17.0318 
  83   0.0000       0.629779        17.1372 
  84   0.0000       0.636238        17.3129 
  85   0.0000       0.637163        17.3381 
  86   0.0000       0.643559        17.5121 
  87   0.0000       0.659492        17.9457 
  88   0.0000       0.664731        18.0883 
  89   0.0000       0.690240        18.7824 
  90   0.0000       0.691865        18.8266 
  91   0.0000       0.703501        19.1432 
  92   0.0000       0.715874        19.4799 
  93   0.0000       0.742794        20.2124 
  94   0.0000       0.748651        20.3718 
  95   0.0000       0.757033        20.5999 
  96   0.0000       0.770161        20.9571 
  97   0.0000       0.780230        21.2312 
  98   0.0000       0.805925        21.9303 
  99   0.0000       0.809949        22.0398 
 100   0.0000       0.829123        22.5616 
 101   0.0000       0.841673        22.9031 
 102   0.0000       0.847957        23.0741 
 103   0.0000       0.861997        23.4561 
 104   0.0000       0.875673        23.8283 
 105   0.0000       0.892419        24.2840 
 106   0.0000       0.972890        26.4737 
 107   0.0000       1.031131        28.0585 
 108   0.0000       1.041924        28.3522 
 109   0.0000       1.067958        29.0606 
 110   0.0000       1.071940        29.1690 
 111   0.0000       1.107386        30.1335 
 112   0.0000       1.114531        30.3279 
 113   0.0000       1.133720        30.8501 
 114   0.0000       1.143705        31.1218 
 115   0.0000       1.147778        31.2326 
 116   0.0000       1.180503        32.1231 
 117   0.0000       1.191325        32.4176 
 118   0.0000       1.199218        32.6324 
 119   0.0000       1.204529        32.7769 
 120   0.0000       1.239058        33.7165 
 121   0.0000       1.258248        34.2387 
 122   0.0000       1.273029        34.6409 
 123   0.0000       1.303457        35.4689 
 124   0.0000       1.314737        35.7758 
 125   0.0000       1.322141        35.9773 
 126   0.0000       1.343377        36.5552 
 127   0.0000       1.378190        37.5024 
 128   0.0000       1.389743        37.8168 
 129   0.0000       1.404608        38.2213 
 130   0.0000       1.438852        39.1532 
 131   0.0000       1.464536        39.8521 
 132   0.0000       1.514598        41.2143 
 133   0.0000       1.586240        43.1638 
 134   0.0000       1.633613        44.4529 
 135   0.0000       1.655321        45.0436 
 136   0.0000       1.705102        46.3982 
 137   0.0000       1.711909        46.5834 
 138   0.0000       1.737737        47.2862 
 139   0.0000       1.750395        47.6307 
 140   0.0000       1.762980        47.9731 
 141   0.0000       1.810772        49.2736 
 142   0.0000       1.829737        49.7897 
 143   0.0000       1.845857        50.2283 
 144   0.0000       1.879882        51.1542 
 145   0.0000       1.904433        51.8222 
 146   0.0000       1.921291        52.2810 
 147   0.0000       1.960648        53.3520 
 148   0.0000       1.976753        53.7902 
 149   0.0000       1.998639        54.3857 
 150   0.0000       2.011412        54.7333 
 151   0.0000       2.025501        55.1167 
 152   0.0000       2.041461        55.5510 
 153   0.0000       2.076963        56.5170 
 154   0.0000       2.083158        56.6856 
 155   0.0000       2.108027        57.3623 
 156   0.0000       2.145391        58.3791 
 157   0.0000       2.156081        58.6699 
 158   0.0000       2.170986        59.0755 
 159   0.0000       2.188494        59.5520 
 160   0.0000       2.214942        60.2716 
 161   0.0000       2.231770        60.7296 
 162   0.0000       2.238053        60.9005 
 163   0.0000       2.257436        61.4280 
 164   0.0000       2.285841        62.2009 
 165   0.0000       2.316141        63.0254 
 166   0.0000       2.333667        63.5023 
 167   0.0000       2.348928        63.9176 
 168   0.0000       2.414422        65.6998 
 169   0.0000       2.453333        66.7586 
 170   0.0000       2.488177        67.7067 
 171   0.0000       2.498256        67.9810 
 172   0.0000       2.520901        68.5972 
 173   0.0000       2.560098        69.6638 
 174   0.0000       2.568654        69.8966 
 175   0.0000       2.608705        70.9865 
 176   0.0000       2.625245        71.4365 
 177   0.0000       2.697386        73.3996 
 178   0.0000       2.729441        74.2719 
 179   0.0000       2.737780        74.4988 
 180   0.0000       2.753048        74.9142 
 181   0.0000       2.775266        75.5188 
 182   0.0000       2.830311        77.0167 
 183   0.0000       2.864914        77.9583 
 184   0.0000       2.935409        79.8766 
 185   0.0000       2.967334        80.7453 
 186   0.0000       3.000002        81.6342 
 187   0.0000       3.137531        85.3766 
 188   0.0000       3.149454        85.7010 
 189   0.0000       3.178566        86.4932 
 190   0.0000       3.246440        88.3401 
 191   0.0000       3.311078        90.0990 
 192   0.0000       3.329489        90.6000 
 193   0.0000       3.352233        91.2189 
 194   0.0000       3.396100        92.4126 
 195   0.0000       3.443044        93.6900 
 196   0.0000       3.451903        93.9311 
 197   0.0000       3.513851        95.6167 
 198   0.0000       3.841419       104.5303 
 199   0.0000       3.851424       104.8026 

                    ********************************
                    * MULLIKEN POPULATION ANALYSIS *
                    ********************************

-----------------------
MULLIKEN ATOMIC CHARGES
-----------------------
   0 C :   -0.229490
   1 C :   -0.309431
   2 C :    1.079781
   3 N :   -0.057300
   4 N :   -0.056005
   5 H :   -0.034314
   6 H :   -0.239934
   7 H :   -0.425591
   8 H :   -0.027684
   9 H :   -0.144808
  10 C :    0.599990
  11 H :   -0.005785
  12 H :   -0.046794
  13 H :   -0.040702
  14 H :   -0.004470
  15 H :   -0.057462
Sum of atomic charges:   -0.0000000

--------------------------------
MULLIKEN REDUCED ORBITAL CHARGES
--------------------------------
  0 C s       :     2.802725  s :     2.802725
      pz      :     1.052508  p :     2.934820
      px      :     1.008224
      py      :     0.874088
      dz2     :     0.061437  d :     0.491945
      dxz     :     0.165320
      dyz     :     0.073497
      dx2y2   :     0.026758
      dxy     :     0.164934
  1 C s       :     3.129113  s :     3.129113
      pz      :     0.933708  p :     2.838089
      px      :     1.075116
      py      :     0.829265
      dz2     :     0.052227  d :     0.342229
      dxz     :     0.064008
      dyz     :     0.194822
      dx2y2   :     0.022492
      dxy     :     0.008679
  2 C s       :     2.661509  s :     2.661509
      pz      :     0.656820  p :     2.201884
      px      :     0.822765
      py      :     0.722298
      dz2     :     0.021601  d :     0.056827
      dxz     :     0.008379
      dyz     :    -0.099522
      dx2y2   :     0.043840
      dxy     :     0.082530
  3 N s       :     3.355253  s :     3.355253
      pz      :     0.987787  p :     3.693254
      px      :     1.674759
      py      :     1.030707
      dz2     :     0.005003  d :     0.008793
      dxz     :     0.018294
      dyz     :    -0.016259
      dx2y2   :     0.000017
      dxy     :     0.001738
  4 N s       :     3.351679  s :     3.351679
      pz      :     1.021430  p :     3.709917
      px      :     1.626691
      py      :     1.061796
      dz2     :    -0.012508  d :    -0.005590
      dxz     :     0.008410
      dyz     :    -0.029171
      dx2y2   :     0.007571
      dxy     :     0.020109
  5 H s       :     1.011528  s :     1.011528
      pz      :    -0.026741  p :     0.022786
      px      :     0.040471
      py      :     0.009056
  6 H s       :     1.177229  s :     1.177229
      pz      :    -0.030978  p :     0.062705
      px      :     0.070515
      py      :     0.023169
  7 H s       :     1.351247  s :     1.351247
      pz      :    -0.006978  p :     0.074344
      px      :     0.068747
      py      :     0.012574
  8 H s       :     0.992694  s :     0.992694
      pz      :    -0.007345  p :     0.034990
      px      :     0.067819
      py      :    -0.025484
  9 H s       :     1.085034  s :     1.085034
      pz      :     0.011593  p :     0.059774
      px      :     0.071899
      py      :    -0.023718
 10 C s       :     2.552349  s :     2.552349
      pz      :     0.881463  p :     2.801616
      px      :     0.995726
      py      :     0.924427
      dz2     :     0.006380  d :     0.046046
      dxz     :     0.025688
      dyz     :    -0.033404
      dx2y2   :     0.007334
      dxy     :     0.040048
 11 H s       :     0.973335  s :     0.973335
      pz      :    -0.019468  p :     0.032450
      px      :     0.015789
      py      :     0.036128
 12 H s       :     0.997921  s :     0.997921
      pz      :     0.024226  p :     0.048872
      px      :    -0.010810
      py      :     0.035456
 13 H s       :     0.983080  s :     0.983080
      pz      :     0.003485  p :     0.057622
      px      :     0.010543
      py      :     0.043594
 14 H s       :     0.982895  s :     0.982895
      pz      :     0.054723  p :     0.021575
      px      :     0.003486
      py      :    -0.036633
 15 H s       :     0.980709  s :     0.980709
      pz      :    -0.002202  p :     0.076753
      px      :     0.014580
      py      :     0.064375


                     *******************************
                     * LOEWDIN POPULATION ANALYSIS *
                     *******************************

----------------------
LOEWDIN ATOMIC CHARGES
----------------------
   0 C :   -0.106625
   1 C :   -0.045186
   2 C :   -0.214569
   3 N :    0.168370
   4 N :    0.197943
   5 H :   -0.010853
   6 H :   -0.009481
   7 H :   -0.049666
   8 H :    0.011539
   9 H :   -0.005399
  10 C :    0.116011
  11 H :    0.015572
  12 H :    0.006056
  13 H :   -0.017213
  14 H :   -0.025508
  15 H :   -0.030991

-------------------------------
LOEWDIN REDUCED ORBITAL CHARGES
-------------------------------
  0 C s       :     2.680083  s :     2.680083
      pz      :     0.923192  p :     2.715379
      px      :     0.894940
      py      :     0.897247
      dz2     :     0.150707  d :     0.711163
      dxz     :     0.196850
      dyz     :     0.127357
      dx2y2   :     0.092186
      dxy     :     0.144062
  1 C s       :     2.687475  s :     2.687475
      pz      :     0.897820  p :     2.752769
      px      :     0.934851
      py      :     0.920098
      dz2     :     0.163893  d :     0.604942
      dxz     :     0.128456
      dyz     :     0.193973
      dx2y2   :     0.053946
      dxy     :     0.064673
  2 C s       :     2.629206  s :     2.629206
      pz      :     0.875590  p :     2.512608
      px      :     0.746135
      py      :     0.890882
      dz2     :     0.245072  d :     1.072756
      dxz     :     0.222002
      dyz     :     0.247215
      dx2y2   :     0.171535
      dxy     :     0.186933
  3 N s       :     2.922000  s :     2.922000
      pz      :     1.069908  p :     3.558109
      px      :     1.421333
      py      :     1.066868
      dz2     :     0.089047  d :     0.351521
      dxz     :     0.085049
      dyz     :     0.145544
      dx2y2   :     0.021700
      dxy     :     0.010182
  4 N s       :     2.925885  s :     2.925885
      pz      :     1.055083  p :     3.539541
      px      :     1.397956
      py      :     1.086502
      dz2     :     0.074517  d :     0.336632
      dxz     :     0.025577
      dyz     :     0.096352
      dx2y2   :     0.069739
      dxy     :     0.070446
  5 H s       :     0.642082  s :     0.642082
      pz      :     0.156071  p :     0.368770
      px      :     0.123985
      py      :     0.088715
  6 H s       :     0.666454  s :     0.666454
      pz      :     0.100814  p :     0.343026
      px      :     0.123586
      py      :     0.118626
  7 H s       :     0.754591  s :     0.754591
      pz      :     0.084087  p :     0.295076
      px      :     0.105535
      py      :     0.105454
  8 H s       :     0.650627  s :     0.650627
      pz      :     0.083496  p :     0.337834
      px      :     0.119485
      py      :     0.134854
  9 H s       :     0.663852  s :     0.663852
      pz      :     0.090881  p :     0.341548
      px      :     0.125871
      py      :     0.124795
 10 C s       :     2.708691  s :     2.708691
      pz      :     0.924098  p :     2.768023
      px      :     0.910736
      py      :     0.933190
      dz2     :     0.103681  d :     0.407274
      dxz     :     0.072778
      dyz     :     0.028126
      dx2y2   :     0.073029
      dxy     :     0.129660
 11 H s       :     0.729531  s :     0.729531
      pz      :     0.075581  p :     0.254897
      px      :     0.077012
      py      :     0.102305
 12 H s       :     0.729832  s :     0.729832
      pz      :     0.078415  p :     0.264112
      px      :     0.069030
      py      :     0.116667
 13 H s       :     0.744214  s :     0.744214
      pz      :     0.089198  p :     0.272998
      px      :     0.072014
      py      :     0.111786
 14 H s       :     0.750778  s :     0.750778
      pz      :     0.131495  p :     0.274729
      px      :     0.067832
      py      :     0.075402
 15 H s       :     0.742039  s :     0.742039
      pz      :     0.084948  p :     0.288952
      px      :     0.083317
      py      :     0.120687


                      *****************************
                      * MAYER POPULATION ANALYSIS *
                      *****************************

  NA   - Mulliken gross atomic population
  ZA   - Total nuclear charge
  QA   - Mulliken gross atomic charge
  VA   - Mayer's total valence
  BVA  - Mayer's bonded valence
  FA   - Mayer's free valence

  ATOM       NA         ZA         QA         VA         BVA        FA
  0 C      6.2295     6.0000    -0.2295     5.0587     5.0587    -0.0000
  1 C      6.3094     6.0000    -0.3094     4.6464     4.6464    -0.0000
  2 C      4.9202     6.0000     1.0798     2.8809     2.8809    -0.0000
  3 N      7.0573     7.0000    -0.0573     3.8148     3.8148     0.0000
  4 N      7.0560     7.0000    -0.0560     3.6840     3.6840    -0.0000
  5 H      1.0343     1.0000    -0.0343     0.8948     0.8948    -0.0000
  6 H      1.2399     1.0000    -0.2399     0.9752     0.9752     0.0000
  7 H      1.4256     1.0000    -0.4256     1.1588     1.1588    -0.0000
  8 H      1.0277     1.0000    -0.0277     0.8898     0.8898    -0.0000
  9 H      1.1448     1.0000    -0.1448     0.9913     0.9913     0.0000
 10 C      5.4000     6.0000     0.6000     3.8641     3.8641    -0.0000
 11 H      1.0058     1.0000    -0.0058     1.1143     1.1143    -0.0000
 12 H      1.0468     1.0000    -0.0468     1.1191     1.1191    -0.0000
 13 H      1.0407     1.0000    -0.0407     1.0804     1.0804    -0.0000
 14 H      1.0045     1.0000    -0.0045     1.0315     1.0315    -0.0000
 15 H      1.0575     1.0000    -0.0575     1.1371     1.1371    -0.0000

  Mayer bond orders larger than 0.100000
B(  0-C ,  1-C ) :   1.2415 B(  0-C ,  7-H ) :   0.2617 B(  0-C , 10-C ) :   1.2323 
B(  0-C , 11-H ) :   0.8400 B(  0-C , 12-H ) :   0.8855 B(  0-C , 13-H ) :   0.1718 
B(  0-C , 14-H ) :   0.1523 B(  0-C , 15-H ) :   0.2013 B(  1-C ,  2-C ) :   1.5582 
B(  1-C ,  3-N ) :   0.3898 B(  1-C ,  4-N ) :   0.2071 B(  1-C ,  7-H ) :   0.9539 
B(  1-C , 11-H ) :   0.2851 B(  1-C , 12-H ) :   0.1515 B(  2-C ,  3-N ) :   0.7990 
B(  2-C ,  4-N ) :   0.8952 B(  2-C ,  6-H ) :  -0.1635 B(  3-N ,  4-N ) :   0.1046 
B(  3-N ,  8-H ) :   1.1624 B(  3-N ,  9-H ) :   1.2269 B(  4-N ,  5-H ) :   1.0574 
B(  4-N ,  6-H ) :   1.3180 B(  5-H ,  6-H ) :  -0.1809 B(  7-H , 11-H ) :  -0.1001 
B(  8-H ,  9-H ) :  -0.1597 B( 10-C , 13-H ) :   0.8618 B( 10-C , 14-H ) :   0.8340 
B( 10-C , 15-H ) :   0.8265 

-------
TIMINGS
-------

Total SCF time: 0 days 0 hours 0 min 11 sec 

Total time                  ....      11.825 sec
Sum of individual times     ....      11.518 sec  ( 97.4%)

Fock matrix formation       ....      10.627 sec  ( 89.9%)
  Split-RI-J                ....       0.798 sec  (  7.5% of F)
  Chain of spheres X        ....       8.110 sec  ( 76.3% of F)
  XC integration            ....       1.148 sec  ( 10.8% of F)
    Basis function eval.    ....       0.327 sec  ( 28.4% of XC)
    Density eval.           ....       0.247 sec  ( 21.5% of XC)
    XC-Functional eval.     ....       0.084 sec  (  7.4% of XC)
    XC-Potential eval.      ....       0.322 sec  ( 28.1% of XC)
Diagonalization             ....       0.069 sec  (  0.6%)
Density matrix formation    ....       0.009 sec  (  0.1%)
Population analysis         ....       0.010 sec  (  0.1%)
Initial guess               ....       0.062 sec  (  0.5%)
Orbital Transformation      ....       0.000 sec  (  0.0%)
Orbital Orthonormalization  ....       0.000 sec  (  0.0%)
DIIS solution               ....       0.043 sec  (  0.4%)
SOSCF solution              ....       0.055 sec  (  0.5%)
Grid generation             ....       0.642 sec  (  5.4%)

Maximum memory used throughout the entire SCF-calculation: 54.1 MB


-------------------------------------------------------------------------------
                          DFT DISPERSION CORRECTION                            
                                                                               
                              DFTD3 V3.1  Rev 1                                
                              USING zero damping                               
-------------------------------------------------------------------------------
The omegaB97X-D3 functional is recognized. Fit by Chai et al.
Active option DFTDOPT                   ...         3   

molecular C6(AA) [au] = 1933.264128 


            DFT-D V3
 parameters
 s6 scaling factor         :     1.0000 
 rs6 scaling factor        :     1.2810 
 s8 scaling factor         :     1.0000 
 rs8 scaling factor        :     1.0940 
 Damping factor alpha6     :    14.0000 
 Damping factor alpha8     :    16.0000 
 ad hoc parameters k1-k3   :    16.0000     1.3333    -4.0000 

 Edisp/kcal,au: -2.398494713227  -0.003822244215 
 E6   /kcal   :  -0.981343491 
 E8   /kcal   :  -1.417151222 
 % E8         :  59.085025872 

-------------------------   ----------------
Dispersion correction           -0.003822244
-------------------------   ----------------


-------------------------   --------------------
FINAL SINGLE POINT ENERGY      -267.669533121269
-------------------------   --------------------


                            ***************************************
                            *     ORCA property calculations      *
                            ***************************************

                                    ---------------------
                                    Active property flags
                                    ---------------------
   (+) Dipole Moment


------------------------------------------------------------------------------
                       ORCA ELECTRIC PROPERTIES CALCULATION
------------------------------------------------------------------------------

Dipole Moment Calculation                       ... on
Quadrupole Moment Calculation                   ... off
Polarizability Calculation                      ... off
GBWName                                         ... C1_wt_dlpno_pos.gbw
Electron density file                           ... C1_wt_dlpno_pos.scfp
The origin for moment calculation is the CENTER OF MASS  = ( 9.163260,  3.554204 -7.330027)

-------------
DIPOLE MOMENT
-------------
                                X             Y             Z
Electronic contribution:     -1.26219       1.96798      -4.10879
Nuclear contribution   :      1.23062      -1.24683       3.43056
                        -----------------------------------------
Total Dipole Moment    :     -0.03157       0.72115      -0.67823
                        -----------------------------------------
Magnitude (a.u.)       :      0.99048
Magnitude (Debye)      :      2.51759



--------------------
Rotational spectrum 
--------------------
 
Rotational constants in cm-1:     0.231477     0.075416     0.065327 
Rotational constants in MHz :  6939.497385  2260.912204  1958.442932 

 Dipole components along the rotational axes: 
x,y,z [a.u.] :    -0.906838     0.397358     0.028189 
x,y,z [Debye]:    -2.305000     1.010004     0.071650 

 

Timings for individual modules:

Sum of individual times         ...       12.868 sec (=   0.214 min)
GTO integral calculation        ...        0.606 sec (=   0.010 min)   4.7 %
SCF iterations                  ...       12.262 sec (=   0.204 min)  95.3 %
                             ****ORCA TERMINATED NORMALLY****
TOTAL RUN TIME: 0 days 0 hours 0 minutes 13 seconds 429 msec
