
                                        *****************
                                        * O   R   C   A *
                                        *****************

                                            #,                                       
                                            ###                                      
                                            ####                                     
                                            #####                                    
                                            ######                                   
                                           ########,                                 
                                     ,,################,,,,,                         
                               ,,#################################,,                 
                          ,,##########################################,,             
                       ,#########################################, ''#####,          
                    ,#############################################,,   '####,        
                  ,##################################################,,,,####,       
                ,###########''''           ''''###############################       
              ,#####''   ,,,,##########,,,,          '''####'''          '####       
            ,##' ,,,,###########################,,,                        '##       
           ' ,,###''''                  '''############,,,                           
         ,,##''                                '''############,,,,        ,,,,,,###''
      ,#''                                            '''#######################'''  
     '                                                          ''''####''''         
             ,#######,   #######,   ,#######,      ##                                
            ,#'     '#,  ##    ##  ,#'     '#,    #''#        ######   ,####,        
            ##       ##  ##   ,#'  ##            #'  '#       #        #'  '#        
            ##       ##  #######   ##           ,######,      #####,   #    #        
            '#,     ,#'  ##    ##  '#,     ,#' ,#      #,         ##   #,  ,#        
             '#######'   ##     ##  '#######'  #'      '#     #####' # '####'        



                  #######################################################
                  #                        -***-                        #
                  #          Department of theory and spectroscopy      #
                  #    Directorship and core code : Frank Neese         #
                  #        Max Planck Institute fuer Kohlenforschung    #
                  #                Kaiser Wilhelm Platz 1               #
                  #                 D-45470 Muelheim/Ruhr               #
                  #                      Germany                        #
                  #                                                     #
                  #                  All rights reserved                #
                  #                        -***-                        #
                  #######################################################


                         Program Version 5.0.0 -  RELEASE  -
                                (SVN: $Rev: 19529$)
                ($Date: 2021-06-28 11:36:33 +0200 (Mo, 28 Jun 2021) $)


 With contributions from (in alphabetic order):
   Daniel Aravena         : Magnetic Suceptibility
   Michael Atanasov       : Ab Initio Ligand Field Theory (pilot matlab implementation)
   Alexander A. Auer      : GIAO ZORA, VPT2 properties, NMR spectrum
   Ute Becker             : Parallelization
   Giovanni Bistoni       : ED, misc. LED, open-shell LED, HFLD
   Martin Brehm           : Molecular dynamics
   Dmytro Bykov           : SCF Hessian
   Vijay G. Chilkuri      : MRCI spin determinant printing, contributions to CSF-ICE
   Dipayan Datta          : RHF DLPNO-CCSD density
   Achintya Kumar Dutta   : EOM-CC, STEOM-CC
   Dmitry Ganyushin       : Spin-Orbit,Spin-Spin,Magnetic field MRCI
   Miquel Garcia          : C-PCM Hessian, Gaussian charge scheme
   Yang Guo               : DLPNO-NEVPT2, F12-NEVPT2, CIM, IAO-localization
   Andreas Hansen         : Spin unrestricted coupled pair/coupled cluster methods
   Benjamin Helmich-Paris : MC-RPA, TRAH-SCF, COSX integrals
   Lee Huntington         : MR-EOM, pCC
   Robert Izsak           : Overlap fitted RIJCOSX, COSX-SCS-MP3, EOM
   Marcus Kettner         : VPT2
   Christian Kollmar      : KDIIS, OOCD, Brueckner-CCSD(T), CCSD density, CASPT2, CASPT2-K
   Simone Kossmann        : Meta GGA functionals, TD-DFT gradient, OOMP2, MP2 Hessian
   Martin Krupicka        : Initial AUTO-CI
   Lucas Lang             : DCDCAS
   Marvin Lechner         : AUTO-CI (C++ implementation), FIC-MRCC
   Dagmar Lenk            : GEPOL surface, SMD
   Dimitrios Liakos       : Extrapolation schemes; Compound Job, initial MDCI parallelization
   Dimitrios Manganas     : Further ROCIS development; embedding schemes
   Dimitrios Pantazis     : SARC Basis sets
   Anastasios Papadopoulos: AUTO-CI, single reference methods and gradients
   Taras Petrenko         : DFT Hessian,TD-DFT gradient, ASA, ECA, R-Raman, ABS, FL, XAS/XES, NRVS
   Peter Pinski           : DLPNO-MP2, DLPNO-MP2 Gradient
   Christoph Reimann      : Effective Core Potentials
   Marius Retegan         : Local ZFS, SOC
   Christoph Riplinger    : Optimizer, TS searches, QM/MM, DLPNO-CCSD(T), (RO)-DLPNO pert. Triples
   Tobias Risthaus        : Range-separated hybrids, TD-DFT gradient, RPA, STAB
   Michael Roemelt        : Original ROCIS implementation
   Masaaki Saitow         : Open-shell DLPNO-CCSD energy and density
   Barbara Sandhoefer     : DKH picture change effects
   Avijit Sen             : IP-ROCIS
   Kantharuban Sivalingam : CASSCF convergence, NEVPT2, FIC-MRCI
   Bernardo de Souza      : ESD, SOC TD-DFT
   Georgi Stoychev        : AutoAux, RI-MP2 NMR
   Willem Van den Heuvel  : Paramagnetic NMR
   Boris Wezisla          : Elementary symmetry handling
   Frank Wennmohs         : Technical directorship


 We gratefully acknowledge several colleagues who have allowed us to
 interface, adapt or use parts of their codes:
   Stefan Grimme, W. Hujo, H. Kruse, P. Pracht,  : VdW corrections, initial TS optimization,
                  C. Bannwarth, S. Ehlert          DFT functionals, gCP, sTDA/sTD-DF
   Ed Valeev, F. Pavosevic, A. Kumar             : LibInt (2-el integral package), F12 methods
   Garnet Chan, S. Sharma, J. Yang, R. Olivares  : DMRG
   Ulf Ekstrom                                   : XCFun DFT Library
   Mihaly Kallay                                 : mrcc  (arbitrary order and MRCC methods)
   Jiri Pittner, Ondrej Demel                    : Mk-CCSD
   Frank Weinhold                                : gennbo (NPA and NBO analysis)
   Christopher J. Cramer and Donald G. Truhlar   : smd solvation model
   Lars Goerigk                                  : TD-DFT with DH, B97 family of functionals
   V. Asgeirsson, H. Jonsson                     : NEB implementation
   FAccTs GmbH                                   : IRC, NEB, NEB-TS, DLPNO-Multilevel, CI-OPT
                                                   MM, QMMM, 2- and 3-layer-ONIOM, Crystal-QMMM,
                                                   LR-CPCM, SF, NACMEs, symmetry and pop. for TD-DFT,
                                                   nearIR, NL-DFT gradient (VV10), updates on ESD,
                                                   ML-optimized integration grids
   S Lehtola, MJT Oliveira, MAL Marques          : LibXC Library
   Liviu Ungur et al                             : ANISO software


 Your calculation uses the libint2 library for the computation of 2-el integrals
 For citations please refer to: http://libint.valeyev.net

 Your ORCA version has been built with support for libXC version: 5.1.0
 For citations please refer to: https://tddft.org/programs/libxc/

 This ORCA versions uses:
   CBLAS   interface :  Fast vector & matrix operations
   LAPACKE interface :  Fast linear algebra routines
   SCALAPACK package :  Parallel linear algebra routines
   Shared memory     :  Shared parallel matrices
   BLAS/LAPACK       :  OpenBLAS 0.3.15  USE64BITINT DYNAMIC_ARCH NO_AFFINITY Haswell SINGLE_THREADED
        Core in use  :  Haswell
   Copyright (c) 2011-2014, The OpenBLAS Project




***************************************
The coordinates will be read from file: D5.xyz
***************************************


Your calculation utilizes the atom-pairwise dispersion correction
with the zero-damping scheme (D30)
Cite in your paper:
S.Grimme, J.Antony, S.Ehrlich and H.Krieg, J.Chem.Phys., 132, (2010), 154104 
   

XCFun DFT library Copyright 2009-2010 Ulf Ekstrom and contributors.
See http://admol.org/xcfun for more information.
This is free software; see the source code for copying conditions.
There is ABSOLUTELY NO WARRANTY; not even for MERCHANTABILITY or FITNESS FOR A PARTICULAR PURPOSE.
For details see the documentation.
Scientific users of this library should cite U. Ekstrom, L. Visscher, R. Bast, A. J. Thorvaldsen and K. Ruud;
J.Chem.Theor.Comp. 2010, DOI: 10.1021/ct100117s
XCFun Version 0.99 

================================================================================

----- Orbital basis set information -----
Your calculation utilizes the basis: def2-SVPD
   F. Weigend and R. Ahlrichs, Phys. Chem. Chem. Phys. 7, 3297 (2005).
   D. Rappoport and F. Furche, J. Chem. Phys. 133 134105 (2010).

----- AuxJ basis set information -----
Your calculation utilizes the auxiliary basis: def2/J
   F. Weigend, Phys. Chem. Chem. Phys. 8, 1057 (2006).

================================================================================
                                        WARNINGS
                       Please study these warnings very carefully!
================================================================================


INFO   : the flag for use of the SHARK integral package has been found!

================================================================================
                                       INPUT FILE
================================================================================
NAME = new_SVPD_D5_wb97.com
|  1> !wB97X-D3 RIJCOSX def2-SVPD def2/J TightSCF xyzfile                                                                                         
|  2> 
|  3> *xyzfile 0 1 D5.xyz
|  4> 
|  5> %MaxCore 64000
|  6> 
|  7> %pal nprocs 18
|  8> end  
|  9> 
| 10> %scf
| 11>   MaxIter 150
| 12> end
| 13> 
| 14> 
| 15>                          ****END OF INPUT****
================================================================================

                       ****************************
                       * Single Point Calculation *
                       ****************************

---------------------------------
CARTESIAN COORDINATES (ANGSTROEM)
---------------------------------
  C      4.490588    1.155899   -2.469290
  N      4.305394    1.222762   -3.908317
  C      4.906458   -3.102816   -5.954844
  C      3.511771   -2.806215   -6.492283
  H      2.736044   -3.373445   -5.973736
  H      3.444904   -3.040831   -7.555281
  S      3.004618   -1.096206   -6.389259
  C      4.631918    2.246365   -4.670958
  C      4.541686    2.143990   -5.987139
  N      5.084086    3.393584   -4.118545
  H      4.920675    3.570501   -3.135870
  H      5.254652    4.197390   -4.706956
  H      3.824530    0.449113   -4.350926
  H      4.343373    1.249318   -6.416646
  H      4.676712    2.956624   -6.574113
  O      4.128856   -0.329647   -6.953717
  F      1.781285   -1.000779   -7.136399
  C      5.942129    0.939500   -2.036893
  H      3.864305    0.328532   -2.136611
  H      4.076233    2.049994   -1.989010
  C      6.462677   -3.117775   -3.944671
  C      5.024977   -3.025679   -4.437625
  H      4.423321   -3.818693   -3.977648
  H      4.579350   -2.087131   -4.108727
  H      5.201533   -4.100207   -6.296905
  H      5.605922   -2.397822   -6.413368
  C      6.559957   -0.356290   -2.559086
  H      5.967976    0.952567   -0.942444
  H      6.547184    1.788331   -2.368849
  C      6.006283   -1.615917   -1.899301
  H      7.642360   -0.318000   -2.402059
  H      6.414855   -0.403433   -3.642587
  C      6.608718   -2.917014   -2.435655
  H      6.190324   -1.561115   -0.820948
  H      4.919250   -1.651245   -2.016586
  H      7.066975   -2.374258   -4.475514
  H      6.887808   -4.089747   -4.215332
  H      6.135197   -3.755573   -1.915159
  H      7.671142   -2.955503   -2.172291
  O      2.851546   -0.783683   -4.956789

----------------------------
CARTESIAN COORDINATES (A.U.)
----------------------------
  NO LB      ZA    FRAG     MASS         X           Y           Z
   0 C     6.0000    0    12.011    8.485982    2.184332   -4.666282
   1 N     7.0000    0    14.007    8.136015    2.310685   -7.385649
   2 C     6.0000    0    12.011    9.271862   -5.863473  -11.253025
   3 C     6.0000    0    12.011    6.636285   -5.302977  -12.268638
   4 H     1.0000    0     1.008    5.170374   -6.374888  -11.288724
   5 H     1.0000    0     1.008    6.509926   -5.746338  -14.277412
   6 S    16.0000    0    32.060    5.677904   -2.071530  -12.073950
   7 C     6.0000    0    12.011    8.753057    4.245015   -8.826831
   8 C     6.0000    0    12.011    8.582543    4.051553  -11.314052
   9 N     7.0000    0    14.007    9.607530    6.412945   -7.782923
  10 H     1.0000    0     1.008    9.298728    6.747268   -5.925936
  11 H     1.0000    0     1.008    9.929852    7.931917   -8.894858
  12 H     1.0000    0     1.008    7.227314    0.848701   -8.222058
  13 H     1.0000    0     1.008    8.207786    2.360868  -12.125704
  14 H     1.0000    0     1.008    8.837705    5.587209  -12.423274
  15 O     8.0000    0    15.999    7.802408   -0.622942  -13.140621
  16 F     9.0000    0    18.998    3.366140   -1.891199  -13.485840
  17 C     6.0000    0    12.011   11.228997    1.775397   -3.849170
  18 H     1.0000    0     1.008    7.302479    0.620836   -4.037610
  19 H     1.0000    0     1.008    7.702964    3.873927   -3.758685
  20 C     6.0000    0    12.011   12.212689   -5.891741   -7.454347
  21 C     6.0000    0    12.011    9.495831   -5.717705   -8.385896
  22 H     1.0000    0     1.008    8.358866   -7.216284   -7.516666
  23 H     1.0000    0     1.008    8.653718   -3.944106   -7.764369
  24 H     1.0000    0     1.008    9.829473   -7.748269  -11.899427
  25 H     1.0000    0     1.008   10.593657   -4.531226  -12.119509
  26 C     6.0000    0    12.011   12.396522   -0.673291   -4.835971
  27 H     1.0000    0     1.008   11.277840    1.800090   -1.780961
  28 H     1.0000    0     1.008   12.372385    3.379455   -4.476477
  29 C     6.0000    0    12.011   11.350230   -3.053641   -3.589158
  30 H     1.0000    0     1.008   14.441966   -0.600934   -4.539234
  31 H     1.0000    0     1.008   12.122318   -0.762378   -6.883492
  32 C     6.0000    0    12.011   12.488666   -5.512358   -4.602721
  33 H     1.0000    0     1.008   11.698016   -2.950080   -1.551366
  34 H     1.0000    0     1.008    9.296035   -3.120400   -3.810796
  35 H     1.0000    0     1.008   13.354648   -4.486697   -8.457496
  36 H     1.0000    0     1.008   13.016070   -7.728501   -7.965822
  37 H     1.0000    0     1.008   11.593841   -7.097005   -3.619127
  38 H     1.0000    0     1.008   14.496357   -5.585092   -4.105035
  39 O     8.0000    0    15.999    5.388641   -1.480946   -9.366974

--------------------------------
INTERNAL COORDINATES (ANGSTROEM)
--------------------------------
 C      0   0   0     0.000000000000     0.00000000     0.00000000
 N      1   0   0     1.452434888732     0.00000000     0.00000000
 C      2   1   0     4.822880648060   111.29935464     0.00000000
 C      3   2   1     1.523799819616    82.01111056   124.72570022
 H      4   3   2     1.091968299252   112.43309611   255.51929182
 H      4   3   2     1.090632873150   110.97759244   134.54655122
 S      4   3   2     1.786602224664   115.19977359    16.50892478
 C      2   1   3     1.317574833962   125.28497018   214.05519914
 C      8   2   1     1.323236350905   119.91604121   173.18858040
 N      8   2   1     1.351194480527   120.39094198   354.48825376
 H     10   8   2     1.011757151303   119.43893893   342.13916756
 H     10   8   2     1.010654769343   119.58539038   185.29571941
 H      2   1   3     1.012750840265   117.28239304    38.84614007
 H      9   8   2     1.012048706728   120.25757225   351.78674532
 H      9   8   2     1.011506480060   120.39405507   172.23609159
 O      7   4   3     1.473139212620   105.02973514    49.07238667
 F      7   4   3     1.436617023222   105.98041552   170.73821441
 C      1   2   3     1.529956533456   114.04751046    71.27147181
 H      1   2   3     1.089697165343   105.31628314   309.84494500
 H      1   2   3     1.096250554262   110.38499465   196.36075284
 C      3   2   1     2.542211031985    75.28786529   328.63877310
 C     21   3   2     1.522650424266    33.45203408    62.46988994
 H     22  21   3     1.096558425421   109.78678321   123.00138599
 H     22  21   3     1.089784085482   109.90626334   238.94967961
 H      3   2   1     1.094926392967   169.46526939   316.66150389
 H      3   2   1     1.093851646948    71.30795148   237.06279558
 C     18   1   2     1.527569327213   114.02213033   299.75436756
 H     18   1   2     1.094832037269   107.65179087   177.40351951
 H     18   1   2     1.093983651653   109.22173402    62.36298160
 C     27  18   1     1.525952470352   113.93276277   288.90034571
 H     27  18   1     1.094403426518   108.74093275   167.10616769
 H     27  18   1     1.094190161747   108.74874272    52.17399198
 C     21   3   2     1.529300762752   146.92063230    53.80488115
 H     30  27  18     1.095317124906   108.86941482   300.75108730
 H     30  27  18     1.093912987644   109.92906200    56.35085961
 H     21   3   2     1.095348999413    87.16372703   291.04892433
 H     21   3   2     1.094861915024    92.71949470   185.57163885
 H     33  21   3     1.094677724411   109.10507473    72.09358689
 H     33  21   3     1.095256828209   108.98305469   187.60350442
 O      7   4   3     1.474133937430   106.76381078   292.33403201

---------------------------
INTERNAL COORDINATES (A.U.)
---------------------------
 C      0   0   0     0.000000000000     0.00000000     0.00000000
 N      1   0   0     2.744704167055     0.00000000     0.00000000
 C      2   1   0     9.113923601421   111.29935464     0.00000000
 C      3   2   1     2.879564341994    82.01111056   124.72570022
 H      4   3   2     2.063521032510   112.43309611   255.51929182
 H      4   3   2     2.060997442905   110.97759244   134.54655122
 S      4   3   2     3.376188914869   115.19977359    16.50892478
 C      2   1   3     2.489855597135   125.28497018   214.05519914
 C      8   2   1     2.500554313659   119.91604121   173.18858040
 N      8   2   1     2.553387521862   120.39094198   354.48825376
 H     10   8   2     1.911943930000   119.43893893   342.13916756
 H     10   8   2     1.909860730000   119.58539038   185.29571941
 H      2   1   3     1.913821729999   117.28239304    38.84614007
 H      9   8   2     1.912494889904   120.25757225   351.78674532
 H      9   8   2     1.911470230000   120.39405507   172.23609159
 O      7   4   3     2.783829668993   105.02973514    49.07238667
 F      7   4   3     2.714812733219   105.98041552   170.73821441
 C      1   2   3     2.891198845036   114.04751046    71.27147181
 H      1   2   3     2.059229211409   105.31628314   309.84494500
 H      1   2   3     2.071613321715   110.38499465   196.36075284
 C      3   2   1     4.804082625084    75.28786529   328.63877310
 C     21   3   2     2.877392299561    33.45203408    62.46988994
 H     22  21   3     2.072195113889   109.78678321   123.00138599
 H     22  21   3     2.059393466667   109.90626334   238.94967961
 H      3   2   1     2.069111019509   169.46526939   316.66150389
 H      3   2   1     2.067080043870    71.30795148   237.06279558
 C     18   1   2     2.886687679010   114.02213033   299.75436756
 H     18   1   2     2.068932713082   107.65179087   177.40351951
 H     18   1   2     2.067329496612   109.22173402    62.36298160
 C     27  18   1     2.883632262346   113.93276277   288.90034571
 H     27  18   1     2.068122756144   108.74093275   167.10616769
 H     27  18   1     2.067719744133   108.74874272    52.17399198
 C     21   3   2     2.889959617997   146.92063230    53.80488115
 H     30  27  18     2.069849395866   108.86941482   300.75108730
 H     30  27  18     2.067195960987   109.92906200    56.35085961
 H     21   3   2     2.069909629955    87.16372703   291.04892433
 H     21   3   2     2.068989173855    92.71949470   185.57163885
 H     33  21   3     2.068641104040   109.10507473    72.09358689
 H     33  21   3     2.069735451623   108.98305469   187.60350442
 O      7   4   3     2.785709426462   106.76381078   292.33403201

---------------------
BASIS SET INFORMATION
---------------------
There are 6 groups of distinct atoms

 Group   1 Type C   : 8s4p2d contracted to 4s2p2d pattern {5111/31/11}
 Group   2 Type N   : 8s4p2d contracted to 4s2p2d pattern {5111/31/11}
 Group   3 Type H   : 4s2p contracted to 2s2p pattern {31/11}
 Group   4 Type S   : 11s8p2d contracted to 5s4p2d pattern {53111/5111/11}
 Group   5 Type O   : 8s5p2d contracted to 4s3p2d pattern {5111/311/11}
 Group   6 Type F   : 8s5p2d contracted to 4s3p2d pattern {5111/311/11}

Atom   0C    basis set group =>   1
Atom   1N    basis set group =>   2
Atom   2C    basis set group =>   1
Atom   3C    basis set group =>   1
Atom   4H    basis set group =>   3
Atom   5H    basis set group =>   3
Atom   6S    basis set group =>   4
Atom   7C    basis set group =>   1
Atom   8C    basis set group =>   1
Atom   9N    basis set group =>   2
Atom  10H    basis set group =>   3
Atom  11H    basis set group =>   3
Atom  12H    basis set group =>   3
Atom  13H    basis set group =>   3
Atom  14H    basis set group =>   3
Atom  15O    basis set group =>   5
Atom  16F    basis set group =>   6
Atom  17C    basis set group =>   1
Atom  18H    basis set group =>   3
Atom  19H    basis set group =>   3
Atom  20C    basis set group =>   1
Atom  21C    basis set group =>   1
Atom  22H    basis set group =>   3
Atom  23H    basis set group =>   3
Atom  24H    basis set group =>   3
Atom  25H    basis set group =>   3
Atom  26C    basis set group =>   1
Atom  27H    basis set group =>   3
Atom  28H    basis set group =>   3
Atom  29C    basis set group =>   1
Atom  30H    basis set group =>   3
Atom  31H    basis set group =>   3
Atom  32C    basis set group =>   1
Atom  33H    basis set group =>   3
Atom  34H    basis set group =>   3
Atom  35H    basis set group =>   3
Atom  36H    basis set group =>   3
Atom  37H    basis set group =>   3
Atom  38H    basis set group =>   3
Atom  39O    basis set group =>   5
---------------------------------
AUXILIARY/J BASIS SET INFORMATION
---------------------------------
There are 6 groups of distinct atoms

 Group   1 Type C   : 12s5p4d2f1g contracted to 6s4p3d1f1g pattern {711111/2111/211/2/1}
 Group   2 Type N   : 12s5p4d2f1g contracted to 6s4p3d1f1g pattern {711111/2111/211/2/1}
 Group   3 Type H   : 5s2p1d contracted to 3s1p1d pattern {311/2/1}
 Group   4 Type S   : 14s5p5d2f1g contracted to 8s4p3d1f1g pattern {71111111/2111/311/2/1}
 Group   5 Type O   : 12s5p4d2f1g contracted to 6s4p3d1f1g pattern {711111/2111/211/2/1}
 Group   6 Type F   : 12s5p4d2f1g contracted to 6s4p3d1f1g pattern {711111/2111/211/2/1}

Atom   0C    basis set group =>   1
Atom   1N    basis set group =>   2
Atom   2C    basis set group =>   1
Atom   3C    basis set group =>   1
Atom   4H    basis set group =>   3
Atom   5H    basis set group =>   3
Atom   6S    basis set group =>   4
Atom   7C    basis set group =>   1
Atom   8C    basis set group =>   1
Atom   9N    basis set group =>   2
Atom  10H    basis set group =>   3
Atom  11H    basis set group =>   3
Atom  12H    basis set group =>   3
Atom  13H    basis set group =>   3
Atom  14H    basis set group =>   3
Atom  15O    basis set group =>   5
Atom  16F    basis set group =>   6
Atom  17C    basis set group =>   1
Atom  18H    basis set group =>   3
Atom  19H    basis set group =>   3
Atom  20C    basis set group =>   1
Atom  21C    basis set group =>   1
Atom  22H    basis set group =>   3
Atom  23H    basis set group =>   3
Atom  24H    basis set group =>   3
Atom  25H    basis set group =>   3
Atom  26C    basis set group =>   1
Atom  27H    basis set group =>   3
Atom  28H    basis set group =>   3
Atom  29C    basis set group =>   1
Atom  30H    basis set group =>   3
Atom  31H    basis set group =>   3
Atom  32C    basis set group =>   1
Atom  33H    basis set group =>   3
Atom  34H    basis set group =>   3
Atom  35H    basis set group =>   3
Atom  36H    basis set group =>   3
Atom  37H    basis set group =>   3
Atom  38H    basis set group =>   3
Atom  39O    basis set group =>   5


           ************************************************************
           *        Program running with 18 parallel MPI-processes    *
           *              working on a common directory               *
           ************************************************************
------------------------------------------------------------------------------
                           ORCA GTO INTEGRAL CALCULATION
                           -- RI-GTO INTEGRALS CHOSEN --
------------------------------------------------------------------------------
------------------------------------------------------------------------------
                   ___                                                        
                  /   \      - P O W E R E D   B Y -                         
                 /     \                                                     
                 |  |  |   _    _      __       _____    __    __             
                 |  |  |  | |  | |    /  \     |  _  \  |  |  /  |          
                  \  \/   | |  | |   /    \    | | | |  |  | /  /          
                 / \  \   | |__| |  /  /\  \   | |_| |  |  |/  /          
                |  |  |   |  __  | /  /__\  \  |    /   |      \           
                |  |  |   | |  | | |   __   |  |    \   |  |\   \          
                \     /   | |  | | |  |  |  |  | |\  \  |  | \   \       
                 \___/    |_|  |_| |__|  |__|  |_| \__\ |__|  \__/        
                                                                              
                      - O R C A' S   B I G   F R I E N D -                    
                                      &                                       
                       - I N T E G R A L  F E E D E R -                       
                                                                              
 v1 FN, 2020, v2 2021                                                         
------------------------------------------------------------------------------


Reading SHARK input file new_SVPD_D5_wb97.SHARKINP.tmp ... ok
----------------------
SHARK INTEGRAL PACKAGE
----------------------

Number of atoms                             ...     40
Number of basis functions                   ...    540
Number of shells                            ...    234
Maximum angular momentum                    ...      2
Integral batch strategy                     ... SHARK/LIBINT Hybrid
RI-J (if used) integral strategy            ... SPLIT-RIJ (Revised 2003 algorithm where possible)
Printlevel                                  ...      1
Contraction scheme used                     ... SEGMENTED contraction
Coulomb Range Separation                    ... NOT USED
Exchange Range Separation                   ... Long Range
   Mu parameter                             ...  0.250000
   Scaling (regular/separated)              ...  0.195728  0.804272
Finite Nucleus Model                        ... NOT USED
Auxiliary Coulomb fitting basis             ... AVAILABLE
   # of basis functions in Aux-J            ...   1088
   # of shells in Aux-J                     ...    372
   Maximum angular momentum in Aux-J        ...      4
Auxiliary J/K fitting basis                 ... NOT available
Auxiliary Correlation fitting basis         ... NOT available
Auxiliary 'external' fitting basis          ... NOT available
Integral threshold                          ...     2.500000e-11
Primitive cut-off                           ...     2.500000e-12
Primitive pair pre-selection threshold      ...     2.500000e-12

Calculating pre-screening integrals         ... done (  0.2 sec) Dimension = 234
Organizing shell pair data                  ... done (  0.3 sec)
Shell pair information
Total number of shell pairs                 ...     27495
Shell pairs after pre-screening             ...     24593
Total number of primitive shell pairs       ...     74991
Primitive shell pairs kept                  ...     49926
          la=0 lb=0:   5919 shell pairs
          la=1 lb=0:   8750 shell pairs
          la=1 lb=1:   3277 shell pairs
          la=2 lb=0:   3505 shell pairs
          la=2 lb=1:   2605 shell pairs
          la=2 lb=2:    537 shell pairs

Calculating one electron integrals          ... done (  0.0 sec)
Calculating RI/J V-Matrix + Cholesky decomp.... done (  0.4 sec)
Calculating Nuclear repulsion               ... done (  0.0 sec) ENN=   1571.414116262247 Eh

SHARK setup successfully completed in   1.0 seconds

Maximum memory used throughout the entire GTOINT-calculation: 36.0 MB


           ************************************************************
           *        Program running with 18 parallel MPI-processes    *
           *              working on a common directory               *
           ************************************************************
-------------------------------------------------------------------------------
                                 ORCA SCF
-------------------------------------------------------------------------------

------------
SCF SETTINGS
------------
Hamiltonian:
 Density Functional     Method          .... DFT(GTOs)
 Exchange Functional    Exchange        .... WB97X-D3
 Correlation Functional Correlation     .... WB97X-D3
 Gradients option       PostSCFGGA      .... off
 Hybrid DFT is turned on
   Fraction HF Exchange ScalHFX         ....  0.195728
   Scaling of DF-GGA-X  ScalDFX         ....  0.000000
   Scaling of DF-GGA-C  ScalDFC         ....  1.000000
   Scaling of DF-LDA-C  ScalLDAC        ....  1.000000
   Perturbative correction              ....  0.000000
   Density functional embedding theory  .... OFF
 Long-range corrected/Screened/Range-Separated Hybrid DFT is turned on
   Amount of maximum screened exact exchange              ....  0.804272
   Range separation parameter mu (erf(mu*r12)/r12)        ....  0.250000
 RI-approximation to the Coulomb term is turned on
   Number of AuxJ basis functions       .... 1088
   RIJ-COSX (HFX calculated with COS-X)).... on


General Settings:
 Integral files         IntName         .... new_SVPD_D5_wb97
 Hartree-Fock type      HFTyp           .... RHF
 Total Charge           Charge          ....    0
 Multiplicity           Mult            ....    1
 Number of Electrons    NEL             ....  144
 Basis Dimension        Dim             ....  540
 Nuclear Repulsion      ENuc            ....   1571.4141162622 Eh

Convergence Acceleration:
 DIIS                   CNVDIIS         .... on
   Start iteration      DIISMaxIt       ....    12
   Startup error        DIISStart       ....  0.200000
   # of expansion vecs  DIISMaxEq       ....     5
   Bias factor          DIISBfac        ....   1.050
   Max. coefficient     DIISMaxC        ....  10.000
 Trust-Rad. Augm. Hess. CNVTRAH         .... auto
   Auto Start mean grad. ratio tolernc. ....  1.125000
   Auto Start start iteration           ....    20
   Auto Start num. interpolation iter.  ....    10
   Max. Number of Micro iterations      ....    16
   Max. Number of Macro iterations      .... Maxiter - #DIIS iter
   Number of Davidson start vectors     ....     2
   Converg. threshold I  (grad. norm)   ....   1.000e-05
   Converg. threshold II (energy diff.) ....   1.000e-08
   Grad. Scal. Fac. for Micro threshold ....   0.100
   Minimum threshold for Micro iter.    ....   0.010
   NR start threshold (gradient norm)   ....   0.001
   Initial trust radius                 ....   0.400
   Minimum AH scaling param. (alpha)    ....   1.000
   Maximum AH scaling param. (alpha)    .... 1000.000
   Orbital update algorithm             .... Taylor
   White noise on init. David. guess    .... on
   Maximum white noise                  ....   0.010
   Quad. conv. algorithm                .... NR
 SOSCF                  CNVSOSCF        .... on
   Start iteration      SOSCFMaxIt      ....   150
   Startup grad/error   SOSCFStart      ....  0.003300
 Level Shifting         CNVShift        .... on
   Level shift para.    LevelShift      ....    0.2500
   Turn off err/grad.   ShiftErr        ....    0.0010
 Zerner damping         CNVZerner       .... off
 Static damping         CNVDamp         .... on
   Fraction old density DampFac         ....    0.7000
   Max. Damping (<1)    DampMax         ....    0.9800
   Min. Damping (>=0)   DampMin         ....    0.0000
   Turn off err/grad.   DampErr         ....    0.1000
 Fernandez-Rico         CNVRico         .... off

SCF Procedure:
 Maximum # iterations   MaxIter         ....   150
 SCF integral mode      SCFMode         .... Direct
   Integral package                     .... SHARK and LIBINT hybrid scheme
 Reset frequency        DirectResetFreq ....    20
 Integral Threshold     Thresh          ....  2.500e-11 Eh
 Primitive CutOff       TCut            ....  2.500e-12 Eh

Convergence Tolerance:
 Convergence Check Mode ConvCheckMode   .... Total+1el-Energy
 Convergence forced     ConvForced      .... 0
 Energy Change          TolE            ....  1.000e-08 Eh
 1-El. energy change                    ....  1.000e-05 Eh
 Orbital Gradient       TolG            ....  1.000e-05
 Orbital Rotation angle TolX            ....  1.000e-05
 DIIS Error             TolErr          ....  5.000e-07


Diagonalization of the overlap matrix:
Smallest eigenvalue                        ... 1.222e-05
Time for diagonalization                   ...    0.081 sec
Threshold for overlap eigenvalues          ... 1.000e-08
Number of eigenvalues below threshold      ... 0
Time for construction of square roots      ...    0.233 sec
Total time needed                          ...    0.317 sec

Time for model grid setup =    0.326 sec

------------------------------
INITIAL GUESS: MODEL POTENTIAL
------------------------------
Loading Hartree-Fock densities                     ... done
Calculating cut-offs                               ... done
Initializing the effective Hamiltonian             ... done
Setting up the integral package (SHARK)            ... done
Starting the Coulomb interaction                   ... done (   0.3 sec)
Reading the grid                                   ... done
Mapping shells                                     ... done
Starting the XC term evaluation                    ... done (   0.3 sec)
  promolecular density results
     # of electrons  =    143.983018170
     EX              =   -127.655470054
     EC              =     -4.952990160
     EX+EC           =   -132.608460214
Transforming the Hamiltonian                       ... done (   0.1 sec)
Diagonalizing the Hamiltonian                      ... done (   0.1 sec)
Back transforming the eigenvectors                 ... done (   0.0 sec)
Now organizing SCF variables                       ... done
                      ------------------
                      INITIAL GUESS DONE (   1.1 sec)
                      ------------------
-------------------
DFT GRID GENERATION
-------------------

General Integration Accuracy     IntAcc      ... 4.388
Radial Grid Type                 RadialGrid  ... OptM3 with GC (2021)
Angular Grid (max. ang.)         AngularGrid ... 4 (Lebedev-302)
Angular grid pruning method      GridPruning ... 4 (adaptive)
Weight generation scheme         WeightScheme... Becke
Basis function cutoff            BFCut       ... 1.0000e-11
Integration weight cutoff        WCut        ... 1.0000e-14
Angular grids for H and He will be reduced by one unit
Partially contracted basis set               ... off
Rotationally invariant grid construction     ... off

Total number of grid points                  ...   179822
Total number of batches                      ...     2829
Average number of points per batch           ...       63
Average number of grid points per atom       ...     4496
Time for grid setup =    1.568 sec

--------------------
COSX GRID GENERATION
--------------------

GRIDX 1
-------
General Integration Accuracy     IntAcc      ... 3.816
Radial Grid Type                 RadialGrid  ... OptM3 with GC (2021)
Angular Grid (max. ang.)         AngularGrid ... 1 (Lebedev-50)
Angular grid pruning method      GridPruning ... 4 (adaptive)
Weight generation scheme         WeightScheme... Becke
Basis function cutoff            BFCut       ... 1.0000e-11
Integration weight cutoff        WCut        ... 1.0000e-14
Angular grids for H and He will be reduced by one unit
Partially contracted basis set               ... on
Rotationally invariant grid construction     ... off

Total number of grid points                  ...    22370
Total number of batches                      ...      376
Average number of points per batch           ...       59
Average number of grid points per atom       ...      559
UseSFitting                                  ... on

GRIDX 2
-------
General Integration Accuracy     IntAcc      ... 4.020
Radial Grid Type                 RadialGrid  ... OptM3 with GC (2021)
Angular Grid (max. ang.)         AngularGrid ... 2 (Lebedev-110)
Angular grid pruning method      GridPruning ... 4 (adaptive)
Weight generation scheme         WeightScheme... Becke
Basis function cutoff            BFCut       ... 1.0000e-11
Integration weight cutoff        WCut        ... 1.0000e-14
Angular grids for H and He will be reduced by one unit
Partially contracted basis set               ... on
Rotationally invariant grid construction     ... off

Total number of grid points                  ...    49141
Total number of batches                      ...      788
Average number of points per batch           ...       62
Average number of grid points per atom       ...     1229
UseSFitting                                  ... on

GRIDX 3
-------
General Integration Accuracy     IntAcc      ... 4.338
Radial Grid Type                 RadialGrid  ... OptM3 with GC (2021)
Angular Grid (max. ang.)         AngularGrid ... 3 (Lebedev-194)
Angular grid pruning method      GridPruning ... 4 (adaptive)
Weight generation scheme         WeightScheme... Becke
Basis function cutoff            BFCut       ... 1.0000e-11
Integration weight cutoff        WCut        ... 1.0000e-14
Angular grids for H and He will be reduced by one unit
Partially contracted basis set               ... on
Rotationally invariant grid construction     ... off

Total number of grid points                  ...   110432
Total number of batches                      ...     1747
Average number of points per batch           ...       63
Average number of grid points per atom       ...     2761
UseSFitting                                  ... on

Time for X-Grid setup             =    1.756 sec

--------------
SCF ITERATIONS
--------------
ITER       Energy         Delta-E        Max-DP      RMS-DP      [F,P]     Damp
               ***  Starting incremental Fock matrix formation  ***
  0  -1189.2907394344   0.000000000000 0.22678436  0.00296000  0.2688262 0.7000
  1  -1189.5964566201  -0.305717185661 0.14876839  0.00203370  0.1476744 0.7000
                               ***Turning on DIIS***
  2  -1189.7364655129  -0.140008892822 0.44965701  0.00422767  0.0776738 0.0000
  3  -1189.9647973546  -0.228331841696 0.10800302  0.00143203  0.0597386 0.0000
  4  -1190.0028459972  -0.038048642617 0.02118823  0.00033236  0.0156120 0.0000
  5  -1190.0042047482  -0.001358750962 0.01247430  0.00012481  0.0075957 0.0000
                      *** Initiating the SOSCF procedure ***
                           *** Shutting down DIIS ***
                      *** Re-Reading the Fockian *** 
                      *** Removing any level shift *** 
ITER      Energy       Delta-E        Grad      Rot      Max-DP    RMS-DP
  6  -1190.00440924  -0.0002044902  0.000579  0.000579  0.003251  0.000065
               *** Restarting incremental Fock matrix formation ***
  7  -1190.00449904  -0.0000897989  0.000161  0.000375  0.010347  0.000164
  8  -1190.00450196  -0.0000029264  0.000199  0.000341  0.002906  0.000046
  9  -1190.00450482  -0.0000028595  0.000042  0.000134  0.001700  0.000027
 10  -1190.00450492  -0.0000000970  0.000017  0.000034  0.001774  0.000011
 11  -1190.00450503  -0.0000001088  0.000005  0.000018  0.000335  0.000004
                  ***Gradient check signals convergence***
              ***Rediagonalizing the Fockian in SOSCF/NRSCF***

               *****************************************************
               *                     SUCCESS                       *
               *           SCF CONVERGED AFTER  12 CYCLES          *
               *****************************************************

Old exchange energy                            =    -40.952004127 Eh
New exchange energy                            =    -40.952000171 Eh
Exchange energy change after final integration =      0.000003956 Eh
Total energy after final integration           =  -1190.004501097 Eh
Final COS-X integration done in                =    29.850 sec

----------------
TOTAL SCF ENERGY
----------------

Total Energy       :        -1190.00450110 Eh          -32381.66873 eV

Components:
Nuclear Repulsion  :         1571.41411626 Eh           42760.35200 eV
Electronic Energy  :        -2761.41861736 Eh          -75142.02072 eV
One Electron Energy:        -4750.79018195 Eh         -129275.57309 eV
Two Electron Energy:         1989.37156459 Eh           54133.55237 eV
Max COSX asymmetry :            0.00000905 Eh               0.00025 eV

Virial components:
Potential Energy   :        -2371.13569008 Eh          -64521.88236 eV
Kinetic Energy     :         1181.13118898 Eh           32140.21363 eV
Virial Ratio       :            2.00751255


DFT components:
N(Alpha)           :       71.999800111281 electrons
N(Beta)            :       71.999800111281 electrons
N(Total)           :      143.999600222562 electrons
E(XC)              :      -94.567617889480 Eh       
DFET-embed. en.    :        0.000000000000 Eh       

---------------
SCF CONVERGENCE
---------------

  Last Energy change         ...   -2.4700e-08  Tolerance :   1.0000e-08
  Last MAX-Density change    ...    3.5527e-15  Tolerance :   1.0000e-07
  Last RMS-Density change    ...    3.5694e-17  Tolerance :   5.0000e-09
  Last Orbital Gradient      ...    2.3548e-06  Tolerance :   1.0000e-05
  Last Orbital Rotation      ...    3.9681e-06  Tolerance :   1.0000e-05

             **** THE GBW FILE WAS UPDATED (new_SVPD_D5_wb97.gbw) ****
             **** DENSITY new_SVPD_D5_wb97.scfp WAS UPDATED ****
             **** ENERGY FILE WAS UPDATED (new_SVPD_D5_wb97.en.tmp) ****
             **** THE GBW FILE WAS UPDATED (new_SVPD_D5_wb97.gbw) ****
             **** DENSITY new_SVPD_D5_wb97.scfp WAS UPDATED ****
----------------
ORBITAL ENERGIES
----------------

  NO   OCC          E(Eh)            E(eV) 
   0   2.0000     -89.253239     -2428.7041 
   1   2.0000     -24.938243      -678.6041 
   2   2.0000     -19.271412      -524.4018 
   3   2.0000     -19.260548      -524.1062 
   4   2.0000     -14.411294      -392.1512 
   5   2.0000     -14.394917      -391.7056 
   6   2.0000     -10.364200      -282.0242 
   7   2.0000     -10.322362      -280.8858 
   8   2.0000     -10.305468      -280.4260 
   9   2.0000     -10.304113      -280.3892 
  10   2.0000     -10.293884      -280.1108 
  11   2.0000     -10.288176      -279.9555 
  12   2.0000     -10.283968      -279.8410 
  13   2.0000     -10.278287      -279.6864 
  14   2.0000     -10.272133      -279.5189 
  15   2.0000     -10.271187      -279.4932 
  16   2.0000     -10.157379      -276.3963 
  17   2.0000      -8.326314      -226.5705 
  18   2.0000      -6.290116      -171.1628 
  19   2.0000      -6.283802      -170.9909 
  20   2.0000      -6.282141      -170.9457 
  21   2.0000      -1.511808       -41.1384 
  22   2.0000      -1.235876       -33.6299 
  23   2.0000      -1.131507       -30.7899 
  24   2.0000      -1.047754       -28.5108 
  25   2.0000      -0.962587       -26.1933 
  26   2.0000      -0.960726       -26.1427 
  27   2.0000      -0.923347       -25.1256 
  28   2.0000      -0.894129       -24.3305 
  29   2.0000      -0.864461       -23.5232 
  30   2.0000      -0.838481       -22.8162 
  31   2.0000      -0.809972       -22.0404 
  32   2.0000      -0.779414       -21.2089 
  33   2.0000      -0.752193       -20.4682 
  34   2.0000      -0.729899       -19.8616 
  35   2.0000      -0.715110       -19.4591 
  36   2.0000      -0.700080       -19.0501 
  37   2.0000      -0.698543       -19.0083 
  38   2.0000      -0.684627       -18.6297 
  39   2.0000      -0.665937       -18.1211 
  40   2.0000      -0.652906       -17.7665 
  41   2.0000      -0.618932       -16.8420 
  42   2.0000      -0.610704       -16.6181 
  43   2.0000      -0.595583       -16.2066 
  44   2.0000      -0.582346       -15.8464 
  45   2.0000      -0.578474       -15.7411 
  46   2.0000      -0.565598       -15.3907 
  47   2.0000      -0.563976       -15.3466 
  48   2.0000      -0.551354       -15.0031 
  49   2.0000      -0.543461       -14.7883 
  50   2.0000      -0.532437       -14.4883 
  51   2.0000      -0.525015       -14.2864 
  52   2.0000      -0.515892       -14.0381 
  53   2.0000      -0.497015       -13.5245 
  54   2.0000      -0.487623       -13.2689 
  55   2.0000      -0.484843       -13.1933 
  56   2.0000      -0.474405       -12.9092 
  57   2.0000      -0.469080       -12.7643 
  58   2.0000      -0.456206       -12.4140 
  59   2.0000      -0.452990       -12.3265 
  60   2.0000      -0.450138       -12.2489 
  61   2.0000      -0.443278       -12.0622 
  62   2.0000      -0.432787       -11.7767 
  63   2.0000      -0.427503       -11.6330 
  64   2.0000      -0.421085       -11.4583 
  65   2.0000      -0.413503       -11.2520 
  66   2.0000      -0.403462       -10.9788 
  67   2.0000      -0.401530       -10.9262 
  68   2.0000      -0.395533       -10.7630 
  69   2.0000      -0.384415       -10.4605 
  70   2.0000      -0.319730        -8.7003 
  71   2.0000      -0.218248        -5.9388 
  72   0.0000       0.058582         1.5941 
  73   0.0000       0.081569         2.2196 
  74   0.0000       0.086107         2.3431 
  75   0.0000       0.096061         2.6140 
  76   0.0000       0.105219         2.8632 
  77   0.0000       0.108708         2.9581 
  78   0.0000       0.110986         3.0201 
  79   0.0000       0.114060         3.1037 
  80   0.0000       0.121679         3.3111 
  81   0.0000       0.128006         3.4832 
  82   0.0000       0.135020         3.6741 
  83   0.0000       0.136492         3.7141 
  84   0.0000       0.143780         3.9124 
  85   0.0000       0.146434         3.9847 
  86   0.0000       0.151895         4.1333 
  87   0.0000       0.158472         4.3123 
  88   0.0000       0.166200         4.5225 
  89   0.0000       0.168526         4.5858 
  90   0.0000       0.172170         4.6850 
  91   0.0000       0.177575         4.8321 
  92   0.0000       0.181748         4.9456 
  93   0.0000       0.185352         5.0437 
  94   0.0000       0.193739         5.2719 
  95   0.0000       0.195972         5.3327 
  96   0.0000       0.199566         5.4305 
  97   0.0000       0.201357         5.4792 
  98   0.0000       0.205584         5.5942 
  99   0.0000       0.210278         5.7220 
 100   0.0000       0.217922         5.9300 
 101   0.0000       0.225187         6.1277 
 102   0.0000       0.227650         6.1947 
 103   0.0000       0.232188         6.3182 
 104   0.0000       0.239491         6.5169 
 105   0.0000       0.242829         6.6077 
 106   0.0000       0.250006         6.8030 
 107   0.0000       0.252703         6.8764 
 108   0.0000       0.256294         6.9741 
 109   0.0000       0.259513         7.0617 
 110   0.0000       0.261624         7.1191 
 111   0.0000       0.269776         7.3410 
 112   0.0000       0.272232         7.4078 
 113   0.0000       0.274219         7.4619 
 114   0.0000       0.277852         7.5607 
 115   0.0000       0.281489         7.6597 
 116   0.0000       0.283961         7.7270 
 117   0.0000       0.293586         7.9889 
 118   0.0000       0.296024         8.0552 
 119   0.0000       0.298232         8.1153 
 120   0.0000       0.302640         8.2353 
 121   0.0000       0.304375         8.2825 
 122   0.0000       0.307369         8.3639 
 123   0.0000       0.313756         8.5377 
 124   0.0000       0.318361         8.6631 
 125   0.0000       0.319929         8.7057 
 126   0.0000       0.321937         8.7603 
 127   0.0000       0.325092         8.8462 
 128   0.0000       0.327533         8.9126 
 129   0.0000       0.333283         9.0691 
 130   0.0000       0.343403         9.3445 
 131   0.0000       0.345892         9.4122 
 132   0.0000       0.349988         9.5237 
 133   0.0000       0.355315         9.6686 
 134   0.0000       0.359398         9.7797 
 135   0.0000       0.363549         9.8927 
 136   0.0000       0.368453        10.0261 
 137   0.0000       0.371048        10.0967 
 138   0.0000       0.373196        10.1552 
 139   0.0000       0.376664        10.2495 
 140   0.0000       0.380308        10.3487 
 141   0.0000       0.385347        10.4858 
 142   0.0000       0.389773        10.6063 
 143   0.0000       0.391632        10.6568 
 144   0.0000       0.396102        10.7785 
 145   0.0000       0.400315        10.8931 
 146   0.0000       0.401407        10.9228 
 147   0.0000       0.404244        11.0000 
 148   0.0000       0.408796        11.1239 
 149   0.0000       0.411965        11.2101 
 150   0.0000       0.414775        11.2866 
 151   0.0000       0.416112        11.3230 
 152   0.0000       0.420101        11.4315 
 153   0.0000       0.423634        11.5277 
 154   0.0000       0.426337        11.6012 
 155   0.0000       0.428964        11.6727 
 156   0.0000       0.431935        11.7535 
 157   0.0000       0.436767        11.8850 
 158   0.0000       0.440353        11.9826 
 159   0.0000       0.441680        12.0187 
 160   0.0000       0.446904        12.1609 
 161   0.0000       0.452618        12.3164 
 162   0.0000       0.457047        12.4369 
 163   0.0000       0.457542        12.4503 
 164   0.0000       0.459837        12.5128 
 165   0.0000       0.465108        12.6562 
 166   0.0000       0.466797        12.7022 
 167   0.0000       0.467495        12.7212 
 168   0.0000       0.471358        12.8263 
 169   0.0000       0.476946        12.9783 
 170   0.0000       0.478550        13.0220 
 171   0.0000       0.481061        13.0903 
 172   0.0000       0.486974        13.2512 
 173   0.0000       0.489164        13.3108 
 174   0.0000       0.495742        13.4898 
 175   0.0000       0.498741        13.5714 
 176   0.0000       0.501487        13.6461 
 177   0.0000       0.507909        13.8209 
 178   0.0000       0.512027        13.9330 
 179   0.0000       0.512666        13.9504 
 180   0.0000       0.517731        14.0882 
 181   0.0000       0.521488        14.1904 
 182   0.0000       0.521955        14.2031 
 183   0.0000       0.527878        14.3643 
 184   0.0000       0.530268        14.4293 
 185   0.0000       0.531189        14.4544 
 186   0.0000       0.534101        14.5336 
 187   0.0000       0.540081        14.6963 
 188   0.0000       0.542885        14.7727 
 189   0.0000       0.547373        14.8948 
 190   0.0000       0.549411        14.9502 
 191   0.0000       0.554817        15.0973 
 192   0.0000       0.557569        15.1722 
 193   0.0000       0.559790        15.2326 
 194   0.0000       0.563128        15.3235 
 195   0.0000       0.565168        15.3790 
 196   0.0000       0.565963        15.4006 
 197   0.0000       0.574569        15.6348 
 198   0.0000       0.580281        15.7903 
 199   0.0000       0.587745        15.9934 
 200   0.0000       0.590460        16.0672 
 201   0.0000       0.591972        16.1084 
 202   0.0000       0.594538        16.1782 
 203   0.0000       0.597611        16.2618 
 204   0.0000       0.598795        16.2940 
 205   0.0000       0.602646        16.3988 
 206   0.0000       0.609677        16.5901 
 207   0.0000       0.611748        16.6465 
 208   0.0000       0.617740        16.8096 
 209   0.0000       0.621241        16.9048 
 210   0.0000       0.625961        17.0333 
 211   0.0000       0.626924        17.0595 
 212   0.0000       0.629342        17.1253 
 213   0.0000       0.634108        17.2549 
 214   0.0000       0.638563        17.3762 
 215   0.0000       0.641639        17.4599 
 216   0.0000       0.646542        17.5933 
 217   0.0000       0.647970        17.6322 
 218   0.0000       0.651990        17.7415 
 219   0.0000       0.656898        17.8751 
 220   0.0000       0.660780        17.9807 
 221   0.0000       0.663776        18.0623 
 222   0.0000       0.672482        18.2992 
 223   0.0000       0.674339        18.3497 
 224   0.0000       0.679200        18.4820 
 225   0.0000       0.680082        18.5060 
 226   0.0000       0.684356        18.6223 
 227   0.0000       0.688743        18.7416 
 228   0.0000       0.690272        18.7833 
 229   0.0000       0.698350        19.0031 
 230   0.0000       0.700647        19.0656 
 231   0.0000       0.707487        19.2517 
 232   0.0000       0.708937        19.2911 
 233   0.0000       0.714677        19.4474 
 234   0.0000       0.717437        19.5225 
 235   0.0000       0.722972        19.6731 
 236   0.0000       0.732452        19.9310 
 237   0.0000       0.736880        20.0515 
 238   0.0000       0.737667        20.0729 
 239   0.0000       0.742303        20.1991 
 240   0.0000       0.745961        20.2986 
 241   0.0000       0.749610        20.3979 
 242   0.0000       0.751830        20.4583 
 243   0.0000       0.757784        20.6203 
 244   0.0000       0.763969        20.7886 
 245   0.0000       0.769561        20.9408 
 246   0.0000       0.770789        20.9742 
 247   0.0000       0.774222        21.0677 
 248   0.0000       0.778453        21.1828 
 249   0.0000       0.787449        21.4276 
 250   0.0000       0.788129        21.4461 
 251   0.0000       0.792110        21.5544 
 252   0.0000       0.797970        21.7139 
 253   0.0000       0.802616        21.8403 
 254   0.0000       0.808193        21.9920 
 255   0.0000       0.812027        22.0964 
 256   0.0000       0.820694        22.3322 
 257   0.0000       0.823876        22.4188 
 258   0.0000       0.832550        22.6548 
 259   0.0000       0.837960        22.8020 
 260   0.0000       0.839149        22.8344 
 261   0.0000       0.843781        22.9604 
 262   0.0000       0.848536        23.0898 
 263   0.0000       0.857335        23.3293 
 264   0.0000       0.860248        23.4085 
 265   0.0000       0.865247        23.5446 
 266   0.0000       0.866363        23.5749 
 267   0.0000       0.877238        23.8709 
 268   0.0000       0.883170        24.0323 
 269   0.0000       0.886472        24.1221 
 270   0.0000       0.888664        24.1818 
 271   0.0000       0.898071        24.4378 
 272   0.0000       0.906978        24.6801 
 273   0.0000       0.915431        24.9101 
 274   0.0000       0.926019        25.1982 
 275   0.0000       0.932078        25.3631 
 276   0.0000       0.936231        25.4761 
 277   0.0000       0.938927        25.5495 
 278   0.0000       0.945326        25.7236 
 279   0.0000       0.948536        25.8110 
 280   0.0000       0.952571        25.9208 
 281   0.0000       0.960439        26.1349 
 282   0.0000       0.966858        26.3095 
 283   0.0000       0.968094        26.3432 
 284   0.0000       0.989905        26.9367 
 285   0.0000       0.998509        27.1708 
 286   0.0000       1.001548        27.2535 
 287   0.0000       1.004286        27.3280 
 288   0.0000       1.017441        27.6860 
 289   0.0000       1.034400        28.1475 
 290   0.0000       1.040884        28.3239 
 291   0.0000       1.044498        28.4222 
 292   0.0000       1.051294        28.6072 
 293   0.0000       1.058714        28.8091 
 294   0.0000       1.066316        29.0159 
 295   0.0000       1.076780        29.3007 
 296   0.0000       1.080091        29.3908 
 297   0.0000       1.084494        29.5106 
 298   0.0000       1.090229        29.6666 
 299   0.0000       1.099097        29.9080 
 300   0.0000       1.105980        30.0952 
 301   0.0000       1.110759        30.2253 
 302   0.0000       1.121859        30.5273 
 303   0.0000       1.127867        30.6908 
 304   0.0000       1.129799        30.7434 
 305   0.0000       1.130626        30.7659 
 306   0.0000       1.136986        30.9390 
 307   0.0000       1.141892        31.0725 
 308   0.0000       1.149183        31.2709 
 309   0.0000       1.153229        31.3810 
 310   0.0000       1.159245        31.5447 
 311   0.0000       1.166125        31.7319 
 312   0.0000       1.173984        31.9457 
 313   0.0000       1.176935        32.0260 
 314   0.0000       1.189311        32.3628 
 315   0.0000       1.194438        32.5023 
 316   0.0000       1.199029        32.6272 
 317   0.0000       1.209716        32.9180 
 318   0.0000       1.215330        33.0708 
 319   0.0000       1.219333        33.1797 
 320   0.0000       1.225903        33.3585 
 321   0.0000       1.237806        33.6824 
 322   0.0000       1.241794        33.7909 
 323   0.0000       1.243620        33.8406 
 324   0.0000       1.247934        33.9580 
 325   0.0000       1.251103        34.0443 
 326   0.0000       1.268440        34.5160 
 327   0.0000       1.275171        34.6992 
 328   0.0000       1.279794        34.8250 
 329   0.0000       1.293303        35.1926 
 330   0.0000       1.302426        35.4408 
 331   0.0000       1.309157        35.6240 
 332   0.0000       1.317795        35.8590 
 333   0.0000       1.322970        35.9998 
 334   0.0000       1.330861        36.2146 
 335   0.0000       1.336864        36.3779 
 336   0.0000       1.341163        36.4949 
 337   0.0000       1.350699        36.7544 
 338   0.0000       1.365076        37.1456 
 339   0.0000       1.366986        37.1976 
 340   0.0000       1.381629        37.5960 
 341   0.0000       1.386245        37.7216 
 342   0.0000       1.397451        38.0266 
 343   0.0000       1.401561        38.1384 
 344   0.0000       1.413145        38.4536 
 345   0.0000       1.420245        38.6468 
 346   0.0000       1.425063        38.7779 
 347   0.0000       1.439539        39.1719 
 348   0.0000       1.454473        39.5782 
 349   0.0000       1.461211        39.7616 
 350   0.0000       1.462610        39.7996 
 351   0.0000       1.478548        40.2333 
 352   0.0000       1.485234        40.4153 
 353   0.0000       1.494888        40.6780 
 354   0.0000       1.524295        41.4782 
 355   0.0000       1.527063        41.5535 
 356   0.0000       1.542004        41.9601 
 357   0.0000       1.549784        42.1718 
 358   0.0000       1.555318        42.3224 
 359   0.0000       1.573614        42.8202 
 360   0.0000       1.585066        43.1318 
 361   0.0000       1.591007        43.2935 
 362   0.0000       1.596546        43.4442 
 363   0.0000       1.615154        43.9506 
 364   0.0000       1.626684        44.2643 
 365   0.0000       1.637947        44.5708 
 366   0.0000       1.642424        44.6926 
 367   0.0000       1.657841        45.1121 
 368   0.0000       1.673846        45.5477 
 369   0.0000       1.678919        45.6857 
 370   0.0000       1.698001        46.2050 
 371   0.0000       1.720770        46.8245 
 372   0.0000       1.729365        47.0584 
 373   0.0000       1.740839        47.3706 
 374   0.0000       1.755047        47.7573 
 375   0.0000       1.763643        47.9912 
 376   0.0000       1.767943        48.1082 
 377   0.0000       1.785069        48.5742 
 378   0.0000       1.794495        48.8307 
 379   0.0000       1.809458        49.2379 
 380   0.0000       1.822800        49.6009 
 381   0.0000       1.835724        49.9526 
 382   0.0000       1.848106        50.2895 
 383   0.0000       1.849984        50.3406 
 384   0.0000       1.861851        50.6636 
 385   0.0000       1.866225        50.7826 
 386   0.0000       1.875994        51.0484 
 387   0.0000       1.881572        51.2002 
 388   0.0000       1.896012        51.5931 
 389   0.0000       1.901958        51.7549 
 390   0.0000       1.913285        52.0631 
 391   0.0000       1.923740        52.3476 
 392   0.0000       1.932117        52.5756 
 393   0.0000       1.940427        52.8017 
 394   0.0000       1.948296        53.0158 
 395   0.0000       1.960216        53.3402 
 396   0.0000       1.960882        53.3583 
 397   0.0000       1.975935        53.7679 
 398   0.0000       1.980751        53.8990 
 399   0.0000       1.992146        54.2091 
 400   0.0000       2.000894        54.4471 
 401   0.0000       2.012807        54.7713 
 402   0.0000       2.017799        54.9071 
 403   0.0000       2.028628        55.2018 
 404   0.0000       2.033327        55.3297 
 405   0.0000       2.039551        55.4990 
 406   0.0000       2.047271        55.7091 
 407   0.0000       2.050769        55.8043 
 408   0.0000       2.056798        55.9683 
 409   0.0000       2.061689        56.1014 
 410   0.0000       2.069662        56.3184 
 411   0.0000       2.073281        56.4168 
 412   0.0000       2.082937        56.6796 
 413   0.0000       2.099022        57.1173 
 414   0.0000       2.107818        57.3566 
 415   0.0000       2.107982        57.3611 
 416   0.0000       2.117572        57.6221 
 417   0.0000       2.129094        57.9356 
 418   0.0000       2.141344        58.2689 
 419   0.0000       2.146091        58.3981 
 420   0.0000       2.151665        58.5498 
 421   0.0000       2.154845        58.6363 
 422   0.0000       2.159870        58.7730 
 423   0.0000       2.166359        58.9496 
 424   0.0000       2.176043        59.2131 
 425   0.0000       2.179568        59.3091 
 426   0.0000       2.180863        59.3443 
 427   0.0000       2.200839        59.8879 
 428   0.0000       2.205759        60.0218 
 429   0.0000       2.213984        60.2456 
 430   0.0000       2.215083        60.2755 
 431   0.0000       2.235596        60.8337 
 432   0.0000       2.239690        60.9451 
 433   0.0000       2.246082        61.1190 
 434   0.0000       2.255840        61.3845 
 435   0.0000       2.259539        61.4852 
 436   0.0000       2.267579        61.7040 
 437   0.0000       2.276595        61.9493 
 438   0.0000       2.287275        62.2399 
 439   0.0000       2.292722        62.3881 
 440   0.0000       2.312833        62.9354 
 441   0.0000       2.316195        63.0269 
 442   0.0000       2.325841        63.2894 
 443   0.0000       2.328748        63.3685 
 444   0.0000       2.338426        63.6318 
 445   0.0000       2.351487        63.9872 
 446   0.0000       2.357214        64.1431 
 447   0.0000       2.370322        64.4997 
 448   0.0000       2.388861        65.0042 
 449   0.0000       2.392202        65.0951 
 450   0.0000       2.396152        65.2026 
 451   0.0000       2.420050        65.8529 
 452   0.0000       2.443109        66.4804 
 453   0.0000       2.446815        66.5812 
 454   0.0000       2.460811        66.9621 
 455   0.0000       2.479167        67.4616 
 456   0.0000       2.491592        67.7997 
 457   0.0000       2.500565        68.0438 
 458   0.0000       2.524664        68.6996 
 459   0.0000       2.543285        69.2063 
 460   0.0000       2.546057        69.2817 
 461   0.0000       2.554584        69.5138 
 462   0.0000       2.557320        69.5882 
 463   0.0000       2.576847        70.1196 
 464   0.0000       2.592632        70.5491 
 465   0.0000       2.598171        70.6998 
 466   0.0000       2.605738        70.9057 
 467   0.0000       2.626918        71.4821 
 468   0.0000       2.635849        71.7251 
 469   0.0000       2.641701        71.8843 
 470   0.0000       2.664007        72.4913 
 471   0.0000       2.670684        72.6730 
 472   0.0000       2.692821        73.2754 
 473   0.0000       2.698243        73.4229 
 474   0.0000       2.713166        73.8290 
 475   0.0000       2.714979        73.8783 
 476   0.0000       2.720409        74.0261 
 477   0.0000       2.727385        74.2159 
 478   0.0000       2.736331        74.4594 
 479   0.0000       2.739783        74.5533 
 480   0.0000       2.759976        75.1028 
 481   0.0000       2.786402        75.8219 
 482   0.0000       2.793509        76.0153 
 483   0.0000       2.801119        76.2223 
 484   0.0000       2.805303        76.3362 
 485   0.0000       2.826141        76.9032 
 486   0.0000       2.842921        77.3598 
 487   0.0000       2.845376        77.4266 
 488   0.0000       2.859765        77.8182 
 489   0.0000       2.898073        78.8606 
 490   0.0000       2.910207        79.1908 
 491   0.0000       2.915722        79.3408 
 492   0.0000       2.933402        79.8219 
 493   0.0000       2.956986        80.4637 
 494   0.0000       2.982425        81.1559 
 495   0.0000       2.994878        81.4948 
 496   0.0000       2.996316        81.5339 
 497   0.0000       3.010573        81.9219 
 498   0.0000       3.026315        82.3502 
 499   0.0000       3.043144        82.8081 
 500   0.0000       3.051250        83.0287 
 501   0.0000       3.058871        83.2361 
 502   0.0000       3.084708        83.9392 
 503   0.0000       3.105347        84.5008 
 504   0.0000       3.123305        84.9894 
 505   0.0000       3.141625        85.4880 
 506   0.0000       3.149420        85.7001 
 507   0.0000       3.159583        85.9766 
 508   0.0000       3.186958        86.7215 
 509   0.0000       3.195241        86.9469 
 510   0.0000       3.209855        87.3446 
 511   0.0000       3.220647        87.6382 
 512   0.0000       3.231873        87.9437 
 513   0.0000       3.251172        88.4689 
 514   0.0000       3.257014        88.6279 
 515   0.0000       3.278829        89.2215 
 516   0.0000       3.285740        89.4095 
 517   0.0000       3.296712        89.7081 
 518   0.0000       3.301372        89.8349 
 519   0.0000       3.321204        90.3745 
 520   0.0000       3.347889        91.1007 
 521   0.0000       3.363147        91.5159 
 522   0.0000       3.375132        91.8420 
 523   0.0000       3.381635        92.0190 
 524   0.0000       3.395928        92.4079 
 525   0.0000       3.400544        92.5335 
 526   0.0000       3.402791        92.5946 
 527   0.0000       3.412299        92.8534 
 528   0.0000       3.426652        93.2439 
 529   0.0000       3.431523        93.3765 
 530   0.0000       3.447016        93.7981 
 531   0.0000       3.461760        94.1993 
 532   0.0000       3.476515        94.6008 
 533   0.0000       3.493958        95.0754 
 534   0.0000       3.599032        97.9346 
 535   0.0000       3.665618        99.7465 
 536   0.0000       3.724200       101.3406 
 537   0.0000       3.869700       105.2999 
 538   0.0000       3.897205       106.0483 
 539   0.0000       3.945218       107.3548 

                    ********************************
                    * MULLIKEN POPULATION ANALYSIS *
                    ********************************

-----------------------
MULLIKEN ATOMIC CHARGES
-----------------------
   0 C :    1.013549
   1 N :    0.218168
   2 C :    0.122630
   3 C :    0.202355
   4 H :    0.066685
   5 H :    0.067418
   6 S :    1.662091
   7 C :    0.965700
   8 C :    0.595137
   9 N :    0.179359
  10 H :   -0.058368
  11 H :   -0.193938
  12 H :   -1.085142
  13 H :   -0.402484
  14 H :   -0.689633
  15 O :   -0.696686
  16 F :   -0.537996
  17 C :    0.289487
  18 H :   -0.282947
  19 H :   -0.180668
  20 C :   -0.009982
  21 C :    0.211455
  22 H :    0.046047
  23 H :   -0.495792
  24 H :   -0.063134
  25 H :    0.069240
  26 C :    0.120434
  27 H :   -0.148770
  28 H :   -0.030186
  29 C :   -0.160592
  30 H :   -0.150105
  31 H :   -0.118210
  32 C :    0.622379
  33 H :   -0.325909
  34 H :    0.150134
  35 H :    0.123000
  36 H :   -0.312502
  37 H :   -0.028209
  38 H :    0.023057
  39 O :   -0.777074
Sum of atomic charges:    0.0000000

--------------------------------
MULLIKEN REDUCED ORBITAL CHARGES
--------------------------------
  0 C s       :     2.516613  s :     2.516613
      pz      :     0.858263  p :     2.445036
      px      :     0.951008
      py      :     0.635764
      dz2     :     0.008276  d :     0.024802
      dxz     :     0.101385
      dyz     :    -0.151373
      dx2y2   :     0.036202
      dxy     :     0.030311
  1 N s       :     2.780491  s :     2.780491
      pz      :     1.060993  p :     3.720400
      px      :     1.558748
      py      :     1.100658
      dz2     :     0.102766  d :     0.280941
      dxz     :     0.056566
      dyz     :     0.100951
      dx2y2   :     0.008875
      dxy     :     0.011784
  2 C s       :     2.756733  s :     2.756733
      pz      :     1.034022  p :     2.742959
      px      :     0.871023
      py      :     0.837913
      dz2     :     0.042354  d :     0.377678
      dxz     :     0.235799
      dyz     :     0.073497
      dx2y2   :     0.026240
      dxy     :    -0.000212
  3 C s       :     2.685518  s :     2.685518
      pz      :     0.966184  p :     2.884078
      px      :     1.098861
      py      :     0.819033
      dz2     :     0.116197  d :     0.228049
      dxz     :     0.046800
      dyz     :    -0.058591
      dx2y2   :     0.042610
      dxy     :     0.081034
  4 H s       :     0.909283  s :     0.909283
      pz      :    -0.016978  p :     0.024032
      px      :     0.020772
      py      :     0.020238
  5 H s       :     0.892526  s :     0.892526
      pz      :     0.042725  p :     0.040056
      px      :    -0.009414
      py      :     0.006745
  6 S s       :     4.914231  s :     4.914231
      pz      :     2.819345  p :     8.696093
      px      :     2.726669
      py      :     3.150079
      dz2     :     0.167764  d :     0.727585
      dxz     :     0.148539
      dyz     :     0.159967
      dx2y2   :     0.176715
      dxy     :     0.074600
  7 C s       :     2.635197  s :     2.635197
      pz      :     0.559491  p :     2.079143
      px      :     0.785295
      py      :     0.734358
      dz2     :    -0.102177  d :     0.319960
      dxz     :     0.101853
      dyz     :     0.339102
      dx2y2   :     0.002751
      dxy     :    -0.021569
  8 C s       :     2.744768  s :     2.744768
      pz      :     0.952891  p :     2.552849
      px      :     1.114289
      py      :     0.485669
      dz2     :     0.004982  d :     0.107246
      dxz     :    -0.005677
      dyz     :     0.103611
      dx2y2   :    -0.013592
      dxy     :     0.017922
  9 N s       :     3.158591  s :     3.158591
      pz      :     0.997822  p :     3.678124
      px      :     1.626156
      py      :     1.054146
      dz2     :    -0.006046  d :    -0.016074
      dxz     :     0.003391
      dyz     :    -0.026751
      dx2y2   :     0.001253
      dxy     :     0.012079
 10 H s       :     1.018261  s :     1.018261
      pz      :    -0.020248  p :     0.040107
      px      :     0.042965
      py      :     0.017390
 11 H s       :     1.161442  s :     1.161442
      pz      :    -0.039166  p :     0.032496
      px      :     0.063737
      py      :     0.007924
 12 H s       :     1.970135  s :     1.970135
      pz      :    -0.110352  p :     0.115007
      px      :     0.150013
      py      :     0.075346
 13 H s       :     1.444787  s :     1.444787
      pz      :     0.037470  p :    -0.042303
      px      :    -0.046433
      py      :    -0.033340
 14 H s       :     1.648344  s :     1.648344
      pz      :     0.009701  p :     0.041289
      px      :     0.062674
      py      :    -0.031086
 15 O s       :     3.953773  s :     3.953773
      pz      :     1.714469  p :     4.720749
      px      :     1.380360
      py      :     1.625920
      dz2     :     0.002275  d :     0.022165
      dxz     :     0.006084
      dyz     :     0.004510
      dx2y2   :     0.004834
      dxy     :     0.004463
 16 F s       :     4.008423  s :     4.008423
      pz      :     1.857393  p :     5.510076
      px      :     1.674823
      py      :     1.977861
      dz2     :     0.002436  d :     0.019496
      dxz     :     0.005033
      dyz     :     0.004088
      dx2y2   :     0.004491
      dxy     :     0.003448
 17 C s       :     2.735175  s :     2.735175
      pz      :     0.795739  p :     2.640536
      px      :     0.956140
      py      :     0.888657
      dz2     :     0.126092  d :     0.334802
      dxz     :     0.020665
      dyz     :     0.054913
      dx2y2   :     0.045789
      dxy     :     0.087343
 18 H s       :     1.237425  s :     1.237425
      pz      :     0.057923  p :     0.045522
      px      :     0.007533
      py      :    -0.019934
 19 H s       :     1.173561  s :     1.173561
      pz      :     0.047505  p :     0.007107
      px      :    -0.028868
      py      :    -0.011530
 20 C s       :     2.809403  s :     2.809403
      pz      :     0.953621  p :     2.711991
      px      :     0.971388
      py      :     0.786982
      dz2     :     0.077892  d :     0.488588
      dxz     :     0.187585
      dyz     :     0.045282
      dx2y2   :     0.032652
      dxy     :     0.145178
 21 C s       :     2.479976  s :     2.479976
      pz      :     0.817531  p :     2.778566
      px      :     0.940192
      py      :     1.020842
      dz2     :     0.054952  d :     0.530003
      dxz     :     0.121409
      dyz     :     0.141050
      dx2y2   :     0.017854
      dxy     :     0.194737
 22 H s       :     0.914267  s :     0.914267
      pz      :     0.005805  p :     0.039687
      px      :     0.014953
      py      :     0.018929
 23 H s       :     1.319999  s :     1.319999
      pz      :     0.031375  p :     0.175793
      px      :    -0.058556
      py      :     0.202973
 24 H s       :     1.072499  s :     1.072499
      pz      :    -0.013721  p :    -0.009365
      px      :    -0.022918
      py      :     0.027274
 25 H s       :     0.874705  s :     0.874705
      pz      :     0.016520  p :     0.056055
      px      :     0.045210
      py      :    -0.005675
 26 C s       :     2.720407  s :     2.720407
      pz      :     0.967373  p :     2.738183
      px      :     0.829537
      py      :     0.941273
      dz2     :     0.167428  d :     0.420976
      dxz     :     0.011923
      dyz     :     0.025890
      dx2y2   :     0.187349
      dxy     :     0.028386
 27 H s       :     1.140771  s :     1.140771
      pz      :     0.054054  p :     0.008000
      px      :    -0.016240
      py      :    -0.029814
 28 H s       :     1.013825  s :     1.013825
      pz      :    -0.030797  p :     0.016361
      px      :     0.013348
      py      :     0.033809
 29 C s       :     2.893907  s :     2.893907
      pz      :     0.831498  p :     2.764274
      px      :     0.978425
      py      :     0.954352
      dz2     :     0.220440  d :     0.502410
      dxz     :    -0.003844
      dyz     :    -0.009938
      dx2y2   :     0.201843
      dxy     :     0.093910
 30 H s       :     1.135715  s :     1.135715
      pz      :    -0.029757  p :     0.014390
      px      :     0.057172
      py      :    -0.013025
 31 H s       :     1.065686  s :     1.065686
      pz      :     0.077977  p :     0.052523
      px      :    -0.017318
      py      :    -0.008136
 32 C s       :     2.501458  s :     2.501458
      pz      :     0.944689  p :     2.669315
      px      :     0.805114
      py      :     0.919512
      dz2     :     0.020409  d :     0.206848
      dxz     :     0.040927
      dyz     :     0.117966
      dx2y2   :     0.038739
      dxy     :    -0.011194
 33 H s       :     1.283246  s :     1.283246
      pz      :     0.071741  p :     0.042663
      px      :    -0.023625
      py      :    -0.005453
 34 H s       :     0.829562  s :     0.829562
      pz      :    -0.003941  p :     0.020304
      px      :     0.059421
      py      :    -0.035176
 35 H s       :     0.854318  s :     0.854318
      pz      :     0.009762  p :     0.022682
      px      :     0.026123
      py      :    -0.013204
 36 H s       :     1.292342  s :     1.292342
      pz      :    -0.015539  p :     0.020160
      px      :    -0.003946
      py      :     0.039645
 37 H s       :     1.042669  s :     1.042669
      pz      :     0.003404  p :    -0.014460
      px      :    -0.037369
      py      :     0.019505
 38 H s       :     0.985048  s :     0.985048
      pz      :    -0.021509  p :    -0.008105
      px      :     0.029449
      py      :    -0.016044
 39 O s       :     3.967796  s :     3.967796
      pz      :     1.245684  p :     4.785028
      px      :     1.761882
      py      :     1.777462
      dz2     :     0.009970  d :     0.024250
      dxz     :     0.012621
      dyz     :    -0.001772
      dx2y2   :    -0.000631
      dxy     :     0.004062


                     *******************************
                     * LOEWDIN POPULATION ANALYSIS *
                     *******************************

----------------------
LOEWDIN ATOMIC CHARGES
----------------------
   0 C :    0.060341
   1 N :    0.008398
   2 C :   -0.018847
   3 C :   -0.048761
   4 H :    0.031121
   5 H :    0.026475
   6 S :    1.205125
   7 C :   -0.207801
   8 C :    0.164305
   9 N :    0.190066
  10 H :   -0.028479
  11 H :    0.001648
  12 H :   -0.089231
  13 H :   -0.193674
  14 H :   -0.097443
  15 O :   -0.448145
  16 F :   -0.235669
  17 C :   -0.023738
  18 H :    0.016867
  19 H :    0.009573
  20 C :   -0.035173
  21 C :   -0.026609
  22 H :    0.041445
  23 H :   -0.014157
  24 H :    0.041239
  25 H :    0.034645
  26 C :   -0.031134
  27 H :    0.019896
  28 H :    0.011854
  29 C :   -0.039668
  30 H :    0.026918
  31 H :    0.011462
  32 C :   -0.031531
  33 H :    0.024445
  34 H :    0.005950
  35 H :    0.021336
  36 H :    0.024376
  37 H :    0.022132
  38 H :    0.024164
  39 O :   -0.453723

-------------------------------
LOEWDIN REDUCED ORBITAL CHARGES
-------------------------------
  0 C s       :     2.656387  s :     2.656387
      pz      :     0.800247  p :     2.586324
      px      :     0.897154
      py      :     0.888924
      dz2     :     0.157928  d :     0.696947
      dxz     :     0.192837
      dyz     :     0.120139
      dx2y2   :     0.097221
      dxy     :     0.128822
  1 N s       :     2.877957  s :     2.877957
      pz      :     1.046217  p :     3.494728
      px      :     1.328683
      py      :     1.119827
      dz2     :     0.170498  d :     0.618917
      dxz     :     0.130685
      dyz     :     0.185801
      dx2y2   :     0.057730
      dxy     :     0.074203
  2 C s       :     2.672034  s :     2.672034
      pz      :     0.912703  p :     2.688074
      px      :     0.860032
      py      :     0.915339
      dz2     :     0.146785  d :     0.658739
      dxz     :     0.178762
      dyz     :     0.131115
      dx2y2   :     0.107196
      dxy     :     0.094881
  3 C s       :     2.711146  s :     2.711146
      pz      :     0.948377  p :     2.723936
      px      :     0.949931
      py      :     0.825627
      dz2     :     0.128998  d :     0.613679
      dxz     :     0.097538
      dyz     :     0.074641
      dx2y2   :     0.138231
      dxy     :     0.174271
  4 H s       :     0.715775  s :     0.715775
      pz      :     0.084453  p :     0.253104
      px      :     0.088771
      py      :     0.079880
  5 H s       :     0.717153  s :     0.717153
      pz      :     0.125954  p :     0.256372
      px      :     0.063310
      py      :     0.067107
  6 S s       :     4.649702  s :     4.649702
      pz      :     2.782667  p :     8.360009
      px      :     2.733004
      py      :     2.844338
      dz2     :     0.405544  d :     1.785165
      dxz     :     0.416722
      dyz     :     0.294086
      dx2y2   :     0.388768
      dxy     :     0.280044
  7 C s       :     2.624810  s :     2.624810
      pz      :     0.947203  p :     2.497758
      px      :     0.729237
      py      :     0.821318
      dz2     :     0.217820  d :     1.085233
      dxz     :     0.257475
      dyz     :     0.283325
      dx2y2   :     0.160138
      dxy     :     0.166476
  8 C s       :     2.705048  s :     2.705048
      pz      :     0.916310  p :     2.786067
      px      :     0.947406
      py      :     0.922352
      dz2     :     0.087985  d :     0.344580
      dxz     :     0.061891
      dyz     :     0.136653
      dx2y2   :     0.040923
      dxy     :     0.017128
  9 N s       :     2.926959  s :     2.926959
      pz      :     1.055500  p :     3.536699
      px      :     1.395439
      py      :     1.085760
      dz2     :     0.077645  d :     0.346276
      dxz     :     0.037559
      dyz     :     0.107594
      dx2y2   :     0.063086
      dxy     :     0.060393
 10 H s       :     0.655291  s :     0.655291
      pz      :     0.153645  p :     0.373189
      px      :     0.129300
      py      :     0.090243
 11 H s       :     0.656522  s :     0.656522
      pz      :     0.104979  p :     0.341830
      px      :     0.117595
      py      :     0.119255
 12 H s       :     0.594682  s :     0.594682
      pz      :     0.123188  p :     0.494549
      px      :     0.167560
      py      :     0.203801
 13 H s       :     0.699641  s :     0.699641
      pz      :     0.106945  p :     0.494033
      px      :     0.137964
      py      :     0.249124
 14 H s       :     0.773186  s :     0.773186
      pz      :     0.083749  p :     0.324257
      px      :     0.127045
      py      :     0.113464
 15 O s       :     3.519821  s :     3.519821
      pz      :     1.625894  p :     4.619088
      px      :     1.420557
      py      :     1.572637
      dz2     :     0.050364  d :     0.309236
      dxz     :     0.051442
      dyz     :     0.045802
      dx2y2   :     0.092145
      dxy     :     0.069482
 16 F s       :     3.692404  s :     3.692404
      pz      :     1.785351  p :     5.308648
      px      :     1.682055
      py      :     1.841243
      dz2     :     0.048557  d :     0.234617
      dxz     :     0.063788
      dyz     :     0.017518
      dx2y2   :     0.051094
      dxy     :     0.053659
 17 C s       :     2.690042  s :     2.690042
      pz      :     0.897559  p :     2.689579
      px      :     0.895428
      py      :     0.896592
      dz2     :     0.155050  d :     0.644117
      dxz     :     0.074310
      dyz     :     0.083307
      dx2y2   :     0.144469
      dxy     :     0.186981
 18 H s       :     0.723455  s :     0.723455
      pz      :     0.059998  p :     0.259678
      px      :     0.079662
      py      :     0.120018
 19 H s       :     0.736086  s :     0.736086
      pz      :     0.066758  p :     0.254341
      px      :     0.070239
      py      :     0.117344
 20 C s       :     2.679082  s :     2.679082
      pz      :     0.890750  p :     2.684417
      px      :     0.891335
      py      :     0.902331
      dz2     :     0.156763  d :     0.671675
      dxz     :     0.171253
      dyz     :     0.116495
      dx2y2   :     0.095119
      dxy     :     0.132045
 21 C s       :     2.668652  s :     2.668652
      pz      :     0.863144  p :     2.675782
      px      :     0.899727
      py      :     0.912911
      dz2     :     0.162273  d :     0.682175
      dxz     :     0.160204
      dyz     :     0.128167
      dx2y2   :     0.085454
      dxy     :     0.146077
 22 H s       :     0.723043  s :     0.723043
      pz      :     0.067130  p :     0.235512
      px      :     0.075699
      py      :     0.092683
 23 H s       :     0.690244  s :     0.690244
      pz      :     0.088117  p :     0.323913
      px      :     0.095922
      py      :     0.139874
 24 H s       :     0.718538  s :     0.718538
      pz      :     0.064760  p :     0.240223
      px      :     0.063138
      py      :     0.112326
 25 H s       :     0.700334  s :     0.700334
      pz      :     0.070050  p :     0.265021
      px      :     0.087971
      py      :     0.106999
 26 C s       :     2.678365  s :     2.678365
      pz      :     0.910640  p :     2.681680
      px      :     0.896764
      py      :     0.874276
      dz2     :     0.167551  d :     0.671089
      dxz     :     0.045408
      dyz     :     0.141505
      dx2y2   :     0.190245
      dxy     :     0.126381
 27 H s       :     0.729637  s :     0.729637
      pz      :     0.122981  p :     0.250467
      px      :     0.060567
      py      :     0.066919
 28 H s       :     0.724477  s :     0.724477
      pz      :     0.080243  p :     0.263669
      px      :     0.078508
      py      :     0.104918
 29 C s       :     2.678780  s :     2.678780
      pz      :     0.896867  p :     2.680940
      px      :     0.903920
      py      :     0.880152
      dz2     :     0.172999  d :     0.679948
      dxz     :     0.045459
      dyz     :     0.125809
      dx2y2   :     0.193461
      dxy     :     0.142220
 30 H s       :     0.728489  s :     0.728489
      pz      :     0.065870  p :     0.244593
      px      :     0.118477
      py      :     0.060245
 31 H s       :     0.708253  s :     0.708253
      pz      :     0.123526  p :     0.280285
      px      :     0.081582
      py      :     0.075177
 32 C s       :     2.682818  s :     2.682818
      pz      :     0.888740  p :     2.690558
      px      :     0.905231
      py      :     0.896588
      dz2     :     0.151957  d :     0.658155
      dxz     :     0.108786
      dyz     :     0.185149
      dx2y2   :     0.123060
      dxy     :     0.089202
 33 H s       :     0.729536  s :     0.729536
      pz      :     0.117649  p :     0.246019
      px      :     0.066840
      py      :     0.061530
 34 H s       :     0.713598  s :     0.713598
      pz      :     0.084319  p :     0.280451
      px      :     0.124547
      py      :     0.071585
 35 H s       :     0.714684  s :     0.714684
      pz      :     0.077006  p :     0.263980
      px      :     0.075842
      py      :     0.111132
 36 H s       :     0.731649  s :     0.731649
      pz      :     0.064820  p :     0.243975
      px      :     0.067198
      py      :     0.111958
 37 H s       :     0.730331  s :     0.730331
      pz      :     0.071414  p :     0.247537
      px      :     0.080896
      py      :     0.095226
 38 H s       :     0.729041  s :     0.729041
      pz      :     0.062701  p :     0.246795
      px      :     0.119295
      py      :     0.064799
 39 O s       :     3.509313  s :     3.509313
      pz      :     1.372782  p :     4.648453
      px      :     1.640837
      py      :     1.634834
      dz2     :     0.089640  d :     0.295957
      dxz     :     0.073346
      dyz     :     0.079057
      dx2y2   :     0.015753
      dxy     :     0.038160


                      *****************************
                      * MAYER POPULATION ANALYSIS *
                      *****************************

  NA   - Mulliken gross atomic population
  ZA   - Total nuclear charge
  QA   - Mulliken gross atomic charge
  VA   - Mayer's total valence
  BVA  - Mayer's bonded valence
  FA   - Mayer's free valence

  ATOM       NA         ZA         QA         VA         BVA        FA
  0 C      4.9865     6.0000     1.0135     3.3859     3.3859    -0.0000
  1 N      6.7818     7.0000     0.2182     3.7773     3.7773    -0.0000
  2 C      5.8774     6.0000     0.1226     4.6968     4.6968     0.0000
  3 C      5.7976     6.0000     0.2024     4.1996     4.1996     0.0000
  4 H      0.9333     1.0000     0.0667     1.0380     1.0380    -0.0000
  5 H      0.9326     1.0000     0.0674     1.1131     1.1131     0.0000
  6 S     14.3379    16.0000     1.6621     4.4693     4.4693     0.0000
  7 C      5.0343     6.0000     0.9657     2.7102     2.7102    -0.0000
  8 C      5.4049     6.0000     0.5951     3.2168     3.2168     0.0000
  9 N      6.8206     7.0000     0.1794     3.6779     3.6779    -0.0000
 10 H      1.0584     1.0000    -0.0584     0.9275     0.9275    -0.0000
 11 H      1.1939     1.0000    -0.1939     0.8941     0.8941     0.0000
 12 H      2.0851     1.0000    -1.0851     0.1398     0.1398     0.0000
 13 H      1.4025     1.0000    -0.4025     0.6290     0.6290     0.0000
 14 H      1.6896     1.0000    -0.6896     0.6870     0.6870     0.0000
 15 O      8.6967     8.0000    -0.6967     1.7155     1.7155     0.0000
 16 F      9.5380     9.0000    -0.5380     0.6634     0.6634     0.0000
 17 C      5.7105     6.0000     0.2895     4.5176     4.5176     0.0000
 18 H      1.2829     1.0000    -0.2829     1.0140     1.0140    -0.0000
 19 H      1.1807     1.0000    -0.1807     0.9086     0.9086     0.0000
 20 C      6.0100     6.0000    -0.0100     4.9172     4.9172    -0.0000
 21 C      5.7885     6.0000     0.2115     4.7053     4.7053     0.0000
 22 H      0.9540     1.0000     0.0460     1.0793     1.0793     0.0000
 23 H      1.4958     1.0000    -0.4958     1.3780     1.3780     0.0000
 24 H      1.0631     1.0000    -0.0631     1.0138     1.0138     0.0000
 25 H      0.9308     1.0000     0.0692     1.1362     1.1362     0.0000
 26 C      5.8796     6.0000     0.1204     4.7244     4.7244     0.0000
 27 H      1.1488     1.0000    -0.1488     1.0714     1.0714     0.0000
 28 H      1.0302     1.0000    -0.0302     0.9882     0.9882     0.0000
 29 C      6.1606     6.0000    -0.1606     5.0602     5.0602     0.0000
 30 H      1.1501     1.0000    -0.1501     1.0635     1.0635     0.0000
 31 H      1.1182     1.0000    -0.1182     1.2312     1.2312     0.0000
 32 C      5.3776     6.0000     0.6224     3.8619     3.8619    -0.0000
 33 H      1.3259     1.0000    -0.3259     1.1745     1.1745     0.0000
 34 H      0.8499     1.0000     0.1501     1.0575     1.0575    -0.0000
 35 H      0.8770     1.0000     0.1230     1.0686     1.0686    -0.0000
 36 H      1.3125     1.0000    -0.3125     1.1213     1.1213     0.0000
 37 H      1.0282     1.0000    -0.0282     0.9836     0.9836    -0.0000
 38 H      0.9769     1.0000     0.0231     0.9798     0.9798     0.0000
 39 O      8.7771     8.0000    -0.7771     1.5653     1.5653    -0.0000

  Mayer bond orders larger than 0.100000
B(  0-C ,  1-N ) :   0.9287 B(  0-C , 12-H ) :  -0.5152 B(  0-C , 17-C ) :   1.0948 
B(  0-C , 18-H ) :   0.6682 B(  0-C , 19-H ) :   0.8720 B(  0-C , 27-H ) :   0.1040 
B(  1-N ,  7-C ) :   1.1403 B(  1-N ,  8-C ) :   0.1333 B(  1-N ,  9-N ) :   0.2947 
B(  1-N , 12-H ) :   0.9218 B(  1-N , 18-H ) :   0.2462 B(  2-C ,  3-C ) :   1.2622 
B(  2-C ,  5-H ) :   0.2626 B(  2-C , 20-C ) :   0.1003 B(  2-C , 21-C ) :   1.1284 
B(  2-C , 24-H ) :   0.8416 B(  2-C , 25-H ) :   0.8711 B(  3-C ,  4-H ) :   0.9120 
B(  3-C ,  5-H ) :   0.6989 B(  3-C ,  6-S ) :   0.9981 B(  3-C , 16-F ) :   0.1109 
B(  3-C , 25-H ) :   0.1027 B(  6-S , 15-O ) :   1.4293 B(  6-S , 16-F ) :   0.4589 
B(  6-S , 39-O ) :   1.3295 B(  7-C ,  8-C ) :   1.4225 B(  7-C ,  9-N ) :   0.7873 
B(  7-C , 12-H ) :  -0.7227 B(  7-C , 14-H ) :   0.1014 B(  8-C ,  9-N ) :   0.2983 
B(  8-C , 13-H ) :   0.4770 B(  8-C , 14-H ) :   0.7776 B(  9-N , 10-H ) :   0.9745 
B(  9-N , 11-H ) :   1.2099 B( 10-H , 11-H ) :  -0.1800 B( 12-H , 18-H ) :   0.1035 
B( 12-H , 39-O ) :   0.1412 B( 13-H , 14-H ) :  -0.1805 B( 13-H , 15-O ) :   0.1477 
B( 17-C , 18-H ) :   0.1172 B( 17-C , 19-H ) :   0.1036 B( 17-C , 26-C ) :   1.2121 
B( 17-C , 27-H ) :   0.9420 B( 17-C , 28-H ) :   0.7389 B( 17-C , 31-H ) :   0.1089 
B( 18-H , 19-H ) :  -0.1723 B( 20-C , 21-C ) :   1.2259 B( 20-C , 22-H ) :   0.1110 
B( 20-C , 32-C ) :   1.1361 B( 20-C , 35-H ) :   0.8588 B( 20-C , 36-H ) :   0.9689 
B( 20-C , 37-H ) :   0.1077 B( 20-C , 38-H ) :   0.2073 B( 21-C , 22-H ) :   0.7189 
B( 21-C , 23-H ) :   0.8501 B( 21-C , 24-H ) :   0.1829 B( 21-C , 36-H ) :   0.1894 
B( 22-H , 23-H ) :   0.2318 B( 23-H , 34-H ) :   0.1187 B( 26-C , 28-H ) :   0.2025 
B( 26-C , 29-C ) :   1.1991 B( 26-C , 30-H ) :   0.8790 B( 26-C , 31-H ) :   0.9257 
B( 26-C , 33-H ) :   0.1369 B( 29-C , 30-H ) :   0.1498 B( 29-C , 31-H ) :   0.1093 
B( 29-C , 32-C ) :   1.1367 B( 29-C , 33-H ) :   1.0501 B( 29-C , 34-H ) :   0.8408 
B( 29-C , 37-H ) :   0.2695 B( 29-C , 38-H ) :   0.1340 B( 32-C , 37-H ) :   0.6935 
B( 32-C , 38-H ) :   0.7140 

-------
TIMINGS
-------

Total SCF time: 0 days 0 hours 3 min 1 sec 

Total time                  ....     181.041 sec
Sum of individual times     ....     179.613 sec  ( 99.2%)

Fock matrix formation       ....     173.096 sec  ( 95.6%)
  Split-RI-J                ....       8.490 sec  (  4.9% of F)
  Chain of spheres X        ....     151.662 sec  ( 87.6% of F)
  XC integration            ....      12.403 sec  (  7.2% of F)
    Basis function eval.    ....       2.001 sec  ( 16.1% of XC)
    Density eval.           ....       2.944 sec  ( 23.7% of XC)
    XC-Functional eval.     ....       0.249 sec  (  2.0% of XC)
    XC-Potential eval.      ....       2.436 sec  ( 19.6% of XC)
Diagonalization             ....       0.768 sec  (  0.4%)
Density matrix formation    ....       0.067 sec  (  0.0%)
Population analysis         ....       0.104 sec  (  0.1%)
Initial guess               ....       0.802 sec  (  0.4%)
Orbital Transformation      ....       0.000 sec  (  0.0%)
Orbital Orthonormalization  ....       0.000 sec  (  0.0%)
DIIS solution               ....       0.452 sec  (  0.2%)
SOSCF solution              ....       0.674 sec  (  0.4%)
Grid generation             ....       3.650 sec  (  2.0%)

Maximum memory used throughout the entire SCF-calculation: 110.0 MB


-------------------------------------------------------------------------------
                          DFT DISPERSION CORRECTION                            
                                                                               
                              DFTD3 V3.1  Rev 1                                
                              USING zero damping                               
-------------------------------------------------------------------------------
The omegaB97X-D3 functional is recognized. Fit by Chai et al.
Active option DFTDOPT                   ...         3   

molecular C6(AA) [au] = 13770.515290 


            DFT-D V3
 parameters
 s6 scaling factor         :     1.0000 
 rs6 scaling factor        :     1.2810 
 s8 scaling factor         :     1.0000 
 rs8 scaling factor        :     1.0940 
 Damping factor alpha6     :    14.0000 
 Damping factor alpha8     :    16.0000 
 ad hoc parameters k1-k3   :    16.0000     1.3333    -4.0000 

 Edisp/kcal,au: -13.810555383170  -0.022008518566 
 E6   /kcal   :  -6.383164075 
 E8   /kcal   :  -7.427391308 
 % E8         :  53.780540335 

-------------------------   ----------------
Dispersion correction           -0.022008519
-------------------------   ----------------


-------------------------   --------------------
FINAL SINGLE POINT ENERGY     -1190.026509615850
-------------------------   --------------------


                            ***************************************
                            *     ORCA property calculations      *
                            ***************************************

                                    ---------------------
                                    Active property flags
                                    ---------------------
   (+) Dipole Moment


------------------------------------------------------------------------------
                       ORCA ELECTRIC PROPERTIES CALCULATION
------------------------------------------------------------------------------

Dipole Moment Calculation                       ... on
Quadrupole Moment Calculation                   ... off
Polarizability Calculation                      ... off
GBWName                                         ... new_SVPD_D5_wb97.gbw
Electron density file                           ... new_SVPD_D5_wb97.scfp
The origin for moment calculation is the CENTER OF MASS  = ( 8.524657, -1.074254 -8.852513)

-------------
DIPOLE MOMENT
-------------
                                X             Y             Z
Electronic contribution:    -20.61009       2.58453     -20.18500
Nuclear contribution   :     20.03262      -4.53368      20.24480
                        -----------------------------------------
Total Dipole Moment    :     -0.57746      -1.94915       0.05980
                        -----------------------------------------
Magnitude (a.u.)       :      2.03378
Magnitude (Debye)      :      5.16945



--------------------
Rotational spectrum 
--------------------
 
Rotational constants in cm-1:     0.014367     0.012055     0.007393 
Rotational constants in MHz :   430.711297   361.391195   221.649333 

 Dipole components along the rotational axes: 
x,y,z [a.u.] :    -0.934898     1.659911     0.711974 
x,y,z [Debye]:    -2.376322     4.219158     1.809693 

 

Timings for individual modules:

Sum of individual times         ...      182.919 sec (=   3.049 min)
GTO integral calculation        ...        1.402 sec (=   0.023 min)   0.8 %
SCF iterations                  ...      181.518 sec (=   3.025 min)  99.2 %
                             ****ORCA TERMINATED NORMALLY****
TOTAL RUN TIME: 0 days 0 hours 3 minutes 3 seconds 611 msec
