
                                        *****************
                                        * O   R   C   A *
                                        *****************

                                            #,                                       
                                            ###                                      
                                            ####                                     
                                            #####                                    
                                            ######                                   
                                           ########,                                 
                                     ,,################,,,,,                         
                               ,,#################################,,                 
                          ,,##########################################,,             
                       ,#########################################, ''#####,          
                    ,#############################################,,   '####,        
                  ,##################################################,,,,####,       
                ,###########''''           ''''###############################       
              ,#####''   ,,,,##########,,,,          '''####'''          '####       
            ,##' ,,,,###########################,,,                        '##       
           ' ,,###''''                  '''############,,,                           
         ,,##''                                '''############,,,,        ,,,,,,###''
      ,#''                                            '''#######################'''  
     '                                                          ''''####''''         
             ,#######,   #######,   ,#######,      ##                                
            ,#'     '#,  ##    ##  ,#'     '#,    #''#        ######   ,####,        
            ##       ##  ##   ,#'  ##            #'  '#       #        #'  '#        
            ##       ##  #######   ##           ,######,      #####,   #    #        
            '#,     ,#'  ##    ##  '#,     ,#' ,#      #,         ##   #,  ,#        
             '#######'   ##     ##  '#######'  #'      '#     #####' # '####'        



                  #######################################################
                  #                        -***-                        #
                  #          Department of theory and spectroscopy      #
                  #    Directorship and core code : Frank Neese         #
                  #        Max Planck Institute fuer Kohlenforschung    #
                  #                Kaiser Wilhelm Platz 1               #
                  #                 D-45470 Muelheim/Ruhr               #
                  #                      Germany                        #
                  #                                                     #
                  #                  All rights reserved                #
                  #                        -***-                        #
                  #######################################################


                         Program Version 5.0.0 -  RELEASE  -
                                (SVN: $Rev: 19529$)
                ($Date: 2021-06-28 11:36:33 +0200 (Mo, 28 Jun 2021) $)


 With contributions from (in alphabetic order):
   Daniel Aravena         : Magnetic Suceptibility
   Michael Atanasov       : Ab Initio Ligand Field Theory (pilot matlab implementation)
   Alexander A. Auer      : GIAO ZORA, VPT2 properties, NMR spectrum
   Ute Becker             : Parallelization
   Giovanni Bistoni       : ED, misc. LED, open-shell LED, HFLD
   Martin Brehm           : Molecular dynamics
   Dmytro Bykov           : SCF Hessian
   Vijay G. Chilkuri      : MRCI spin determinant printing, contributions to CSF-ICE
   Dipayan Datta          : RHF DLPNO-CCSD density
   Achintya Kumar Dutta   : EOM-CC, STEOM-CC
   Dmitry Ganyushin       : Spin-Orbit,Spin-Spin,Magnetic field MRCI
   Miquel Garcia          : C-PCM Hessian, Gaussian charge scheme
   Yang Guo               : DLPNO-NEVPT2, F12-NEVPT2, CIM, IAO-localization
   Andreas Hansen         : Spin unrestricted coupled pair/coupled cluster methods
   Benjamin Helmich-Paris : MC-RPA, TRAH-SCF, COSX integrals
   Lee Huntington         : MR-EOM, pCC
   Robert Izsak           : Overlap fitted RIJCOSX, COSX-SCS-MP3, EOM
   Marcus Kettner         : VPT2
   Christian Kollmar      : KDIIS, OOCD, Brueckner-CCSD(T), CCSD density, CASPT2, CASPT2-K
   Simone Kossmann        : Meta GGA functionals, TD-DFT gradient, OOMP2, MP2 Hessian
   Martin Krupicka        : Initial AUTO-CI
   Lucas Lang             : DCDCAS
   Marvin Lechner         : AUTO-CI (C++ implementation), FIC-MRCC
   Dagmar Lenk            : GEPOL surface, SMD
   Dimitrios Liakos       : Extrapolation schemes; Compound Job, initial MDCI parallelization
   Dimitrios Manganas     : Further ROCIS development; embedding schemes
   Dimitrios Pantazis     : SARC Basis sets
   Anastasios Papadopoulos: AUTO-CI, single reference methods and gradients
   Taras Petrenko         : DFT Hessian,TD-DFT gradient, ASA, ECA, R-Raman, ABS, FL, XAS/XES, NRVS
   Peter Pinski           : DLPNO-MP2, DLPNO-MP2 Gradient
   Christoph Reimann      : Effective Core Potentials
   Marius Retegan         : Local ZFS, SOC
   Christoph Riplinger    : Optimizer, TS searches, QM/MM, DLPNO-CCSD(T), (RO)-DLPNO pert. Triples
   Tobias Risthaus        : Range-separated hybrids, TD-DFT gradient, RPA, STAB
   Michael Roemelt        : Original ROCIS implementation
   Masaaki Saitow         : Open-shell DLPNO-CCSD energy and density
   Barbara Sandhoefer     : DKH picture change effects
   Avijit Sen             : IP-ROCIS
   Kantharuban Sivalingam : CASSCF convergence, NEVPT2, FIC-MRCI
   Bernardo de Souza      : ESD, SOC TD-DFT
   Georgi Stoychev        : AutoAux, RI-MP2 NMR
   Willem Van den Heuvel  : Paramagnetic NMR
   Boris Wezisla          : Elementary symmetry handling
   Frank Wennmohs         : Technical directorship


 We gratefully acknowledge several colleagues who have allowed us to
 interface, adapt or use parts of their codes:
   Stefan Grimme, W. Hujo, H. Kruse, P. Pracht,  : VdW corrections, initial TS optimization,
                  C. Bannwarth, S. Ehlert          DFT functionals, gCP, sTDA/sTD-DF
   Ed Valeev, F. Pavosevic, A. Kumar             : LibInt (2-el integral package), F12 methods
   Garnet Chan, S. Sharma, J. Yang, R. Olivares  : DMRG
   Ulf Ekstrom                                   : XCFun DFT Library
   Mihaly Kallay                                 : mrcc  (arbitrary order and MRCC methods)
   Jiri Pittner, Ondrej Demel                    : Mk-CCSD
   Frank Weinhold                                : gennbo (NPA and NBO analysis)
   Christopher J. Cramer and Donald G. Truhlar   : smd solvation model
   Lars Goerigk                                  : TD-DFT with DH, B97 family of functionals
   V. Asgeirsson, H. Jonsson                     : NEB implementation
   FAccTs GmbH                                   : IRC, NEB, NEB-TS, DLPNO-Multilevel, CI-OPT
                                                   MM, QMMM, 2- and 3-layer-ONIOM, Crystal-QMMM,
                                                   LR-CPCM, SF, NACMEs, symmetry and pop. for TD-DFT,
                                                   nearIR, NL-DFT gradient (VV10), updates on ESD,
                                                   ML-optimized integration grids
   S Lehtola, MJT Oliveira, MAL Marques          : LibXC Library
   Liviu Ungur et al                             : ANISO software


 Your calculation uses the libint2 library for the computation of 2-el integrals
 For citations please refer to: http://libint.valeyev.net

 Your ORCA version has been built with support for libXC version: 5.1.0
 For citations please refer to: https://tddft.org/programs/libxc/

 This ORCA versions uses:
   CBLAS   interface :  Fast vector & matrix operations
   LAPACKE interface :  Fast linear algebra routines
   SCALAPACK package :  Parallel linear algebra routines
   Shared memory     :  Shared parallel matrices
   BLAS/LAPACK       :  OpenBLAS 0.3.15  USE64BITINT DYNAMIC_ARCH NO_AFFINITY Haswell SINGLE_THREADED
        Core in use  :  Haswell
   Copyright (c) 2011-2014, The OpenBLAS Project




***************************************
The coordinates will be read from file: D9.xyz
***************************************


Your calculation utilizes the atom-pairwise dispersion correction
with the zero-damping scheme (D30)
Cite in your paper:
S.Grimme, J.Antony, S.Ehrlich and H.Krieg, J.Chem.Phys., 132, (2010), 154104 
   

XCFun DFT library Copyright 2009-2010 Ulf Ekstrom and contributors.
See http://admol.org/xcfun for more information.
This is free software; see the source code for copying conditions.
There is ABSOLUTELY NO WARRANTY; not even for MERCHANTABILITY or FITNESS FOR A PARTICULAR PURPOSE.
For details see the documentation.
Scientific users of this library should cite U. Ekstrom, L. Visscher, R. Bast, A. J. Thorvaldsen and K. Ruud;
J.Chem.Theor.Comp. 2010, DOI: 10.1021/ct100117s
XCFun Version 0.99 

================================================================================

----- Orbital basis set information -----
Your calculation utilizes the basis: def2-SVPD
   F. Weigend and R. Ahlrichs, Phys. Chem. Chem. Phys. 7, 3297 (2005).
   D. Rappoport and F. Furche, J. Chem. Phys. 133 134105 (2010).

----- AuxJ basis set information -----
Your calculation utilizes the auxiliary basis: def2/J
   F. Weigend, Phys. Chem. Chem. Phys. 8, 1057 (2006).

================================================================================
                                        WARNINGS
                       Please study these warnings very carefully!
================================================================================


INFO   : the flag for use of the SHARK integral package has been found!

================================================================================
                                       INPUT FILE
================================================================================
NAME = new_SVPD_D9_wb97.com
|  1> !wB97X-D3 RIJCOSX def2-SVPD def2/J TightSCF xyzfile                                                                                         
|  2> 
|  3> *xyzfile 0 1 D9.xyz
|  4> 
|  5> %MaxCore 64000
|  6> 
|  7> %pal nprocs 18
|  8> end  
|  9> 
| 10> %scf
| 11>   MaxIter 150
| 12> end
| 13> 
| 14> 
| 15>                          ****END OF INPUT****
================================================================================

                       ****************************
                       * Single Point Calculation *
                       ****************************

---------------------------------
CARTESIAN COORDINATES (ANGSTROEM)
---------------------------------
  C      4.490588    1.155899   -2.469290
  N      4.305394    1.222762   -3.908317
  C      4.906458   -3.102816   -5.954844
  C      3.511771   -2.806215   -6.492283
  H      2.736044   -3.373445   -5.973736
  H      3.444904   -3.040831   -7.555281
  S      3.004618   -1.096206   -6.389259
  C      4.631918    2.246365   -4.670958
  N      4.541686    2.143990   -5.987139
  C      5.084086    3.393584   -4.118545
  H      4.920675    3.570501   -3.135870
  H      5.254652    4.197390   -4.706956
  H      3.824530    0.449113   -4.350926
  H      4.343373    1.249318   -6.416646
  H      4.676712    2.956624   -6.574113
  O      4.128856   -0.329647   -6.953717
  O      1.781285   -1.000779   -7.136399
  C      5.942129    0.939500   -2.036893
  H      3.864305    0.328532   -2.136611
  H      4.076233    2.049994   -1.989010
  C      6.462677   -3.117775   -3.944671
  C      5.024977   -3.025679   -4.437625
  H      4.423321   -3.818693   -3.977648
  H      4.579350   -2.087131   -4.108727
  H      5.201533   -4.100207   -6.296905
  H      5.605922   -2.397822   -6.413368
  C      6.559957   -0.356290   -2.559086
  H      5.967976    0.952567   -0.942444
  H      6.547184    1.788331   -2.368849
  C      6.006283   -1.615917   -1.899301
  H      7.642360   -0.318000   -2.402059
  H      6.414855   -0.403433   -3.642587
  C      6.608718   -2.917014   -2.435655
  H      6.190324   -1.561115   -0.820948
  H      4.919250   -1.651245   -2.016586
  H      7.066975   -2.374258   -4.475514
  H      6.887808   -4.089747   -4.215332
  H      6.135197   -3.755573   -1.915159
  H      7.671142   -2.955503   -2.172291
  F      2.851546   -0.783683   -4.956789

----------------------------
CARTESIAN COORDINATES (A.U.)
----------------------------
  NO LB      ZA    FRAG     MASS         X           Y           Z
   0 C     6.0000    0    12.011    8.485982    2.184332   -4.666282
   1 N     7.0000    0    14.007    8.136015    2.310685   -7.385649
   2 C     6.0000    0    12.011    9.271862   -5.863473  -11.253025
   3 C     6.0000    0    12.011    6.636285   -5.302977  -12.268638
   4 H     1.0000    0     1.008    5.170374   -6.374888  -11.288724
   5 H     1.0000    0     1.008    6.509926   -5.746338  -14.277412
   6 S    16.0000    0    32.060    5.677904   -2.071530  -12.073950
   7 C     6.0000    0    12.011    8.753057    4.245015   -8.826831
   8 N     7.0000    0    14.007    8.582543    4.051553  -11.314052
   9 C     6.0000    0    12.011    9.607530    6.412945   -7.782923
  10 H     1.0000    0     1.008    9.298728    6.747268   -5.925936
  11 H     1.0000    0     1.008    9.929852    7.931917   -8.894858
  12 H     1.0000    0     1.008    7.227314    0.848701   -8.222058
  13 H     1.0000    0     1.008    8.207786    2.360868  -12.125704
  14 H     1.0000    0     1.008    8.837705    5.587209  -12.423274
  15 O     8.0000    0    15.999    7.802408   -0.622942  -13.140621
  16 O     8.0000    0    15.999    3.366140   -1.891199  -13.485840
  17 C     6.0000    0    12.011   11.228997    1.775397   -3.849170
  18 H     1.0000    0     1.008    7.302479    0.620836   -4.037610
  19 H     1.0000    0     1.008    7.702964    3.873927   -3.758685
  20 C     6.0000    0    12.011   12.212689   -5.891741   -7.454347
  21 C     6.0000    0    12.011    9.495831   -5.717705   -8.385896
  22 H     1.0000    0     1.008    8.358866   -7.216284   -7.516666
  23 H     1.0000    0     1.008    8.653718   -3.944106   -7.764369
  24 H     1.0000    0     1.008    9.829473   -7.748269  -11.899427
  25 H     1.0000    0     1.008   10.593657   -4.531226  -12.119509
  26 C     6.0000    0    12.011   12.396522   -0.673291   -4.835971
  27 H     1.0000    0     1.008   11.277840    1.800090   -1.780961
  28 H     1.0000    0     1.008   12.372385    3.379455   -4.476477
  29 C     6.0000    0    12.011   11.350230   -3.053641   -3.589158
  30 H     1.0000    0     1.008   14.441966   -0.600934   -4.539234
  31 H     1.0000    0     1.008   12.122318   -0.762378   -6.883492
  32 C     6.0000    0    12.011   12.488666   -5.512358   -4.602721
  33 H     1.0000    0     1.008   11.698016   -2.950080   -1.551366
  34 H     1.0000    0     1.008    9.296035   -3.120400   -3.810796
  35 H     1.0000    0     1.008   13.354648   -4.486697   -8.457496
  36 H     1.0000    0     1.008   13.016070   -7.728501   -7.965822
  37 H     1.0000    0     1.008   11.593841   -7.097005   -3.619127
  38 H     1.0000    0     1.008   14.496357   -5.585092   -4.105035
  39 F     9.0000    0    18.998    5.388641   -1.480946   -9.366974

--------------------------------
INTERNAL COORDINATES (ANGSTROEM)
--------------------------------
 C      0   0   0     0.000000000000     0.00000000     0.00000000
 N      1   0   0     1.452434888732     0.00000000     0.00000000
 C      2   1   0     4.822880648060   111.29935464     0.00000000
 C      3   2   1     1.523799819616    82.01111056   124.72570022
 H      4   3   2     1.091968299252   112.43309611   255.51929182
 H      4   3   2     1.090632873150   110.97759244   134.54655122
 S      4   3   2     1.786602224664   115.19977359    16.50892478
 C      2   1   3     1.317574833962   125.28497018   214.05519914
 N      8   2   1     1.323236350905   119.91604121   173.18858040
 C      8   2   1     1.351194480527   120.39094198   354.48825376
 H     10   8   2     1.011757151303   119.43893893   342.13916756
 H     10   8   2     1.010654769343   119.58539038   185.29571941
 H      2   1   3     1.012750840265   117.28239304    38.84614007
 H      9   8   2     1.012048706728   120.25757225   351.78674532
 H      9   8   2     1.011506480060   120.39405507   172.23609159
 O      7   4   3     1.473139212620   105.02973514    49.07238667
 O      7   4   3     1.436617023222   105.98041552   170.73821441
 C      1   2   3     1.529956533456   114.04751046    71.27147181
 H      1   2   3     1.089697165343   105.31628314   309.84494500
 H      1   2   3     1.096250554262   110.38499465   196.36075284
 C      3   2   1     2.542211031985    75.28786529   328.63877310
 C     21   3   2     1.522650424266    33.45203408    62.46988994
 H     22  21   3     1.096558425421   109.78678321   123.00138599
 H     22  21   3     1.089784085482   109.90626334   238.94967961
 H      3   2   1     1.094926392967   169.46526939   316.66150389
 H      3   2   1     1.093851646948    71.30795148   237.06279558
 C     18   1   2     1.527569327213   114.02213033   299.75436756
 H     18   1   2     1.094832037269   107.65179087   177.40351951
 H     18   1   2     1.093983651653   109.22173402    62.36298160
 C     27  18   1     1.525952470352   113.93276277   288.90034571
 H     27  18   1     1.094403426518   108.74093275   167.10616769
 H     27  18   1     1.094190161747   108.74874272    52.17399198
 C     21   3   2     1.529300762752   146.92063230    53.80488115
 H     30  27  18     1.095317124906   108.86941482   300.75108730
 H     30  27  18     1.093912987644   109.92906200    56.35085961
 H     21   3   2     1.095348999413    87.16372703   291.04892433
 H     21   3   2     1.094861915024    92.71949470   185.57163885
 H     33  21   3     1.094677724411   109.10507473    72.09358689
 H     33  21   3     1.095256828209   108.98305469   187.60350442
 F      7   4   3     1.474133937430   106.76381078   292.33403201

---------------------------
INTERNAL COORDINATES (A.U.)
---------------------------
 C      0   0   0     0.000000000000     0.00000000     0.00000000
 N      1   0   0     2.744704167055     0.00000000     0.00000000
 C      2   1   0     9.113923601421   111.29935464     0.00000000
 C      3   2   1     2.879564341994    82.01111056   124.72570022
 H      4   3   2     2.063521032510   112.43309611   255.51929182
 H      4   3   2     2.060997442905   110.97759244   134.54655122
 S      4   3   2     3.376188914869   115.19977359    16.50892478
 C      2   1   3     2.489855597135   125.28497018   214.05519914
 N      8   2   1     2.500554313659   119.91604121   173.18858040
 C      8   2   1     2.553387521862   120.39094198   354.48825376
 H     10   8   2     1.911943930000   119.43893893   342.13916756
 H     10   8   2     1.909860730000   119.58539038   185.29571941
 H      2   1   3     1.913821729999   117.28239304    38.84614007
 H      9   8   2     1.912494889904   120.25757225   351.78674532
 H      9   8   2     1.911470230000   120.39405507   172.23609159
 O      7   4   3     2.783829668993   105.02973514    49.07238667
 O      7   4   3     2.714812733219   105.98041552   170.73821441
 C      1   2   3     2.891198845036   114.04751046    71.27147181
 H      1   2   3     2.059229211409   105.31628314   309.84494500
 H      1   2   3     2.071613321715   110.38499465   196.36075284
 C      3   2   1     4.804082625084    75.28786529   328.63877310
 C     21   3   2     2.877392299561    33.45203408    62.46988994
 H     22  21   3     2.072195113889   109.78678321   123.00138599
 H     22  21   3     2.059393466667   109.90626334   238.94967961
 H      3   2   1     2.069111019509   169.46526939   316.66150389
 H      3   2   1     2.067080043870    71.30795148   237.06279558
 C     18   1   2     2.886687679010   114.02213033   299.75436756
 H     18   1   2     2.068932713082   107.65179087   177.40351951
 H     18   1   2     2.067329496612   109.22173402    62.36298160
 C     27  18   1     2.883632262346   113.93276277   288.90034571
 H     27  18   1     2.068122756144   108.74093275   167.10616769
 H     27  18   1     2.067719744133   108.74874272    52.17399198
 C     21   3   2     2.889959617997   146.92063230    53.80488115
 H     30  27  18     2.069849395866   108.86941482   300.75108730
 H     30  27  18     2.067195960987   109.92906200    56.35085961
 H     21   3   2     2.069909629955    87.16372703   291.04892433
 H     21   3   2     2.068989173855    92.71949470   185.57163885
 H     33  21   3     2.068641104040   109.10507473    72.09358689
 H     33  21   3     2.069735451623   108.98305469   187.60350442
 F      7   4   3     2.785709426462   106.76381078   292.33403201

---------------------
BASIS SET INFORMATION
---------------------
There are 6 groups of distinct atoms

 Group   1 Type C   : 8s4p2d contracted to 4s2p2d pattern {5111/31/11}
 Group   2 Type N   : 8s4p2d contracted to 4s2p2d pattern {5111/31/11}
 Group   3 Type H   : 4s2p contracted to 2s2p pattern {31/11}
 Group   4 Type S   : 11s8p2d contracted to 5s4p2d pattern {53111/5111/11}
 Group   5 Type O   : 8s5p2d contracted to 4s3p2d pattern {5111/311/11}
 Group   6 Type F   : 8s5p2d contracted to 4s3p2d pattern {5111/311/11}

Atom   0C    basis set group =>   1
Atom   1N    basis set group =>   2
Atom   2C    basis set group =>   1
Atom   3C    basis set group =>   1
Atom   4H    basis set group =>   3
Atom   5H    basis set group =>   3
Atom   6S    basis set group =>   4
Atom   7C    basis set group =>   1
Atom   8N    basis set group =>   2
Atom   9C    basis set group =>   1
Atom  10H    basis set group =>   3
Atom  11H    basis set group =>   3
Atom  12H    basis set group =>   3
Atom  13H    basis set group =>   3
Atom  14H    basis set group =>   3
Atom  15O    basis set group =>   5
Atom  16O    basis set group =>   5
Atom  17C    basis set group =>   1
Atom  18H    basis set group =>   3
Atom  19H    basis set group =>   3
Atom  20C    basis set group =>   1
Atom  21C    basis set group =>   1
Atom  22H    basis set group =>   3
Atom  23H    basis set group =>   3
Atom  24H    basis set group =>   3
Atom  25H    basis set group =>   3
Atom  26C    basis set group =>   1
Atom  27H    basis set group =>   3
Atom  28H    basis set group =>   3
Atom  29C    basis set group =>   1
Atom  30H    basis set group =>   3
Atom  31H    basis set group =>   3
Atom  32C    basis set group =>   1
Atom  33H    basis set group =>   3
Atom  34H    basis set group =>   3
Atom  35H    basis set group =>   3
Atom  36H    basis set group =>   3
Atom  37H    basis set group =>   3
Atom  38H    basis set group =>   3
Atom  39F    basis set group =>   6
---------------------------------
AUXILIARY/J BASIS SET INFORMATION
---------------------------------
There are 6 groups of distinct atoms

 Group   1 Type C   : 12s5p4d2f1g contracted to 6s4p3d1f1g pattern {711111/2111/211/2/1}
 Group   2 Type N   : 12s5p4d2f1g contracted to 6s4p3d1f1g pattern {711111/2111/211/2/1}
 Group   3 Type H   : 5s2p1d contracted to 3s1p1d pattern {311/2/1}
 Group   4 Type S   : 14s5p5d2f1g contracted to 8s4p3d1f1g pattern {71111111/2111/311/2/1}
 Group   5 Type O   : 12s5p4d2f1g contracted to 6s4p3d1f1g pattern {711111/2111/211/2/1}
 Group   6 Type F   : 12s5p4d2f1g contracted to 6s4p3d1f1g pattern {711111/2111/211/2/1}

Atom   0C    basis set group =>   1
Atom   1N    basis set group =>   2
Atom   2C    basis set group =>   1
Atom   3C    basis set group =>   1
Atom   4H    basis set group =>   3
Atom   5H    basis set group =>   3
Atom   6S    basis set group =>   4
Atom   7C    basis set group =>   1
Atom   8N    basis set group =>   2
Atom   9C    basis set group =>   1
Atom  10H    basis set group =>   3
Atom  11H    basis set group =>   3
Atom  12H    basis set group =>   3
Atom  13H    basis set group =>   3
Atom  14H    basis set group =>   3
Atom  15O    basis set group =>   5
Atom  16O    basis set group =>   5
Atom  17C    basis set group =>   1
Atom  18H    basis set group =>   3
Atom  19H    basis set group =>   3
Atom  20C    basis set group =>   1
Atom  21C    basis set group =>   1
Atom  22H    basis set group =>   3
Atom  23H    basis set group =>   3
Atom  24H    basis set group =>   3
Atom  25H    basis set group =>   3
Atom  26C    basis set group =>   1
Atom  27H    basis set group =>   3
Atom  28H    basis set group =>   3
Atom  29C    basis set group =>   1
Atom  30H    basis set group =>   3
Atom  31H    basis set group =>   3
Atom  32C    basis set group =>   1
Atom  33H    basis set group =>   3
Atom  34H    basis set group =>   3
Atom  35H    basis set group =>   3
Atom  36H    basis set group =>   3
Atom  37H    basis set group =>   3
Atom  38H    basis set group =>   3
Atom  39F    basis set group =>   6


           ************************************************************
           *        Program running with 18 parallel MPI-processes    *
           *              working on a common directory               *
           ************************************************************
------------------------------------------------------------------------------
                           ORCA GTO INTEGRAL CALCULATION
                           -- RI-GTO INTEGRALS CHOSEN --
------------------------------------------------------------------------------
------------------------------------------------------------------------------
                   ___                                                        
                  /   \      - P O W E R E D   B Y -                         
                 /     \                                                     
                 |  |  |   _    _      __       _____    __    __             
                 |  |  |  | |  | |    /  \     |  _  \  |  |  /  |          
                  \  \/   | |  | |   /    \    | | | |  |  | /  /          
                 / \  \   | |__| |  /  /\  \   | |_| |  |  |/  /          
                |  |  |   |  __  | /  /__\  \  |    /   |      \           
                |  |  |   | |  | | |   __   |  |    \   |  |\   \          
                \     /   | |  | | |  |  |  |  | |\  \  |  | \   \       
                 \___/    |_|  |_| |__|  |__|  |_| \__\ |__|  \__/        
                                                                              
                      - O R C A' S   B I G   F R I E N D -                    
                                      &                                       
                       - I N T E G R A L  F E E D E R -                       
                                                                              
 v1 FN, 2020, v2 2021                                                         
------------------------------------------------------------------------------


Reading SHARK input file new_SVPD_D9_wb97.SHARKINP.tmp ... ok
----------------------
SHARK INTEGRAL PACKAGE
----------------------

Number of atoms                             ...     40
Number of basis functions                   ...    540
Number of shells                            ...    234
Maximum angular momentum                    ...      2
Integral batch strategy                     ... SHARK/LIBINT Hybrid
RI-J (if used) integral strategy            ... SPLIT-RIJ (Revised 2003 algorithm where possible)
Printlevel                                  ...      1
Contraction scheme used                     ... SEGMENTED contraction
Coulomb Range Separation                    ... NOT USED
Exchange Range Separation                   ... Long Range
   Mu parameter                             ...  0.250000
   Scaling (regular/separated)              ...  0.195728  0.804272
Finite Nucleus Model                        ... NOT USED
Auxiliary Coulomb fitting basis             ... AVAILABLE
   # of basis functions in Aux-J            ...   1088
   # of shells in Aux-J                     ...    372
   Maximum angular momentum in Aux-J        ...      4
Auxiliary J/K fitting basis                 ... NOT available
Auxiliary Correlation fitting basis         ... NOT available
Auxiliary 'external' fitting basis          ... NOT available
Integral threshold                          ...     2.500000e-11
Primitive cut-off                           ...     2.500000e-12
Primitive pair pre-selection threshold      ...     2.500000e-12

Calculating pre-screening integrals         ... done (  0.2 sec) Dimension = 234
Organizing shell pair data                  ... done (  0.3 sec)
Shell pair information
Total number of shell pairs                 ...     27495
Shell pairs after pre-screening             ...     24637
Total number of primitive shell pairs       ...     74991
Primitive shell pairs kept                  ...     49980
          la=0 lb=0:   5934 shell pairs
          la=1 lb=0:   8769 shell pairs
          la=1 lb=1:   3282 shell pairs
          la=2 lb=0:   3511 shell pairs
          la=2 lb=1:   2605 shell pairs
          la=2 lb=2:    536 shell pairs

Calculating one electron integrals          ... done (  0.0 sec)
Calculating RI/J V-Matrix + Cholesky decomp.... done (  0.3 sec)
Calculating Nuclear repulsion               ... done (  0.0 sec) ENN=   1577.324071640470 Eh

SHARK setup successfully completed in   1.0 seconds

Maximum memory used throughout the entire GTOINT-calculation: 36.0 MB


           ************************************************************
           *        Program running with 18 parallel MPI-processes    *
           *              working on a common directory               *
           ************************************************************
-------------------------------------------------------------------------------
                                 ORCA SCF
-------------------------------------------------------------------------------

------------
SCF SETTINGS
------------
Hamiltonian:
 Density Functional     Method          .... DFT(GTOs)
 Exchange Functional    Exchange        .... WB97X-D3
 Correlation Functional Correlation     .... WB97X-D3
 Gradients option       PostSCFGGA      .... off
 Hybrid DFT is turned on
   Fraction HF Exchange ScalHFX         ....  0.195728
   Scaling of DF-GGA-X  ScalDFX         ....  0.000000
   Scaling of DF-GGA-C  ScalDFC         ....  1.000000
   Scaling of DF-LDA-C  ScalLDAC        ....  1.000000
   Perturbative correction              ....  0.000000
   Density functional embedding theory  .... OFF
 Long-range corrected/Screened/Range-Separated Hybrid DFT is turned on
   Amount of maximum screened exact exchange              ....  0.804272
   Range separation parameter mu (erf(mu*r12)/r12)        ....  0.250000
 RI-approximation to the Coulomb term is turned on
   Number of AuxJ basis functions       .... 1088
   RIJ-COSX (HFX calculated with COS-X)).... on


General Settings:
 Integral files         IntName         .... new_SVPD_D9_wb97
 Hartree-Fock type      HFTyp           .... RHF
 Total Charge           Charge          ....    0
 Multiplicity           Mult            ....    1
 Number of Electrons    NEL             ....  144
 Basis Dimension        Dim             ....  540
 Nuclear Repulsion      ENuc            ....   1577.3240716405 Eh

Convergence Acceleration:
 DIIS                   CNVDIIS         .... on
   Start iteration      DIISMaxIt       ....    12
   Startup error        DIISStart       ....  0.200000
   # of expansion vecs  DIISMaxEq       ....     5
   Bias factor          DIISBfac        ....   1.050
   Max. coefficient     DIISMaxC        ....  10.000
 Trust-Rad. Augm. Hess. CNVTRAH         .... auto
   Auto Start mean grad. ratio tolernc. ....  1.125000
   Auto Start start iteration           ....    20
   Auto Start num. interpolation iter.  ....    10
   Max. Number of Micro iterations      ....    16
   Max. Number of Macro iterations      .... Maxiter - #DIIS iter
   Number of Davidson start vectors     ....     2
   Converg. threshold I  (grad. norm)   ....   1.000e-05
   Converg. threshold II (energy diff.) ....   1.000e-08
   Grad. Scal. Fac. for Micro threshold ....   0.100
   Minimum threshold for Micro iter.    ....   0.010
   NR start threshold (gradient norm)   ....   0.001
   Initial trust radius                 ....   0.400
   Minimum AH scaling param. (alpha)    ....   1.000
   Maximum AH scaling param. (alpha)    .... 1000.000
   Orbital update algorithm             .... Taylor
   White noise on init. David. guess    .... on
   Maximum white noise                  ....   0.010
   Quad. conv. algorithm                .... NR
 SOSCF                  CNVSOSCF        .... on
   Start iteration      SOSCFMaxIt      ....   150
   Startup grad/error   SOSCFStart      ....  0.003300
 Level Shifting         CNVShift        .... on
   Level shift para.    LevelShift      ....    0.2500
   Turn off err/grad.   ShiftErr        ....    0.0010
 Zerner damping         CNVZerner       .... off
 Static damping         CNVDamp         .... on
   Fraction old density DampFac         ....    0.7000
   Max. Damping (<1)    DampMax         ....    0.9800
   Min. Damping (>=0)   DampMin         ....    0.0000
   Turn off err/grad.   DampErr         ....    0.1000
 Fernandez-Rico         CNVRico         .... off

SCF Procedure:
 Maximum # iterations   MaxIter         ....   150
 SCF integral mode      SCFMode         .... Direct
   Integral package                     .... SHARK and LIBINT hybrid scheme
 Reset frequency        DirectResetFreq ....    20
 Integral Threshold     Thresh          ....  2.500e-11 Eh
 Primitive CutOff       TCut            ....  2.500e-12 Eh

Convergence Tolerance:
 Convergence Check Mode ConvCheckMode   .... Total+1el-Energy
 Convergence forced     ConvForced      .... 0
 Energy Change          TolE            ....  1.000e-08 Eh
 1-El. energy change                    ....  1.000e-05 Eh
 Orbital Gradient       TolG            ....  1.000e-05
 Orbital Rotation angle TolX            ....  1.000e-05
 DIIS Error             TolErr          ....  5.000e-07


Diagonalization of the overlap matrix:
Smallest eigenvalue                        ... 1.647e-05
Time for diagonalization                   ...    0.081 sec
Threshold for overlap eigenvalues          ... 1.000e-08
Number of eigenvalues below threshold      ... 0
Time for construction of square roots      ...    0.226 sec
Total time needed                          ...    0.311 sec

Time for model grid setup =    0.327 sec

------------------------------
INITIAL GUESS: MODEL POTENTIAL
------------------------------
Loading Hartree-Fock densities                     ... done
Calculating cut-offs                               ... done
Initializing the effective Hamiltonian             ... done
Setting up the integral package (SHARK)            ... done
Starting the Coulomb interaction                   ... done (   0.3 sec)
Reading the grid                                   ... done
Mapping shells                                     ... done
Starting the XC term evaluation                    ... done (   0.3 sec)
  promolecular density results
     # of electrons  =    143.981674864
     EX              =   -127.653254753
     EC              =     -4.951139725
     EX+EC           =   -132.604394477
Transforming the Hamiltonian                       ... done (   0.1 sec)
Diagonalizing the Hamiltonian                      ... done (   0.1 sec)
Back transforming the eigenvectors                 ... done (   0.0 sec)
Now organizing SCF variables                       ... done
                      ------------------
                      INITIAL GUESS DONE (   1.1 sec)
                      ------------------
-------------------
DFT GRID GENERATION
-------------------

General Integration Accuracy     IntAcc      ... 4.388
Radial Grid Type                 RadialGrid  ... OptM3 with GC (2021)
Angular Grid (max. ang.)         AngularGrid ... 4 (Lebedev-302)
Angular grid pruning method      GridPruning ... 4 (adaptive)
Weight generation scheme         WeightScheme... Becke
Basis function cutoff            BFCut       ... 1.0000e-11
Integration weight cutoff        WCut        ... 1.0000e-14
Angular grids for H and He will be reduced by one unit
Partially contracted basis set               ... off
Rotationally invariant grid construction     ... off

Total number of grid points                  ...   179861
Total number of batches                      ...     2830
Average number of points per batch           ...       63
Average number of grid points per atom       ...     4497
Time for grid setup =    1.532 sec

--------------------
COSX GRID GENERATION
--------------------

GRIDX 1
-------
General Integration Accuracy     IntAcc      ... 3.816
Radial Grid Type                 RadialGrid  ... OptM3 with GC (2021)
Angular Grid (max. ang.)         AngularGrid ... 1 (Lebedev-50)
Angular grid pruning method      GridPruning ... 4 (adaptive)
Weight generation scheme         WeightScheme... Becke
Basis function cutoff            BFCut       ... 1.0000e-11
Integration weight cutoff        WCut        ... 1.0000e-14
Angular grids for H and He will be reduced by one unit
Partially contracted basis set               ... on
Rotationally invariant grid construction     ... off

Total number of grid points                  ...    22375
Total number of batches                      ...      375
Average number of points per batch           ...       59
Average number of grid points per atom       ...      559
UseSFitting                                  ... on

GRIDX 2
-------
General Integration Accuracy     IntAcc      ... 4.020
Radial Grid Type                 RadialGrid  ... OptM3 with GC (2021)
Angular Grid (max. ang.)         AngularGrid ... 2 (Lebedev-110)
Angular grid pruning method      GridPruning ... 4 (adaptive)
Weight generation scheme         WeightScheme... Becke
Basis function cutoff            BFCut       ... 1.0000e-11
Integration weight cutoff        WCut        ... 1.0000e-14
Angular grids for H and He will be reduced by one unit
Partially contracted basis set               ... on
Rotationally invariant grid construction     ... off

Total number of grid points                  ...    49164
Total number of batches                      ...      787
Average number of points per batch           ...       62
Average number of grid points per atom       ...     1229
UseSFitting                                  ... on

GRIDX 3
-------
General Integration Accuracy     IntAcc      ... 4.338
Radial Grid Type                 RadialGrid  ... OptM3 with GC (2021)
Angular Grid (max. ang.)         AngularGrid ... 3 (Lebedev-194)
Angular grid pruning method      GridPruning ... 4 (adaptive)
Weight generation scheme         WeightScheme... Becke
Basis function cutoff            BFCut       ... 1.0000e-11
Integration weight cutoff        WCut        ... 1.0000e-14
Angular grids for H and He will be reduced by one unit
Partially contracted basis set               ... on
Rotationally invariant grid construction     ... off

Total number of grid points                  ...   110479
Total number of batches                      ...     1747
Average number of points per batch           ...       63
Average number of grid points per atom       ...     2762
UseSFitting                                  ... on

Time for X-Grid setup             =    1.742 sec

--------------
SCF ITERATIONS
--------------
ITER       Energy         Delta-E        Max-DP      RMS-DP      [F,P]     Damp
               ***  Starting incremental Fock matrix formation  ***
  0  -1189.3265341821   0.000000000000 0.30731404  0.00275829  0.2684175 0.7000
  1  -1189.6261860097  -0.299651827621 0.17754061  0.00185526  0.1377662 0.7000
                               ***Turning on DIIS***
  2  -1189.7639874345  -0.137801424865 0.40594968  0.00374486  0.0713934 0.0000
  3  -1189.9877168304  -0.223729395854 0.12587117  0.00117362  0.0582080 0.0000
  4  -1190.0250655840  -0.037348753573 0.02260545  0.00028657  0.0134047 0.0000
  5  -1190.0262600094  -0.001194425411 0.00794901  0.00009771  0.0077839 0.0000
                      *** Initiating the SOSCF procedure ***
                           *** Shutting down DIIS ***
                      *** Re-Reading the Fockian *** 
                      *** Removing any level shift *** 
ITER      Energy       Delta-E        Grad      Rot      Max-DP    RMS-DP
  6  -1190.02647488  -0.0002148700  0.000556  0.000556  0.006401  0.000054
               *** Restarting incremental Fock matrix formation ***
  7  -1190.02664318  -0.0001682975  0.000136  0.000240  0.012541  0.000154
  8  -1190.02664512  -0.0000019395  0.000171  0.000303  0.003831  0.000035
  9  -1190.02664722  -0.0000021050  0.000037  0.000111  0.001083  0.000019
 10  -1190.02664728  -0.0000000619  0.000012  0.000039  0.000343  0.000006
 11  -1190.02664732  -0.0000000370  0.000004  0.000013  0.000283  0.000003
                  ***Gradient check signals convergence***
              ***Rediagonalizing the Fockian in SOSCF/NRSCF***

               *****************************************************
               *                     SUCCESS                       *
               *           SCF CONVERGED AFTER  12 CYCLES          *
               *****************************************************

Old exchange energy                            =    -40.951134042 Eh
New exchange energy                            =    -40.951186176 Eh
Exchange energy change after final integration =     -0.000052134 Eh
Total energy after final integration           =  -1190.026699467 Eh
Final COS-X integration done in                =    30.231 sec

----------------
TOTAL SCF ENERGY
----------------

Total Energy       :        -1190.02669947 Eh          -32382.27278 eV

Components:
Nuclear Repulsion  :         1577.32407164 Eh           42921.17006 eV
Electronic Energy  :        -2767.35077111 Eh          -75303.44283 eV
One Electron Energy:        -4760.98184535 Eh         -129552.90235 eV
Two Electron Energy:         1993.63107424 Eh           54249.45952 eV
Max COSX asymmetry :            0.00000745 Eh               0.00020 eV

Virial components:
Potential Energy   :        -2371.10177947 Eh          -64520.95960 eV
Kinetic Energy     :         1181.07508000 Eh           32138.68683 eV
Virial Ratio       :            2.00757921


DFT components:
N(Alpha)           :       71.999794215166 electrons
N(Beta)            :       71.999794215166 electrons
N(Total)           :      143.999588430332 electrons
E(XC)              :      -94.561153065174 Eh       
DFET-embed. en.    :        0.000000000000 Eh       

---------------
SCF CONVERGENCE
---------------

  Last Energy change         ...   -1.2786e-08  Tolerance :   1.0000e-08
  Last MAX-Density change    ...    4.8850e-15  Tolerance :   1.0000e-07
  Last RMS-Density change    ...    3.6151e-17  Tolerance :   5.0000e-09
  Last Orbital Gradient      ...    2.1503e-06  Tolerance :   1.0000e-05
  Last Orbital Rotation      ...    1.4873e-06  Tolerance :   1.0000e-05

             **** THE GBW FILE WAS UPDATED (new_SVPD_D9_wb97.gbw) ****
             **** DENSITY new_SVPD_D9_wb97.scfp WAS UPDATED ****
             **** ENERGY FILE WAS UPDATED (new_SVPD_D9_wb97.en.tmp) ****
             **** THE GBW FILE WAS UPDATED (new_SVPD_D9_wb97.gbw) ****
             **** DENSITY new_SVPD_D9_wb97.scfp WAS UPDATED ****
----------------
ORBITAL ENERGIES
----------------

  NO   OCC          E(Eh)            E(eV) 
   0   2.0000     -89.263089     -2428.9721 
   1   2.0000     -24.941386      -678.6896 
   2   2.0000     -19.286894      -524.8231 
   3   2.0000     -19.282603      -524.7063 
   4   2.0000     -14.424823      -392.5194 
   5   2.0000     -14.403255      -391.9325 
   6   2.0000     -10.372885      -282.2605 
   7   2.0000     -10.330634      -281.1108 
   8   2.0000     -10.320918      -280.8465 
   9   2.0000     -10.314879      -280.6821 
  10   2.0000     -10.312915      -280.6287 
  11   2.0000     -10.300235      -280.2836 
  12   2.0000     -10.293457      -280.0992 
  13   2.0000     -10.287718      -279.9430 
  14   2.0000     -10.279718      -279.7253 
  15   2.0000     -10.274317      -279.5784 
  16   2.0000     -10.182649      -277.0840 
  17   2.0000      -8.336518      -226.8482 
  18   2.0000      -6.300413      -171.4430 
  19   2.0000      -6.294002      -171.2685 
  20   2.0000      -6.292244      -171.2207 
  21   2.0000      -1.504366       -40.9359 
  22   2.0000      -1.258392       -34.2426 
  23   2.0000      -1.158765       -31.5316 
  24   2.0000      -1.065482       -28.9932 
  25   2.0000      -0.977597       -26.6018 
  26   2.0000      -0.973039       -26.4777 
  27   2.0000      -0.933448       -25.4004 
  28   2.0000      -0.899914       -24.4879 
  29   2.0000      -0.868631       -23.6366 
  30   2.0000      -0.846470       -23.0336 
  31   2.0000      -0.811029       -22.0692 
  32   2.0000      -0.798209       -21.7204 
  33   2.0000      -0.773004       -21.0345 
  34   2.0000      -0.749221       -20.3873 
  35   2.0000      -0.725155       -19.7325 
  36   2.0000      -0.713482       -19.4148 
  37   2.0000      -0.704279       -19.1644 
  38   2.0000      -0.689087       -18.7510 
  39   2.0000      -0.670781       -18.2529 
  40   2.0000      -0.641823       -17.4649 
  41   2.0000      -0.631631       -17.1875 
  42   2.0000      -0.621721       -16.9179 
  43   2.0000      -0.612982       -16.6801 
  44   2.0000      -0.598656       -16.2903 
  45   2.0000      -0.597388       -16.2558 
  46   2.0000      -0.579753       -15.7759 
  47   2.0000      -0.575807       -15.6685 
  48   2.0000      -0.557716       -15.1762 
  49   2.0000      -0.552904       -15.0453 
  50   2.0000      -0.540626       -14.7112 
  51   2.0000      -0.538658       -14.6576 
  52   2.0000      -0.520331       -14.1589 
  53   2.0000      -0.512089       -13.9346 
  54   2.0000      -0.497944       -13.5498 
  55   2.0000      -0.491451       -13.3731 
  56   2.0000      -0.484060       -13.1719 
  57   2.0000      -0.475586       -12.9413 
  58   2.0000      -0.469194       -12.7674 
  59   2.0000      -0.462586       -12.5876 
  60   2.0000      -0.458188       -12.4679 
  61   2.0000      -0.452692       -12.3184 
  62   2.0000      -0.446693       -12.1551 
  63   2.0000      -0.442004       -12.0275 
  64   2.0000      -0.439404       -11.9568 
  65   2.0000      -0.433634       -11.7998 
  66   2.0000      -0.430168       -11.7055 
  67   2.0000      -0.413146       -11.2423 
  68   2.0000      -0.411209       -11.1896 
  69   2.0000      -0.402448       -10.9512 
  70   2.0000      -0.325115        -8.8468 
  71   2.0000      -0.234636        -6.3848 
  72   0.0000       0.054006         1.4696 
  73   0.0000       0.075600         2.0572 
  74   0.0000       0.081276         2.2116 
  75   0.0000       0.089442         2.4339 
  76   0.0000       0.097203         2.6450 
  77   0.0000       0.104045         2.8312 
  78   0.0000       0.108310         2.9473 
  79   0.0000       0.113773         3.0959 
  80   0.0000       0.115321         3.1380 
  81   0.0000       0.118691         3.2297 
  82   0.0000       0.134036         3.6473 
  83   0.0000       0.135051         3.6749 
  84   0.0000       0.138154         3.7594 
  85   0.0000       0.145236         3.9521 
  86   0.0000       0.146337         3.9820 
  87   0.0000       0.152375         4.1463 
  88   0.0000       0.156798         4.2667 
  89   0.0000       0.159253         4.3335 
  90   0.0000       0.165923         4.5150 
  91   0.0000       0.168150         4.5756 
  92   0.0000       0.175179         4.7669 
  93   0.0000       0.183221         4.9857 
  94   0.0000       0.186020         5.0619 
  95   0.0000       0.186349         5.0708 
  96   0.0000       0.192494         5.2380 
  97   0.0000       0.196411         5.3446 
  98   0.0000       0.200122         5.4456 
  99   0.0000       0.201144         5.4734 
 100   0.0000       0.212793         5.7904 
 101   0.0000       0.216700         5.8967 
 102   0.0000       0.223809         6.0901 
 103   0.0000       0.227130         6.1805 
 104   0.0000       0.232957         6.3391 
 105   0.0000       0.235248         6.4014 
 106   0.0000       0.241882         6.5820 
 107   0.0000       0.246570         6.7095 
 108   0.0000       0.249833         6.7983 
 109   0.0000       0.251938         6.8556 
 110   0.0000       0.253436         6.8963 
 111   0.0000       0.262390         7.1400 
 112   0.0000       0.263829         7.1791 
 113   0.0000       0.270291         7.3550 
 114   0.0000       0.274331         7.4649 
 115   0.0000       0.276122         7.5137 
 116   0.0000       0.277070         7.5395 
 117   0.0000       0.280753         7.6397 
 118   0.0000       0.287904         7.8343 
 119   0.0000       0.290736         7.9113 
 120   0.0000       0.292586         7.9617 
 121   0.0000       0.297226         8.0879 
 122   0.0000       0.300076         8.1655 
 123   0.0000       0.304113         8.2753 
 124   0.0000       0.304797         8.2939 
 125   0.0000       0.313754         8.5377 
 126   0.0000       0.316374         8.6090 
 127   0.0000       0.318943         8.6789 
 128   0.0000       0.320120         8.7109 
 129   0.0000       0.325168         8.8483 
 130   0.0000       0.336758         9.1637 
 131   0.0000       0.343035         9.3345 
 132   0.0000       0.345392         9.3986 
 133   0.0000       0.347170         9.4470 
 134   0.0000       0.349694         9.5157 
 135   0.0000       0.356027         9.6880 
 136   0.0000       0.361050         9.8247 
 137   0.0000       0.365404         9.9432 
 138   0.0000       0.369320        10.0497 
 139   0.0000       0.370202        10.0737 
 140   0.0000       0.376437        10.2434 
 141   0.0000       0.377220        10.2647 
 142   0.0000       0.379620        10.3300 
 143   0.0000       0.381429        10.3792 
 144   0.0000       0.383424        10.4335 
 145   0.0000       0.390089        10.6149 
 146   0.0000       0.392842        10.6898 
 147   0.0000       0.395511        10.7624 
 148   0.0000       0.402987        10.9658 
 149   0.0000       0.405906        11.0453 
 150   0.0000       0.406695        11.0667 
 151   0.0000       0.408286        11.1100 
 152   0.0000       0.412370        11.2211 
 153   0.0000       0.417074        11.3491 
 154   0.0000       0.418997        11.4015 
 155   0.0000       0.424499        11.5512 
 156   0.0000       0.426808        11.6140 
 157   0.0000       0.429924        11.6988 
 158   0.0000       0.431590        11.7442 
 159   0.0000       0.435529        11.8513 
 160   0.0000       0.436742        11.8843 
 161   0.0000       0.443920        12.0797 
 162   0.0000       0.446855        12.1595 
 163   0.0000       0.449320        12.2266 
 164   0.0000       0.453108        12.3297 
 165   0.0000       0.455773        12.4022 
 166   0.0000       0.460752        12.5377 
 167   0.0000       0.463262        12.6060 
 168   0.0000       0.465999        12.6805 
 169   0.0000       0.467124        12.7111 
 170   0.0000       0.473268        12.8783 
 171   0.0000       0.475183        12.9304 
 172   0.0000       0.480860        13.0849 
 173   0.0000       0.481930        13.1140 
 174   0.0000       0.486800        13.2465 
 175   0.0000       0.489184        13.3114 
 176   0.0000       0.493778        13.4364 
 177   0.0000       0.494773        13.4634 
 178   0.0000       0.502526        13.6744 
 179   0.0000       0.504541        13.7293 
 180   0.0000       0.512052        13.9336 
 181   0.0000       0.512902        13.9568 
 182   0.0000       0.515445        14.0260 
 183   0.0000       0.519952        14.1486 
 184   0.0000       0.521493        14.1905 
 185   0.0000       0.523552        14.2466 
 186   0.0000       0.526785        14.3345 
 187   0.0000       0.530872        14.4458 
 188   0.0000       0.533566        14.5191 
 189   0.0000       0.537529        14.6269 
 190   0.0000       0.541136        14.7250 
 191   0.0000       0.548853        14.9351 
 192   0.0000       0.551071        14.9954 
 193   0.0000       0.552249        15.0275 
 194   0.0000       0.553815        15.0701 
 195   0.0000       0.557693        15.1756 
 196   0.0000       0.563817        15.3422 
 197   0.0000       0.566810        15.4237 
 198   0.0000       0.573865        15.6157 
 199   0.0000       0.578185        15.7332 
 200   0.0000       0.581364        15.8197 
 201   0.0000       0.581591        15.8259 
 202   0.0000       0.587801        15.9949 
 203   0.0000       0.589636        16.0448 
 204   0.0000       0.595160        16.1951 
 205   0.0000       0.598519        16.2865 
 206   0.0000       0.600227        16.3330 
 207   0.0000       0.604365        16.4456 
 208   0.0000       0.606744        16.5104 
 209   0.0000       0.610825        16.6214 
 210   0.0000       0.616283        16.7699 
 211   0.0000       0.619423        16.8553 
 212   0.0000       0.623283        16.9604 
 213   0.0000       0.625813        17.0292 
 214   0.0000       0.629646        17.1335 
 215   0.0000       0.633100        17.2275 
 216   0.0000       0.637227        17.3398 
 217   0.0000       0.637980        17.3603 
 218   0.0000       0.647544        17.6206 
 219   0.0000       0.650558        17.7026 
 220   0.0000       0.653372        17.7792 
 221   0.0000       0.659299        17.9404 
 222   0.0000       0.661238        17.9932 
 223   0.0000       0.668564        18.1925 
 224   0.0000       0.669461        18.2170 
 225   0.0000       0.674038        18.3415 
 226   0.0000       0.677579        18.4379 
 227   0.0000       0.678655        18.4671 
 228   0.0000       0.681894        18.5553 
 229   0.0000       0.684829        18.6351 
 230   0.0000       0.686750        18.6874 
 231   0.0000       0.695886        18.9360 
 232   0.0000       0.703018        19.1301 
 233   0.0000       0.709282        19.3006 
 234   0.0000       0.710026        19.3208 
 235   0.0000       0.713699        19.4207 
 236   0.0000       0.716908        19.5081 
 237   0.0000       0.720799        19.6139 
 238   0.0000       0.725188        19.7334 
 239   0.0000       0.729377        19.8474 
 240   0.0000       0.731565        19.9069 
 241   0.0000       0.734619        19.9900 
 242   0.0000       0.742953        20.2168 
 243   0.0000       0.748639        20.3715 
 244   0.0000       0.753855        20.5134 
 245   0.0000       0.758241        20.6328 
 246   0.0000       0.759128        20.6569 
 247   0.0000       0.765858        20.8400 
 248   0.0000       0.769372        20.9357 
 249   0.0000       0.773250        21.0412 
 250   0.0000       0.777871        21.1670 
 251   0.0000       0.780426        21.2365 
 252   0.0000       0.783726        21.3263 
 253   0.0000       0.791138        21.5279 
 254   0.0000       0.796144        21.6642 
 255   0.0000       0.799243        21.7485 
 256   0.0000       0.805433        21.9169 
 257   0.0000       0.812066        22.0974 
 258   0.0000       0.818527        22.2733 
 259   0.0000       0.826475        22.4895 
 260   0.0000       0.830002        22.5855 
 261   0.0000       0.836513        22.7627 
 262   0.0000       0.841348        22.8942 
 263   0.0000       0.843691        22.9580 
 264   0.0000       0.854542        23.2533 
 265   0.0000       0.859997        23.4017 
 266   0.0000       0.865522        23.5521 
 267   0.0000       0.871194        23.7064 
 268   0.0000       0.876557        23.8523 
 269   0.0000       0.881287        23.9810 
 270   0.0000       0.887350        24.1460 
 271   0.0000       0.893463        24.3124 
 272   0.0000       0.898301        24.4440 
 273   0.0000       0.901079        24.5196 
 274   0.0000       0.906213        24.6593 
 275   0.0000       0.915881        24.9224 
 276   0.0000       0.921104        25.0645 
 277   0.0000       0.923559        25.1313 
 278   0.0000       0.927435        25.2368 
 279   0.0000       0.935454        25.4550 
 280   0.0000       0.940015        25.5791 
 281   0.0000       0.946503        25.7556 
 282   0.0000       0.952222        25.9113 
 283   0.0000       0.961806        26.1721 
 284   0.0000       0.967416        26.3247 
 285   0.0000       0.972431        26.4612 
 286   0.0000       0.979446        26.6521 
 287   0.0000       0.989781        26.9333 
 288   0.0000       0.998949        27.1828 
 289   0.0000       1.008868        27.4527 
 290   0.0000       1.017737        27.6940 
 291   0.0000       1.021743        27.8030 
 292   0.0000       1.030625        28.0447 
 293   0.0000       1.038760        28.2661 
 294   0.0000       1.042058        28.3558 
 295   0.0000       1.054048        28.6821 
 296   0.0000       1.066014        29.0077 
 297   0.0000       1.072357        29.1803 
 298   0.0000       1.076191        29.2846 
 299   0.0000       1.084611        29.5138 
 300   0.0000       1.091499        29.7012 
 301   0.0000       1.105643        30.0861 
 302   0.0000       1.111555        30.2470 
 303   0.0000       1.113901        30.3108 
 304   0.0000       1.118172        30.4270 
 305   0.0000       1.122613        30.5479 
 306   0.0000       1.129158        30.7259 
 307   0.0000       1.132492        30.8167 
 308   0.0000       1.133336        30.8396 
 309   0.0000       1.147640        31.2289 
 310   0.0000       1.149803        31.2877 
 311   0.0000       1.156499        31.4699 
 312   0.0000       1.160403        31.5762 
 313   0.0000       1.166771        31.7494 
 314   0.0000       1.179220        32.0882 
 315   0.0000       1.186095        32.2753 
 316   0.0000       1.193171        32.4678 
 317   0.0000       1.202882        32.7321 
 318   0.0000       1.205604        32.8062 
 319   0.0000       1.208834        32.8940 
 320   0.0000       1.217865        33.1398 
 321   0.0000       1.220692        33.2167 
 322   0.0000       1.228628        33.4327 
 323   0.0000       1.236862        33.6567 
 324   0.0000       1.241965        33.7956 
 325   0.0000       1.244390        33.8616 
 326   0.0000       1.252246        34.0753 
 327   0.0000       1.253031        34.0967 
 328   0.0000       1.263980        34.3947 
 329   0.0000       1.270836        34.5812 
 330   0.0000       1.277058        34.7505 
 331   0.0000       1.291050        35.1313 
 332   0.0000       1.294168        35.2161 
 333   0.0000       1.314705        35.7749 
 334   0.0000       1.320751        35.9395 
 335   0.0000       1.328621        36.1536 
 336   0.0000       1.335231        36.3335 
 337   0.0000       1.340659        36.4812 
 338   0.0000       1.348807        36.7029 
 339   0.0000       1.362325        37.0707 
 340   0.0000       1.375319        37.4243 
 341   0.0000       1.380686        37.5704 
 342   0.0000       1.383529        37.6477 
 343   0.0000       1.398728        38.0613 
 344   0.0000       1.403265        38.1848 
 345   0.0000       1.407668        38.3046 
 346   0.0000       1.416238        38.5378 
 347   0.0000       1.427233        38.8370 
 348   0.0000       1.440153        39.1886 
 349   0.0000       1.452887        39.5351 
 350   0.0000       1.456449        39.6320 
 351   0.0000       1.468226        39.9525 
 352   0.0000       1.475036        40.1378 
 353   0.0000       1.482830        40.3498 
 354   0.0000       1.497517        40.7495 
 355   0.0000       1.504769        40.9469 
 356   0.0000       1.512418        41.1550 
 357   0.0000       1.525634        41.5146 
 358   0.0000       1.539339        41.8876 
 359   0.0000       1.543250        41.9940 
 360   0.0000       1.563947        42.5572 
 361   0.0000       1.573464        42.8161 
 362   0.0000       1.578245        42.9462 
 363   0.0000       1.590076        43.2682 
 364   0.0000       1.623002        44.1641 
 365   0.0000       1.639683        44.6180 
 366   0.0000       1.645978        44.7893 
 367   0.0000       1.654870        45.0313 
 368   0.0000       1.657088        45.0917 
 369   0.0000       1.679692        45.7067 
 370   0.0000       1.684164        45.8284 
 371   0.0000       1.703509        46.3548 
 372   0.0000       1.713283        46.6208 
 373   0.0000       1.726666        46.9850 
 374   0.0000       1.742320        47.4109 
 375   0.0000       1.749057        47.5943 
 376   0.0000       1.757047        47.8117 
 377   0.0000       1.782767        48.5116 
 378   0.0000       1.789587        48.6971 
 379   0.0000       1.790439        48.7203 
 380   0.0000       1.802794        49.0565 
 381   0.0000       1.808061        49.1999 
 382   0.0000       1.810968        49.2789 
 383   0.0000       1.823600        49.6227 
 384   0.0000       1.840275        50.0764 
 385   0.0000       1.843513        50.1645 
 386   0.0000       1.860280        50.6208 
 387   0.0000       1.874128        50.9976 
 388   0.0000       1.885087        51.2958 
 389   0.0000       1.890308        51.4379 
 390   0.0000       1.900777        51.7228 
 391   0.0000       1.906364        51.8748 
 392   0.0000       1.918242        52.1980 
 393   0.0000       1.928850        52.4867 
 394   0.0000       1.936934        52.7067 
 395   0.0000       1.949665        53.0531 
 396   0.0000       1.960316        53.3429 
 397   0.0000       1.972539        53.6755 
 398   0.0000       1.975018        53.7430 
 399   0.0000       1.978375        53.8343 
 400   0.0000       1.989798        54.1452 
 401   0.0000       1.995728        54.3065 
 402   0.0000       2.002458        54.4897 
 403   0.0000       2.009907        54.6924 
 404   0.0000       2.017001        54.8854 
 405   0.0000       2.020913        54.9918 
 406   0.0000       2.028945        55.2104 
 407   0.0000       2.040169        55.5158 
 408   0.0000       2.046365        55.6844 
 409   0.0000       2.049141        55.7599 
 410   0.0000       2.054828        55.9147 
 411   0.0000       2.056730        55.9665 
 412   0.0000       2.066831        56.2413 
 413   0.0000       2.083889        56.7055 
 414   0.0000       2.087502        56.8038 
 415   0.0000       2.095005        57.0080 
 416   0.0000       2.105325        57.2888 
 417   0.0000       2.113673        57.5160 
 418   0.0000       2.116996        57.6064 
 419   0.0000       2.119370        57.6710 
 420   0.0000       2.124460        57.8095 
 421   0.0000       2.130883        57.9843 
 422   0.0000       2.142158        58.2911 
 423   0.0000       2.146559        58.4108 
 424   0.0000       2.152474        58.5718 
 425   0.0000       2.162384        58.8415 
 426   0.0000       2.170341        59.0580 
 427   0.0000       2.177242        59.2458 
 428   0.0000       2.185486        59.4701 
 429   0.0000       2.199022        59.8384 
 430   0.0000       2.205918        60.0261 
 431   0.0000       2.214891        60.2703 
 432   0.0000       2.228781        60.6482 
 433   0.0000       2.234947        60.8160 
 434   0.0000       2.247945        61.1697 
 435   0.0000       2.249744        61.2186 
 436   0.0000       2.260292        61.5057 
 437   0.0000       2.267699        61.7072 
 438   0.0000       2.271949        61.8229 
 439   0.0000       2.280538        62.0566 
 440   0.0000       2.296849        62.5004 
 441   0.0000       2.302459        62.6531 
 442   0.0000       2.311286        62.8933 
 443   0.0000       2.320610        63.1470 
 444   0.0000       2.328717        63.3676 
 445   0.0000       2.338358        63.6300 
 446   0.0000       2.346847        63.8610 
 447   0.0000       2.365862        64.3784 
 448   0.0000       2.382540        64.8322 
 449   0.0000       2.388449        64.9930 
 450   0.0000       2.408631        65.5422 
 451   0.0000       2.414188        65.6934 
 452   0.0000       2.421637        65.8961 
 453   0.0000       2.430743        66.1439 
 454   0.0000       2.454364        66.7866 
 455   0.0000       2.476046        67.3766 
 456   0.0000       2.481565        67.5268 
 457   0.0000       2.514015        68.4098 
 458   0.0000       2.517875        68.5149 
 459   0.0000       2.533495        68.9399 
 460   0.0000       2.540660        69.1349 
 461   0.0000       2.553906        69.4953 
 462   0.0000       2.562085        69.7179 
 463   0.0000       2.573242        70.0215 
 464   0.0000       2.579381        70.1885 
 465   0.0000       2.596917        70.6657 
 466   0.0000       2.599879        70.7463 
 467   0.0000       2.611073        71.0509 
 468   0.0000       2.634301        71.6830 
 469   0.0000       2.649230        72.0892 
 470   0.0000       2.651064        72.1391 
 471   0.0000       2.660241        72.3888 
 472   0.0000       2.672861        72.7322 
 473   0.0000       2.691466        73.2385 
 474   0.0000       2.698827        73.4388 
 475   0.0000       2.709954        73.7416 
 476   0.0000       2.720064        74.0167 
 477   0.0000       2.720805        74.0369 
 478   0.0000       2.737806        74.4995 
 479   0.0000       2.757002        75.0218 
 480   0.0000       2.777186        75.5711 
 481   0.0000       2.783453        75.7416 
 482   0.0000       2.787121        75.8414 
 483   0.0000       2.800066        76.1937 
 484   0.0000       2.817401        76.6654 
 485   0.0000       2.822008        76.7907 
 486   0.0000       2.828875        76.9776 
 487   0.0000       2.837267        77.2060 
 488   0.0000       2.844623        77.4061 
 489   0.0000       2.867759        78.0357 
 490   0.0000       2.881864        78.4195 
 491   0.0000       2.903275        79.0021 
 492   0.0000       2.918341        79.4121 
 493   0.0000       2.926626        79.6375 
 494   0.0000       2.943342        80.0924 
 495   0.0000       2.961356        80.5826 
 496   0.0000       2.967548        80.7511 
 497   0.0000       2.978202        81.0410 
 498   0.0000       2.986224        81.2593 
 499   0.0000       2.990968        81.3884 
 500   0.0000       3.017201        82.1022 
 501   0.0000       3.028012        82.3964 
 502   0.0000       3.050732        83.0146 
 503   0.0000       3.066621        83.4470 
 504   0.0000       3.083317        83.9013 
 505   0.0000       3.102783        84.4310 
 506   0.0000       3.113633        84.7263 
 507   0.0000       3.140909        85.4685 
 508   0.0000       3.147232        85.6405 
 509   0.0000       3.154304        85.8330 
 510   0.0000       3.180236        86.5386 
 511   0.0000       3.196654        86.9854 
 512   0.0000       3.206299        87.2478 
 513   0.0000       3.217083        87.5413 
 514   0.0000       3.239452        88.1500 
 515   0.0000       3.247538        88.3700 
 516   0.0000       3.274621        89.1070 
 517   0.0000       3.287004        89.4439 
 518   0.0000       3.300534        89.8121 
 519   0.0000       3.308694        90.0341 
 520   0.0000       3.336813        90.7993 
 521   0.0000       3.348590        91.1198 
 522   0.0000       3.359085        91.4053 
 523   0.0000       3.378197        91.9254 
 524   0.0000       3.387794        92.1866 
 525   0.0000       3.405773        92.6758 
 526   0.0000       3.418274        93.0160 
 527   0.0000       3.421981        93.1168 
 528   0.0000       3.433572        93.4322 
 529   0.0000       3.448453        93.8372 
 530   0.0000       3.496548        95.1459 
 531   0.0000       3.511083        95.5414 
 532   0.0000       3.528252        96.0086 
 533   0.0000       3.558187        96.8232 
 534   0.0000       3.560171        96.8772 
 535   0.0000       3.667817        99.8064 
 536   0.0000       3.681538       100.1797 
 537   0.0000       3.821698       103.9937 
 538   0.0000       3.902544       106.1936 
 539   0.0000       3.950410       107.4961 

                    ********************************
                    * MULLIKEN POPULATION ANALYSIS *
                    ********************************

-----------------------
MULLIKEN ATOMIC CHARGES
-----------------------
   0 C :    0.963231
   1 N :    0.409561
   2 C :    0.186229
   3 C :    0.197964
   4 H :    0.057150
   5 H :    0.083689
   6 S :    1.494682
   7 C :    0.605547
   8 N :    0.540153
   9 C :    0.501613
  10 H :    0.092843
  11 H :   -0.669349
  12 H :   -1.300196
  13 H :   -0.445192
  14 H :   -0.170354
  15 O :   -0.723276
  16 O :   -0.706598
  17 C :    0.301936
  18 H :   -0.320735
  19 H :   -0.083938
  20 C :   -0.033005
  21 C :    0.231783
  22 H :    0.044872
  23 H :   -0.540546
  24 H :   -0.056850
  25 H :    0.080588
  26 C :    0.089716
  27 H :   -0.107798
  28 H :   -0.029784
  29 C :   -0.157490
  30 H :   -0.147545
  31 H :   -0.125265
  32 C :    0.622543
  33 H :   -0.317434
  34 H :    0.124876
  35 H :    0.130066
  36 H :   -0.310491
  37 H :   -0.027130
  38 H :    0.029474
  39 F :   -0.515538
Sum of atomic charges:    0.0000000

--------------------------------
MULLIKEN REDUCED ORBITAL CHARGES
--------------------------------
  0 C s       :     2.570584  s :     2.570584
      pz      :     0.811454  p :     2.403438
      px      :     0.957129
      py      :     0.634855
      dz2     :     0.016411  d :     0.062747
      dxz     :     0.103364
      dyz     :    -0.125694
      dx2y2   :     0.030611
      dxy     :     0.038055
  1 N s       :     2.639210  s :     2.639210
      pz      :     1.085048  p :     3.717925
      px      :     1.546936
      py      :     1.085941
      dz2     :     0.070473  d :     0.233304
      dxz     :     0.049836
      dyz     :     0.068589
      dx2y2   :     0.027584
      dxy     :     0.016822
  2 C s       :     2.737347  s :     2.737347
      pz      :     1.014321  p :     2.719496
      px      :     0.866796
      py      :     0.838379
      dz2     :     0.041502  d :     0.356928
      dxz     :     0.224436
      dyz     :     0.071575
      dx2y2   :     0.022915
      dxy     :    -0.003500
  3 C s       :     2.736375  s :     2.736375
      pz      :     0.981438  p :     2.862302
      px      :     1.074887
      py      :     0.805978
      dz2     :     0.100729  d :     0.203359
      dxz     :     0.041959
      dyz     :    -0.048581
      dx2y2   :     0.040416
      dxy     :     0.068835
  4 H s       :     0.926522  s :     0.926522
      pz      :    -0.023298  p :     0.016327
      px      :     0.021264
      py      :     0.018361
  5 H s       :     0.882316  s :     0.882316
      pz      :     0.041657  p :     0.033995
      px      :    -0.011688
      py      :     0.004026
  6 S s       :     4.979598  s :     4.979598
      pz      :     2.737326  p :     8.737912
      px      :     2.874756
      py      :     3.125830
      dz2     :     0.168216  d :     0.787809
      dxz     :     0.131203
      dyz     :     0.120955
      dx2y2   :     0.209463
      dxy     :     0.157972
  7 C s       :     2.757042  s :     2.757042
      pz      :     0.759398  p :     2.231829
      px      :     0.779288
      py      :     0.693143
      dz2     :     0.103966  d :     0.405582
      dxz     :     0.049206
      dyz     :     0.129447
      dx2y2   :     0.068937
      dxy     :     0.054025
  8 N s       :     2.787474  s :     2.787474
      pz      :     0.979905  p :     3.671219
      px      :     1.650251
      py      :     1.041063
      dz2     :     0.008189  d :     0.001155
      dxz     :     0.017513
      dyz     :    -0.023039
      dx2y2   :    -0.005712
      dxy     :     0.004204
  9 C s       :     2.709947  s :     2.709947
      pz      :     0.613324  p :     2.664016
      px      :     1.142765
      py      :     0.907926
      dz2     :     0.026566  d :     0.124423
      dxz     :     0.014746
      dyz     :     0.045542
      dx2y2   :     0.009887
      dxy     :     0.027681
 10 H s       :     0.868738  s :     0.868738
      pz      :    -0.024022  p :     0.038419
      px      :     0.045981
      py      :     0.016460
 11 H s       :     1.550845  s :     1.550845
      pz      :     0.039505  p :     0.118504
      px      :     0.041279
      py      :     0.037721
 12 H s       :     2.175402  s :     2.175402
      pz      :    -0.030844  p :     0.124794
      px      :     0.118981
      py      :     0.036657
 13 H s       :     1.355648  s :     1.355648
      pz      :     0.022261  p :     0.089545
      px      :     0.071755
      py      :    -0.004471
 14 H s       :     1.155939  s :     1.155939
      pz      :    -0.008387  p :     0.014415
      px      :     0.066024
      py      :    -0.043222
 15 O s       :     3.927641  s :     3.927641
      pz      :     1.664920  p :     4.792469
      px      :     1.475387
      py      :     1.652161
      dz2     :     0.004181  d :     0.003166
      dxz     :     0.010507
      dyz     :     0.003071
      dx2y2   :    -0.011985
      dxy     :    -0.002608
 16 O s       :     3.938471  s :     3.938471
      pz      :     1.556642  p :     4.741576
      px      :     1.408239
      py      :     1.776695
      dz2     :     0.009272  d :     0.026551
      dxz     :     0.006134
      dyz     :     0.005657
      dx2y2   :     0.004534
      dxy     :     0.000953
 17 C s       :     2.756066  s :     2.756066
      pz      :     0.801994  p :     2.642546
      px      :     0.954476
      py      :     0.886075
      dz2     :     0.107959  d :     0.299452
      dxz     :     0.013343
      dyz     :     0.059041
      dx2y2   :     0.043574
      dxy     :     0.075536
 18 H s       :     1.280396  s :     1.280396
      pz      :     0.061098  p :     0.040340
      px      :     0.004624
      py      :    -0.025382
 19 H s       :     1.111682  s :     1.111682
      pz      :     0.038033  p :    -0.027744
      px      :    -0.031531
      py      :    -0.034246
 20 C s       :     2.823960  s :     2.823960
      pz      :     0.956125  p :     2.712960
      px      :     0.964982
      py      :     0.791852
      dz2     :     0.080095  d :     0.496085
      dxz     :     0.191123
      dyz     :     0.048764
      dx2y2   :     0.030519
      dxy     :     0.145583
 21 C s       :     2.460860  s :     2.460860
      pz      :     0.834597  p :     2.771373
      px      :     0.944501
      py      :     0.992275
      dz2     :     0.052670  d :     0.535984
      dxz     :     0.129224
      dyz     :     0.146663
      dx2y2   :     0.015380
      dxy     :     0.192047
 22 H s       :     0.911640  s :     0.911640
      pz      :     0.007226  p :     0.043488
      px      :     0.016801
      py      :     0.019461
 23 H s       :     1.368296  s :     1.368296
      pz      :     0.021563  p :     0.172250
      px      :    -0.057999
      py      :     0.208686
 24 H s       :     1.066022  s :     1.066022
      pz      :    -0.013139  p :    -0.009172
      px      :    -0.021495
      py      :     0.025462
 25 H s       :     0.875103  s :     0.875103
      pz      :     0.014016  p :     0.044309
      px      :     0.040221
      py      :    -0.009929
 26 C s       :     2.732605  s :     2.732605
      pz      :     0.957134  p :     2.736341
      px      :     0.835050
      py      :     0.944157
      dz2     :     0.174768  d :     0.441337
      dxz     :     0.015388
      dyz     :     0.041739
      dx2y2   :     0.180718
      dxy     :     0.028724
 27 H s       :     1.103403  s :     1.103403
      pz      :     0.049940  p :     0.004395
      px      :    -0.014668
      py      :    -0.030877
 28 H s       :     1.003930  s :     1.003930
      pz      :    -0.024099  p :     0.025854
      px      :     0.022023
      py      :     0.027930
 29 C s       :     2.889996  s :     2.889996
      pz      :     0.838472  p :     2.764383
      px      :     0.970564
      py      :     0.955347
      dz2     :     0.219664  d :     0.503111
      dxz     :    -0.001948
      dyz     :    -0.011108
      dx2y2   :     0.203774
      dxy     :     0.092728
 30 H s       :     1.135773  s :     1.135773
      pz      :    -0.030337  p :     0.011772
      px      :     0.057615
      py      :    -0.015506
 31 H s       :     1.064330  s :     1.064330
      pz      :     0.082719  p :     0.060935
      px      :    -0.013721
      py      :    -0.008062
 32 C s       :     2.500957  s :     2.500957
      pz      :     0.940062  p :     2.667962
      px      :     0.808205
      py      :     0.919695
      dz2     :     0.019332  d :     0.208537
      dxz     :     0.039553
      dyz     :     0.119074
      dx2y2   :     0.040717
      dxy     :    -0.010138
 33 H s       :     1.275689  s :     1.275689
      pz      :     0.071247  p :     0.041746
      px      :    -0.024309
      py      :    -0.005192
 34 H s       :     0.854632  s :     0.854632
      pz      :    -0.004239  p :     0.020492
      px      :     0.060587
      py      :    -0.035856
 35 H s       :     0.846012  s :     0.846012
      pz      :     0.010237  p :     0.023922
      px      :     0.026446
      py      :    -0.012760
 36 H s       :     1.292040  s :     1.292040
      pz      :    -0.015735  p :     0.018451
      px      :    -0.005093
      py      :     0.039279
 37 H s       :     1.041942  s :     1.041942
      pz      :     0.003342  p :    -0.014812
      px      :    -0.037785
      py      :     0.019631
 38 H s       :     0.979282  s :     0.979282
      pz      :    -0.021708  p :    -0.008756
      px      :     0.028968
      py      :    -0.016015
 39 F s       :     3.959312  s :     3.959312
      pz      :     1.594006  p :     5.538882
      px      :     1.969677
      py      :     1.975199
      dz2     :     0.008877  d :     0.017344
      dxz     :     0.000153
      dyz     :     0.001611
      dx2y2   :     0.002011
      dxy     :     0.004692


                     *******************************
                     * LOEWDIN POPULATION ANALYSIS *
                     *******************************

----------------------
LOEWDIN ATOMIC CHARGES
----------------------
   0 C :    0.066126
   1 N :    0.000853
   2 C :   -0.031957
   3 C :   -0.036147
   4 H :    0.034211
   5 H :    0.041198
   6 S :    1.170510
   7 C :   -0.210721
   8 N :    0.209730
   9 C :    0.147708
  10 H :   -0.117865
  11 H :   -0.107065
  12 H :   -0.065160
  13 H :   -0.125973
  14 H :    0.015934
  15 O :   -0.443281
  16 O :   -0.435776
  17 C :   -0.013855
  18 H :    0.013183
  19 H :    0.019832
  20 C :   -0.032856
  21 C :   -0.032383
  22 H :    0.042101
  23 H :   -0.014897
  24 H :    0.041278
  25 H :    0.032189
  26 C :   -0.032577
  27 H :    0.023865
  28 H :    0.014134
  29 C :   -0.041486
  30 H :    0.028759
  31 H :    0.007289
  32 C :   -0.030567
  33 H :    0.026274
  34 H :    0.001848
  35 H :    0.022107
  36 H :    0.027314
  37 H :    0.022822
  38 H :    0.026006
  39 F :   -0.262703

-------------------------------
LOEWDIN REDUCED ORBITAL CHARGES
-------------------------------
  0 C s       :     2.655486  s :     2.655486
      pz      :     0.783530  p :     2.578345
      px      :     0.901051
      py      :     0.893764
      dz2     :     0.160680  d :     0.700042
      dxz     :     0.188344
      dyz     :     0.120324
      dx2y2   :     0.099189
      dxy     :     0.131505
  1 N s       :     2.880571  s :     2.880571
      pz      :     1.050032  p :     3.492116
      px      :     1.324975
      py      :     1.117109
      dz2     :     0.170162  d :     0.626460
      dxz     :     0.120992
      dyz     :     0.180631
      dx2y2   :     0.068909
      dxy     :     0.085767
  2 C s       :     2.672705  s :     2.672705
      pz      :     0.908073  p :     2.696225
      px      :     0.869992
      py      :     0.918160
      dz2     :     0.148055  d :     0.663027
      dxz     :     0.179001
      dyz     :     0.129895
      dx2y2   :     0.107535
      dxy     :     0.098541
  3 C s       :     2.709582  s :     2.709582
      pz      :     0.953031  p :     2.719806
      px      :     0.947731
      py      :     0.819044
      dz2     :     0.123842  d :     0.606760
      dxz     :     0.100061
      dyz     :     0.067706
      dx2y2   :     0.140779
      dxy     :     0.174371
  4 H s       :     0.714649  s :     0.714649
      pz      :     0.083083  p :     0.251140
      px      :     0.089549
      py      :     0.078508
  5 H s       :     0.704607  s :     0.704607
      pz      :     0.125807  p :     0.254195
      px      :     0.063743
      py      :     0.064646
  6 S s       :     4.653196  s :     4.653196
      pz      :     2.706087  p :     8.367069
      px      :     2.822083
      py      :     2.838899
      dz2     :     0.417198  d :     1.809226
      dxz     :     0.386157
      dyz     :     0.249681
      dx2y2   :     0.398023
      dxy     :     0.358166
  7 C s       :     2.624587  s :     2.624587
      pz      :     0.864517  p :     2.491741
      px      :     0.722352
      py      :     0.904872
      dz2     :     0.239651  d :     1.094394
      dxz     :     0.222252
      dyz     :     0.263213
      dx2y2   :     0.178293
      dxy     :     0.190986
  8 N s       :     2.904213  s :     2.904213
      pz      :     1.062402  p :     3.530004
      px      :     1.391320
      py      :     1.076282
      dz2     :     0.088227  d :     0.356054
      dxz     :     0.077689
      dyz     :     0.143791
      dx2y2   :     0.032727
      dxy     :     0.013619
  9 C s       :     2.724806  s :     2.724806
      pz      :     0.915811  p :     2.802104
      px      :     0.972352
      py      :     0.913941
      dz2     :     0.077331  d :     0.325381
      dxz     :     0.031758
      dyz     :     0.106631
      dx2y2   :     0.055300
      dxy     :     0.054362
 10 H s       :     0.754865  s :     0.754865
      pz      :     0.140349  p :     0.363001
      px      :     0.133428
      py      :     0.089223
 11 H s       :     0.775327  s :     0.775327
      pz      :     0.103832  p :     0.331739
      px      :     0.123715
      py      :     0.104192
 12 H s       :     0.615950  s :     0.615950
      pz      :     0.116786  p :     0.449210
      px      :     0.153815
      py      :     0.178610
 13 H s       :     0.610933  s :     0.610933
      pz      :     0.111951  p :     0.515040
      px      :     0.139200
      py      :     0.263889
 14 H s       :     0.653343  s :     0.653343
      pz      :     0.092632  p :     0.330723
      px      :     0.117791
      py      :     0.120300
 15 O s       :     3.512709  s :     3.512709
      pz      :     1.569101  p :     4.641498
      px      :     1.499426
      py      :     1.572971
      dz2     :     0.043759  d :     0.289073
      dxz     :     0.048339
      dyz     :     0.040543
      dx2y2   :     0.088559
      dxy     :     0.067874
 16 O s       :     3.556686  s :     3.556686
      pz      :     1.510897  p :     4.641490
      px      :     1.497390
      py      :     1.633203
      dz2     :     0.043244  d :     0.237600
      dxz     :     0.065330
      dyz     :     0.019063
      dx2y2   :     0.053139
      dxy     :     0.056823
 17 C s       :     2.686632  s :     2.686632
      pz      :     0.897194  p :     2.688314
      px      :     0.892418
      py      :     0.898702
      dz2     :     0.152790  d :     0.638908
      dxz     :     0.072695
      dyz     :     0.084537
      dx2y2   :     0.145047
      dxy     :     0.183839
 18 H s       :     0.728080  s :     0.728080
      pz      :     0.059104  p :     0.258737
      px      :     0.079972
      py      :     0.119661
 19 H s       :     0.723601  s :     0.723601
      pz      :     0.064711  p :     0.256567
      px      :     0.070015
      py      :     0.121841
 20 C s       :     2.678959  s :     2.678959
      pz      :     0.892660  p :     2.684319
      px      :     0.887433
      py      :     0.904225
      dz2     :     0.156289  d :     0.669578
      dxz     :     0.171458
      dyz     :     0.116883
      dx2y2   :     0.095499
      dxy     :     0.129448
 21 C s       :     2.670459  s :     2.670459
      pz      :     0.868866  p :     2.675224
      px      :     0.902793
      py      :     0.903564
      dz2     :     0.162108  d :     0.686700
      dxz     :     0.162416
      dyz     :     0.129350
      dx2y2   :     0.085675
      dxy     :     0.147151
 22 H s       :     0.721954  s :     0.721954
      pz      :     0.067398  p :     0.235945
      px      :     0.075894
      py      :     0.092652
 23 H s       :     0.702156  s :     0.702156
      pz      :     0.089250  p :     0.312741
      px      :     0.087955
      py      :     0.135535
 24 H s       :     0.718746  s :     0.718746
      pz      :     0.064114  p :     0.239977
      px      :     0.063594
      py      :     0.112269
 25 H s       :     0.701693  s :     0.701693
      pz      :     0.069760  p :     0.266118
      px      :     0.088570
      py      :     0.107788
 26 C s       :     2.678766  s :     2.678766
      pz      :     0.907214  p :     2.681692
      px      :     0.898603
      py      :     0.875876
      dz2     :     0.168358  d :     0.672119
      dxz     :     0.045613
      dyz     :     0.141536
      dx2y2   :     0.190260
      dxy     :     0.126351
 27 H s       :     0.727813  s :     0.727813
      pz      :     0.122042  p :     0.248322
      px      :     0.060001
      py      :     0.066279
 28 H s       :     0.715150  s :     0.715150
      pz      :     0.084711  p :     0.270716
      px      :     0.077197
      py      :     0.108808
 29 C s       :     2.679181  s :     2.679181
      pz      :     0.898752  p :     2.681050
      px      :     0.900964
      py      :     0.881335
      dz2     :     0.172808  d :     0.681255
      dxz     :     0.045507
      dyz     :     0.125861
      dx2y2   :     0.194733
      dxy     :     0.142347
 30 H s       :     0.727271  s :     0.727271
      pz      :     0.065569  p :     0.243970
      px      :     0.118370
      py      :     0.060031
 31 H s       :     0.711391  s :     0.711391
      pz      :     0.123749  p :     0.281320
      px      :     0.082134
      py      :     0.075437
 32 C s       :     2.682602  s :     2.682602
      pz      :     0.887231  p :     2.691156
      px      :     0.906710
      py      :     0.897215
      dz2     :     0.152054  d :     0.656809
      dxz     :     0.108090
      dyz     :     0.184713
      dx2y2   :     0.122782
      dxy     :     0.089170
 33 H s       :     0.728209  s :     0.728209
      pz      :     0.117524  p :     0.245517
      px      :     0.066576
      py      :     0.061417
 34 H s       :     0.716354  s :     0.716354
      pz      :     0.084963  p :     0.281797
      px      :     0.124778
      py      :     0.072057
 35 H s       :     0.714073  s :     0.714073
      pz      :     0.077053  p :     0.263820
      px      :     0.075570
      py      :     0.111198
 36 H s       :     0.729646  s :     0.729646
      pz      :     0.064774  p :     0.243040
      px      :     0.066521
      py      :     0.111745
 37 H s       :     0.729988  s :     0.729988
      pz      :     0.071225  p :     0.247190
      px      :     0.080756
      py      :     0.095209
 38 H s       :     0.727851  s :     0.727851
      pz      :     0.062369  p :     0.246143
      px      :     0.119159
      py      :     0.064615
 39 F s       :     3.665660  s :     3.665660
      pz      :     1.623075  p :     5.320899
      px      :     1.859677
      py      :     1.838147
      dz2     :     0.087174  d :     0.276144
      dxz     :     0.073386
      dyz     :     0.070810
      dx2y2   :     0.013770
      dxy     :     0.031004


                      *****************************
                      * MAYER POPULATION ANALYSIS *
                      *****************************

  NA   - Mulliken gross atomic population
  ZA   - Total nuclear charge
  QA   - Mulliken gross atomic charge
  VA   - Mayer's total valence
  BVA  - Mayer's bonded valence
  FA   - Mayer's free valence

  ATOM       NA         ZA         QA         VA         BVA        FA
  0 C      5.0368     6.0000     0.9632     3.5383     3.5383    -0.0000
  1 N      6.5904     7.0000     0.4096     3.2606     3.2606     0.0000
  2 C      5.8138     6.0000     0.1862     4.6048     4.6048     0.0000
  3 C      5.8020     6.0000     0.1980     4.2335     4.2335    -0.0000
  4 H      0.9428     1.0000     0.0572     1.0137     1.0137     0.0000
  5 H      0.9163     1.0000     0.0837     1.0878     1.0878     0.0000
  6 S     14.5053    16.0000     1.4947     4.7502     4.7502     0.0000
  7 C      5.3945     6.0000     0.6055     3.4499     3.4499    -0.0000
  8 N      6.4598     7.0000     0.5402     3.3839     3.3839    -0.0000
  9 C      5.4984     6.0000     0.5016     3.5210     3.5210    -0.0000
 10 H      0.9072     1.0000     0.0928     1.0571     1.0571     0.0000
 11 H      1.6693     1.0000    -0.6693     1.0992     1.0992     0.0000
 12 H      2.3002     1.0000    -1.3002    -0.1673    -0.1673     0.0000
 13 H      1.4452     1.0000    -0.4452     0.9437     0.9437    -0.0000
 14 H      1.1704     1.0000    -0.1704     0.8424     0.8424     0.0000
 15 O      8.7233     8.0000    -0.7233     1.6373     1.6373    -0.0000
 16 O      8.7066     8.0000    -0.7066     1.6752     1.6752     0.0000
 17 C      5.6981     6.0000     0.3019     4.4607     4.4607    -0.0000
 18 H      1.3207     1.0000    -0.3207     0.9714     0.9714     0.0000
 19 H      1.0839     1.0000    -0.0839     0.8782     0.8782     0.0000
 20 C      6.0330     6.0000    -0.0330     4.9571     4.9571    -0.0000
 21 C      5.7682     6.0000     0.2318     4.6539     4.6539    -0.0000
 22 H      0.9551     1.0000     0.0449     1.0892     1.0892    -0.0000
 23 H      1.5405     1.0000    -0.5405     1.3345     1.3345    -0.0000
 24 H      1.0569     1.0000    -0.0569     1.0121     1.0121     0.0000
 25 H      0.9194     1.0000     0.0806     1.1043     1.1043     0.0000
 26 C      5.9103     6.0000     0.0897     4.7805     4.7805     0.0000
 27 H      1.1078     1.0000    -0.1078     1.0419     1.0419    -0.0000
 28 H      1.0298     1.0000    -0.0298     0.9686     0.9686    -0.0000
 29 C      6.1575     6.0000    -0.1575     5.0620     5.0620    -0.0000
 30 H      1.1475     1.0000    -0.1475     1.0601     1.0601     0.0000
 31 H      1.1253     1.0000    -0.1253     1.2111     1.2111     0.0000
 32 C      5.3775     6.0000     0.6225     3.8682     3.8682    -0.0000
 33 H      1.3174     1.0000    -0.3174     1.1690     1.1690    -0.0000
 34 H      0.8751     1.0000     0.1249     1.0680     1.0680    -0.0000
 35 H      0.8699     1.0000     0.1301     1.0637     1.0637     0.0000
 36 H      1.3105     1.0000    -0.3105     1.1193     1.1193     0.0000
 37 H      1.0271     1.0000    -0.0271     0.9875     0.9875     0.0000
 38 H      0.9705     1.0000     0.0295     0.9749     0.9749     0.0000
 39 F      9.5155     9.0000    -0.5155     0.8333     0.8333    -0.0000

  Mayer bond orders larger than 0.100000
B(  0-C ,  1-N ) :   0.9894 B(  0-C , 10-H ) :   0.1164 B(  0-C , 12-H ) :  -0.5285 
B(  0-C , 17-C ) :   1.0882 B(  0-C , 18-H ) :   0.7257 B(  0-C , 19-H ) :   0.8697 
B(  1-N ,  7-C ) :   1.0264 B(  1-N ,  9-C ) :   0.2887 B(  1-N , 11-H ) :   0.1261 
B(  1-N , 12-H ) :   0.5623 B(  1-N , 13-H ) :   0.1572 B(  1-N , 14-H ) :  -0.1069 
B(  1-N , 18-H ) :   0.2669 B(  2-C ,  3-C ) :   1.2361 B(  2-C ,  5-H ) :   0.2366 
B(  2-C , 21-C ) :   1.1368 B(  2-C , 24-H ) :   0.8408 B(  2-C , 25-H ) :   0.8736 
B(  3-C ,  4-H ) :   0.9288 B(  3-C ,  5-H ) :   0.7295 B(  3-C ,  6-S ) :   1.0175 
B(  3-C , 25-H ) :   0.1057 B(  6-S , 15-O ) :   1.3974 B(  6-S , 16-O ) :   1.4798 
B(  6-S , 39-F ) :   0.5983 B(  7-C ,  8-N ) :   0.9531 B(  7-C ,  9-C ) :   1.7541 
B(  7-C , 10-H ) :   0.3685 B(  7-C , 11-H ) :   0.3336 B(  7-C , 12-H ) :  -0.6889 
B(  7-C , 13-H ) :  -0.1726 B(  7-C , 18-H ) :   0.1135 B(  8-N ,  9-C ) :   0.2043 
B(  8-N , 13-H ) :   0.9291 B(  8-N , 14-H ) :   1.2457 B(  9-C , 10-H ) :   0.5299 
B(  9-C , 11-H ) :   0.6806 B( 10-H , 13-H ) :   0.1532 B( 10-H , 18-H ) :  -0.1066 
B( 10-H , 19-H ) :   0.1217 B( 11-H , 12-H ) :  -0.1005 B( 12-H , 39-F ) :   0.2553 
B( 13-H , 14-H ) :  -0.2589 B( 13-H , 15-O ) :   0.1518 B( 17-C , 18-H ) :   0.1232 
B( 17-C , 26-C ) :   1.1914 B( 17-C , 27-H ) :   0.9156 B( 17-C , 28-H ) :   0.7855 
B( 17-C , 31-H ) :   0.1132 B( 18-H , 19-H ) :  -0.1968 B( 20-C , 21-C ) :   1.2354 
B( 20-C , 22-H ) :   0.1084 B( 20-C , 23-H ) :   0.1196 B( 20-C , 32-C ) :   1.1353 
B( 20-C , 35-H ) :   0.8586 B( 20-C , 36-H ) :   0.9783 B( 20-C , 37-H ) :   0.1081 
B( 20-C , 38-H ) :   0.2076 B( 21-C , 22-H ) :   0.7255 B( 21-C , 23-H ) :   0.7880 
B( 21-C , 24-H ) :   0.1772 B( 21-C , 36-H ) :   0.1865 B( 22-H , 23-H ) :   0.2373 
B( 23-H , 34-H ) :   0.1226 B( 26-C , 28-H ) :   0.2011 B( 26-C , 29-C ) :   1.1935 
B( 26-C , 30-H ) :   0.8932 B( 26-C , 31-H ) :   0.9320 B( 26-C , 33-H ) :   0.1393 
B( 27-H , 28-H ) :  -0.1104 B( 29-C , 30-H ) :   0.1498 B( 29-C , 31-H ) :   0.1156 
B( 29-C , 32-C ) :   1.1382 B( 29-C , 33-H ) :   1.0497 B( 29-C , 34-H ) :   0.8495 
B( 29-C , 37-H ) :   0.2734 B( 29-C , 38-H ) :   0.1332 B( 32-C , 37-H ) :   0.6922 
B( 32-C , 38-H ) :   0.7167 

-------
TIMINGS
-------

Total SCF time: 0 days 0 hours 2 min 56 sec 

Total time                  ....     176.100 sec
Sum of individual times     ....     174.739 sec  ( 99.2%)

Fock matrix formation       ....     167.905 sec  ( 95.3%)
  Split-RI-J                ....       8.253 sec  (  4.9% of F)
  Chain of spheres X        ....     147.955 sec  ( 88.1% of F)
  XC integration            ....      11.328 sec  (  6.7% of F)
    Basis function eval.    ....       2.716 sec  ( 24.0% of XC)
    Density eval.           ....       3.754 sec  ( 33.1% of XC)
    XC-Functional eval.     ....       0.315 sec  (  2.8% of XC)
    XC-Potential eval.      ....       3.241 sec  ( 28.6% of XC)
Diagonalization             ....       1.073 sec  (  0.6%)
Density matrix formation    ....       0.061 sec  (  0.0%)
Population analysis         ....       0.091 sec  (  0.1%)
Initial guess               ....       0.794 sec  (  0.5%)
Orbital Transformation      ....       0.000 sec  (  0.0%)
Orbital Orthonormalization  ....       0.000 sec  (  0.0%)
DIIS solution               ....       0.543 sec  (  0.3%)
SOSCF solution              ....       0.671 sec  (  0.4%)
Grid generation             ....       3.601 sec  (  2.0%)

Maximum memory used throughout the entire SCF-calculation: 109.9 MB


-------------------------------------------------------------------------------
                          DFT DISPERSION CORRECTION                            
                                                                               
                              DFTD3 V3.1  Rev 1                                
                              USING zero damping                               
-------------------------------------------------------------------------------
The omegaB97X-D3 functional is recognized. Fit by Chai et al.
Active option DFTDOPT                   ...         3   

molecular C6(AA) [au] = 13772.218717 


            DFT-D V3
 parameters
 s6 scaling factor         :     1.0000 
 rs6 scaling factor        :     1.2810 
 s8 scaling factor         :     1.0000 
 rs8 scaling factor        :     1.0940 
 Damping factor alpha6     :    14.0000 
 Damping factor alpha8     :    16.0000 
 ad hoc parameters k1-k3   :    16.0000     1.3333    -4.0000 

 Edisp/kcal,au: -13.648801456512  -0.021750747303 
 E6   /kcal   :  -6.357112884 
 E8   /kcal   :  -7.291688572 
 % E8         :  53.423654784 

-------------------------   ----------------
Dispersion correction           -0.021750747
-------------------------   ----------------


-------------------------   --------------------
FINAL SINGLE POINT ENERGY     -1190.048450214027
-------------------------   --------------------


                            ***************************************
                            *     ORCA property calculations      *
                            ***************************************

                                    ---------------------
                                    Active property flags
                                    ---------------------
   (+) Dipole Moment


------------------------------------------------------------------------------
                       ORCA ELECTRIC PROPERTIES CALCULATION
------------------------------------------------------------------------------

Dipole Moment Calculation                       ... on
Quadrupole Moment Calculation                   ... off
Polarizability Calculation                      ... off
GBWName                                         ... new_SVPD_D9_wb97.gbw
Electron density file                           ... new_SVPD_D9_wb97.scfp
The origin for moment calculation is the CENTER OF MASS  = ( 8.539747, -1.087329 -8.832600)

-------------
DIPOLE MOMENT
-------------
                                X             Y             Z
Electronic contribution:    -18.94882       1.79765     -17.82132
Nuclear contribution   :     18.85717      -4.60195      17.96505
                        -----------------------------------------
Total Dipole Moment    :     -0.09165      -2.80430       0.14374
                        -----------------------------------------
Magnitude (a.u.)       :      2.80948
Magnitude (Debye)      :      7.14112



--------------------
Rotational spectrum 
--------------------
 
Rotational constants in cm-1:     0.014436     0.012382     0.007563 
Rotational constants in MHz :   432.785702   371.214592   226.743759 

 Dipole components along the rotational axes: 
x,y,z [a.u.] :    -0.817991     2.646476     0.469267 
x,y,z [Debye]:    -2.079168     6.726807     1.192783 

 

Timings for individual modules:

Sum of individual times         ...      177.956 sec (=   2.966 min)
GTO integral calculation        ...        1.416 sec (=   0.024 min)   0.8 %
SCF iterations                  ...      176.540 sec (=   2.942 min)  99.2 %
                             ****ORCA TERMINATED NORMALLY****
TOTAL RUN TIME: 0 days 0 hours 2 minutes 58 seconds 673 msec
