
                                        *****************
                                        * O   R   C   A *
                                        *****************

                                            #,                                       
                                            ###                                      
                                            ####                                     
                                            #####                                    
                                            ######                                   
                                           ########,                                 
                                     ,,################,,,,,                         
                               ,,#################################,,                 
                          ,,##########################################,,             
                       ,#########################################, ''#####,          
                    ,#############################################,,   '####,        
                  ,##################################################,,,,####,       
                ,###########''''           ''''###############################       
              ,#####''   ,,,,##########,,,,          '''####'''          '####       
            ,##' ,,,,###########################,,,                        '##       
           ' ,,###''''                  '''############,,,                           
         ,,##''                                '''############,,,,        ,,,,,,###''
      ,#''                                            '''#######################'''  
     '                                                          ''''####''''         
             ,#######,   #######,   ,#######,      ##                                
            ,#'     '#,  ##    ##  ,#'     '#,    #''#        ######   ,####,        
            ##       ##  ##   ,#'  ##            #'  '#       #        #'  '#        
            ##       ##  #######   ##           ,######,      #####,   #    #        
            '#,     ,#'  ##    ##  '#,     ,#' ,#      #,         ##   #,  ,#        
             '#######'   ##     ##  '#######'  #'      '#     #####' # '####'        



                  #######################################################
                  #                        -***-                        #
                  #          Department of theory and spectroscopy      #
                  #    Directorship and core code : Frank Neese         #
                  #        Max Planck Institute fuer Kohlenforschung    #
                  #                Kaiser Wilhelm Platz 1               #
                  #                 D-45470 Muelheim/Ruhr               #
                  #                      Germany                        #
                  #                                                     #
                  #                  All rights reserved                #
                  #                        -***-                        #
                  #######################################################


                         Program Version 5.0.0 -  RELEASE  -
                                (SVN: $Rev: 19529$)
                ($Date: 2021-06-28 11:36:33 +0200 (Mo, 28 Jun 2021) $)


 With contributions from (in alphabetic order):
   Daniel Aravena         : Magnetic Suceptibility
   Michael Atanasov       : Ab Initio Ligand Field Theory (pilot matlab implementation)
   Alexander A. Auer      : GIAO ZORA, VPT2 properties, NMR spectrum
   Ute Becker             : Parallelization
   Giovanni Bistoni       : ED, misc. LED, open-shell LED, HFLD
   Martin Brehm           : Molecular dynamics
   Dmytro Bykov           : SCF Hessian
   Vijay G. Chilkuri      : MRCI spin determinant printing, contributions to CSF-ICE
   Dipayan Datta          : RHF DLPNO-CCSD density
   Achintya Kumar Dutta   : EOM-CC, STEOM-CC
   Dmitry Ganyushin       : Spin-Orbit,Spin-Spin,Magnetic field MRCI
   Miquel Garcia          : C-PCM Hessian, Gaussian charge scheme
   Yang Guo               : DLPNO-NEVPT2, F12-NEVPT2, CIM, IAO-localization
   Andreas Hansen         : Spin unrestricted coupled pair/coupled cluster methods
   Benjamin Helmich-Paris : MC-RPA, TRAH-SCF, COSX integrals
   Lee Huntington         : MR-EOM, pCC
   Robert Izsak           : Overlap fitted RIJCOSX, COSX-SCS-MP3, EOM
   Marcus Kettner         : VPT2
   Christian Kollmar      : KDIIS, OOCD, Brueckner-CCSD(T), CCSD density, CASPT2, CASPT2-K
   Simone Kossmann        : Meta GGA functionals, TD-DFT gradient, OOMP2, MP2 Hessian
   Martin Krupicka        : Initial AUTO-CI
   Lucas Lang             : DCDCAS
   Marvin Lechner         : AUTO-CI (C++ implementation), FIC-MRCC
   Dagmar Lenk            : GEPOL surface, SMD
   Dimitrios Liakos       : Extrapolation schemes; Compound Job, initial MDCI parallelization
   Dimitrios Manganas     : Further ROCIS development; embedding schemes
   Dimitrios Pantazis     : SARC Basis sets
   Anastasios Papadopoulos: AUTO-CI, single reference methods and gradients
   Taras Petrenko         : DFT Hessian,TD-DFT gradient, ASA, ECA, R-Raman, ABS, FL, XAS/XES, NRVS
   Peter Pinski           : DLPNO-MP2, DLPNO-MP2 Gradient
   Christoph Reimann      : Effective Core Potentials
   Marius Retegan         : Local ZFS, SOC
   Christoph Riplinger    : Optimizer, TS searches, QM/MM, DLPNO-CCSD(T), (RO)-DLPNO pert. Triples
   Tobias Risthaus        : Range-separated hybrids, TD-DFT gradient, RPA, STAB
   Michael Roemelt        : Original ROCIS implementation
   Masaaki Saitow         : Open-shell DLPNO-CCSD energy and density
   Barbara Sandhoefer     : DKH picture change effects
   Avijit Sen             : IP-ROCIS
   Kantharuban Sivalingam : CASSCF convergence, NEVPT2, FIC-MRCI
   Bernardo de Souza      : ESD, SOC TD-DFT
   Georgi Stoychev        : AutoAux, RI-MP2 NMR
   Willem Van den Heuvel  : Paramagnetic NMR
   Boris Wezisla          : Elementary symmetry handling
   Frank Wennmohs         : Technical directorship


 We gratefully acknowledge several colleagues who have allowed us to
 interface, adapt or use parts of their codes:
   Stefan Grimme, W. Hujo, H. Kruse, P. Pracht,  : VdW corrections, initial TS optimization,
                  C. Bannwarth, S. Ehlert          DFT functionals, gCP, sTDA/sTD-DF
   Ed Valeev, F. Pavosevic, A. Kumar             : LibInt (2-el integral package), F12 methods
   Garnet Chan, S. Sharma, J. Yang, R. Olivares  : DMRG
   Ulf Ekstrom                                   : XCFun DFT Library
   Mihaly Kallay                                 : mrcc  (arbitrary order and MRCC methods)
   Jiri Pittner, Ondrej Demel                    : Mk-CCSD
   Frank Weinhold                                : gennbo (NPA and NBO analysis)
   Christopher J. Cramer and Donald G. Truhlar   : smd solvation model
   Lars Goerigk                                  : TD-DFT with DH, B97 family of functionals
   V. Asgeirsson, H. Jonsson                     : NEB implementation
   FAccTs GmbH                                   : IRC, NEB, NEB-TS, DLPNO-Multilevel, CI-OPT
                                                   MM, QMMM, 2- and 3-layer-ONIOM, Crystal-QMMM,
                                                   LR-CPCM, SF, NACMEs, symmetry and pop. for TD-DFT,
                                                   nearIR, NL-DFT gradient (VV10), updates on ESD,
                                                   ML-optimized integration grids
   S Lehtola, MJT Oliveira, MAL Marques          : LibXC Library
   Liviu Ungur et al                             : ANISO software


 Your calculation uses the libint2 library for the computation of 2-el integrals
 For citations please refer to: http://libint.valeyev.net

 Your ORCA version has been built with support for libXC version: 5.1.0
 For citations please refer to: https://tddft.org/programs/libxc/

 This ORCA versions uses:
   CBLAS   interface :  Fast vector & matrix operations
   LAPACKE interface :  Fast linear algebra routines
   SCALAPACK package :  Parallel linear algebra routines
   Shared memory     :  Shared parallel matrices
   BLAS/LAPACK       :  OpenBLAS 0.3.15  USE64BITINT DYNAMIC_ARCH NO_AFFINITY Haswell SINGLE_THREADED
        Core in use  :  Haswell
   Copyright (c) 2011-2014, The OpenBLAS Project


Your calculation utilizes the atom-pairwise dispersion correction
with the Becke-Johnson damping scheme (D3BJ)
Cite in your paper:
S.Grimme, S.Ehrlich, L.Goerigk, J Comput Chem, (2011), 32, 1456–1465 
S.Grimme, J.Antony, S.Ehrlich and H.Krieg, J.Chem.Phys., 132, (2010), 154104 
   

================================================================================

----- Orbital basis set information -----
Your calculation utilizes the basis: def2-TZVPD
   F. Weigend and R. Ahlrichs, Phys. Chem. Chem. Phys. 7, 3297 (2005).
   D. Rappoport and F. Furche, J. Chem. Phys. 133 134105 (2010).

----- AuxJ basis set information -----
Your calculation utilizes the auxiliary basis: def2/J
   F. Weigend, Phys. Chem. Chem. Phys. 8, 1057 (2006).

================================================================================
                                        WARNINGS
                       Please study these warnings very carefully!
================================================================================


INFO   : the flag for use of the SHARK integral package has been found!

================================================================================
                                       INPUT FILE
================================================================================
NAME = TZVPD_B3LYP_A_wt_dlpno_pos.com
|  1> !B3LYP D3BJ RIJCOSX def2-TZVPD def2/J TightSCF
|  2> *xyz 1 1 
|  3> C          3.95643        0.50147       -0.37910
|  4> H          3.16840        0.02920        0.20738
|  5> N          3.80389        1.96157       -0.15675
|  6> C          3.84232        0.14849       -1.85406
|  7> H          4.92323        0.17798        0.00937
|  8> H          4.20643        2.24441        0.74536
|  9> H          2.80827        2.21132       -0.09610
| 10> H          4.28076        2.50155       -0.89104
| 11> H          4.62951        0.62800       -2.39748
| 12> H          2.89665        0.48102       -2.22825
| 13> H          3.92053       -0.91187       -1.97413
| 14> *
| 15> 
| 16> %MaxCore 64000
| 17> %pal nprocs 4
| 18> end  
| 19> 
| 20> %scf
| 21>   MaxIter 150
| 22> end
| 23> 
| 24> 
| 25>                          ****END OF INPUT****
================================================================================

                       ****************************
                       * Single Point Calculation *
                       ****************************

---------------------------------
CARTESIAN COORDINATES (ANGSTROEM)
---------------------------------
  C      3.956430    0.501470   -0.379100
  H      3.168400    0.029200    0.207380
  N      3.803890    1.961570   -0.156750
  C      3.842320    0.148490   -1.854060
  H      4.923230    0.177980    0.009370
  H      4.206430    2.244410    0.745360
  H      2.808270    2.211320   -0.096100
  H      4.280760    2.501550   -0.891040
  H      4.629510    0.628000   -2.397480
  H      2.896650    0.481020   -2.228250
  H      3.920530   -0.911870   -1.974130

----------------------------
CARTESIAN COORDINATES (A.U.)
----------------------------
  NO LB      ZA    FRAG     MASS         X           Y           Z
   0 C     6.0000    0    12.011    7.476569    0.947641   -0.716395
   1 H     1.0000    0     1.008    5.987408    0.055180    0.391891
   2 N     7.0000    0    14.007    7.188310    3.706830   -0.296215
   3 C     6.0000    0    12.011    7.260933    0.280605   -3.503666
   4 H     1.0000    0     1.008    9.303556    0.336333    0.017707
   5 H     1.0000    0     1.008    7.949001    4.241320    1.408526
   6 H     1.0000    0     1.008    5.306861    4.178789   -0.181603
   7 H     1.0000    0     1.008    8.089464    4.727244   -1.683822
   8 H     1.0000    0     1.008    8.748506    1.186748   -4.530581
   9 H     1.0000    0     1.008    5.473875    0.908996   -4.210782
  10 H     1.0000    0     1.008    7.408728   -1.723185   -3.730565

--------------------------------
INTERNAL COORDINATES (ANGSTROEM)
--------------------------------
 C      0   0   0     0.000000000000     0.00000000     0.00000000
 H      1   0   0     1.089949092481     0.00000000     0.00000000
 N      1   2   0     1.484789542023   105.73775847     0.00000000
 C      1   2   3     1.520895451404   111.53202524   238.68873897
 H      1   2   3     1.090988982987   108.70075238   117.16664731
 H      3   1   2     1.027540446552   111.21738370    79.20489913
 H      3   1   2     1.028257102771   110.31340383   322.98052740
 H      3   1   2     1.028671571202   111.20331859   198.97149937
 H      4   1   2     1.070001510560   109.47068273   179.99993724
 H      4   1   2     1.069993507410   109.47121418    60.00049027
 H      4   1   2     1.069998569438   109.47151158   300.00013007

---------------------------
INTERNAL COORDINATES (A.U.)
---------------------------
 C      0   0   0     0.000000000000     0.00000000     0.00000000
 H      1   0   0     2.059705284705     0.00000000     0.00000000
 N      1   2   0     2.805845600933   105.73775847     0.00000000
 C      1   2   3     2.874075881479   111.53202524   238.68873897
 H      1   2   3     2.061670392972   108.70075238   117.16664731
 H      3   1   2     1.941770035510   111.21738370    79.20489913
 H      3   1   2     1.943124319497   110.31340383   322.98052740
 H      3   1   2     1.943907551323   111.20331859   198.97149937
 H      4   1   2     2.022009817840   109.47068273   179.99993724
 H      4   1   2     2.021994694079   109.47121418    60.00049027
 H      4   1   2     2.022004259926   109.47151158   300.00013007

---------------------
BASIS SET INFORMATION
---------------------
There are 3 groups of distinct atoms

 Group   1 Type C   : 12s6p3d1f contracted to 6s3p3d1f pattern {621111/411/111/1}
 Group   2 Type H   : 5s2p contracted to 3s2p pattern {311/11}
 Group   3 Type N   : 12s6p3d1f contracted to 6s3p3d1f pattern {621111/411/111/1}

Atom   0C    basis set group =>   1
Atom   1H    basis set group =>   2
Atom   2N    basis set group =>   3
Atom   3C    basis set group =>   1
Atom   4H    basis set group =>   2
Atom   5H    basis set group =>   2
Atom   6H    basis set group =>   2
Atom   7H    basis set group =>   2
Atom   8H    basis set group =>   2
Atom   9H    basis set group =>   2
Atom  10H    basis set group =>   2
---------------------------------
AUXILIARY/J BASIS SET INFORMATION
---------------------------------
There are 3 groups of distinct atoms

 Group   1 Type C   : 12s5p4d2f1g contracted to 6s4p3d1f1g pattern {711111/2111/211/2/1}
 Group   2 Type H   : 5s2p1d contracted to 3s1p1d pattern {311/2/1}
 Group   3 Type N   : 12s5p4d2f1g contracted to 6s4p3d1f1g pattern {711111/2111/211/2/1}

Atom   0C    basis set group =>   1
Atom   1H    basis set group =>   2
Atom   2N    basis set group =>   3
Atom   3C    basis set group =>   1
Atom   4H    basis set group =>   2
Atom   5H    basis set group =>   2
Atom   6H    basis set group =>   2
Atom   7H    basis set group =>   2
Atom   8H    basis set group =>   2
Atom   9H    basis set group =>   2
Atom  10H    basis set group =>   2


           ************************************************************
           *        Program running with 4 parallel MPI-processes     *
           *              working on a common directory               *
           ************************************************************
------------------------------------------------------------------------------
                           ORCA GTO INTEGRAL CALCULATION
                           -- RI-GTO INTEGRALS CHOSEN --
------------------------------------------------------------------------------
------------------------------------------------------------------------------
                   ___                                                        
                  /   \      - P O W E R E D   B Y -                         
                 /     \                                                     
                 |  |  |   _    _      __       _____    __    __             
                 |  |  |  | |  | |    /  \     |  _  \  |  |  /  |          
                  \  \/   | |  | |   /    \    | | | |  |  | /  /          
                 / \  \   | |__| |  /  /\  \   | |_| |  |  |/  /          
                |  |  |   |  __  | /  /__\  \  |    /   |      \           
                |  |  |   | |  | | |   __   |  |    \   |  |\   \          
                \     /   | |  | | |  |  |  |  | |\  \  |  | \   \       
                 \___/    |_|  |_| |__|  |__|  |_| \__\ |__|  \__/        
                                                                              
                      - O R C A' S   B I G   F R I E N D -                    
                                      &                                       
                       - I N T E G R A L  F E E D E R -                       
                                                                              
 v1 FN, 2020, v2 2021                                                         
------------------------------------------------------------------------------


Reading SHARK input file TZVPD_B3LYP_A_wt_dlpno_pos.SHARKINP.tmp ... ok
----------------------
SHARK INTEGRAL PACKAGE
----------------------

Number of atoms                             ...     11
Number of basis functions                   ...    183
Number of shells                            ...     79
Maximum angular momentum                    ...      3
Integral batch strategy                     ... SHARK/LIBINT Hybrid
RI-J (if used) integral strategy            ... SPLIT-RIJ (Revised 2003 algorithm where possible)
Printlevel                                  ...      1
Contraction scheme used                     ... SEGMENTED contraction
Coulomb Range Separation                    ... NOT USED
Exchange Range Separation                   ... NOT USED
Finite Nucleus Model                        ... NOT USED
Auxiliary Coulomb fitting basis             ... AVAILABLE
   # of basis functions in Aux-J            ...    235
   # of shells in Aux-J                     ...     85
   Maximum angular momentum in Aux-J        ...      4
Auxiliary J/K fitting basis                 ... NOT available
Auxiliary Correlation fitting basis         ... NOT available
Auxiliary 'external' fitting basis          ... NOT available
Integral threshold                          ...     2.500000e-11
Primitive cut-off                           ...     2.500000e-12
Primitive pair pre-selection threshold      ...     2.500000e-12

Calculating pre-screening integrals         ... done (  0.1 sec) Dimension = 79
Organizing shell pair data                  ... done (  0.0 sec)
Shell pair information
Total number of shell pairs                 ...      3160
Shell pairs after pre-screening             ...      3138
Total number of primitive shell pairs       ...      7593
Primitive shell pairs kept                  ...      6643
          la=0 lb=0:    886 shell pairs
          la=1 lb=0:   1046 shell pairs
          la=1 lb=1:    325 shell pairs
          la=2 lb=0:    377 shell pairs
          la=2 lb=1:    225 shell pairs
          la=2 lb=2:     45 shell pairs
          la=3 lb=0:    126 shell pairs
          la=3 lb=1:     75 shell pairs
          la=3 lb=2:     27 shell pairs
          la=3 lb=3:      6 shell pairs

Calculating one electron integrals          ... done (  0.0 sec)
Calculating RI/J V-Matrix + Cholesky decomp.... done (  0.0 sec)
Calculating Nuclear repulsion               ... done (  0.0 sec) ENN=     90.648012731845 Eh

SHARK setup successfully completed in   0.2 seconds

Maximum memory used throughout the entire GTOINT-calculation: 13.8 MB


           ************************************************************
           *        Program running with 4 parallel MPI-processes     *
           *              working on a common directory               *
           ************************************************************
-------------------------------------------------------------------------------
                                 ORCA SCF
-------------------------------------------------------------------------------

------------
SCF SETTINGS
------------
Hamiltonian:
 Density Functional     Method          .... DFT(GTOs)
 Exchange Functional    Exchange        .... B88
   X-Alpha parameter    XAlpha          ....  0.666667
   Becke's b parameter  XBeta           ....  0.004200
 Correlation Functional Correlation     .... LYP
 LDA part of GGA corr.  LDAOpt          .... VWN-5
 Gradients option       PostSCFGGA      .... off
 Hybrid DFT is turned on
   Fraction HF Exchange ScalHFX         ....  0.200000
   Scaling of DF-GGA-X  ScalDFX         ....  0.720000
   Scaling of DF-GGA-C  ScalDFC         ....  0.810000
   Scaling of DF-LDA-C  ScalLDAC        ....  1.000000
   Perturbative correction              ....  0.000000
   Density functional embedding theory  .... OFF
   NL short-range parameter             ....  4.800000
 RI-approximation to the Coulomb term is turned on
   Number of AuxJ basis functions       .... 235
   RIJ-COSX (HFX calculated with COS-X)).... on


General Settings:
 Integral files         IntName         .... TZVPD_B3LYP_A_wt_dlpno_pos
 Hartree-Fock type      HFTyp           .... RHF
 Total Charge           Charge          ....    1
 Multiplicity           Mult            ....    1
 Number of Electrons    NEL             ....   26
 Basis Dimension        Dim             ....  183
 Nuclear Repulsion      ENuc            ....     90.6480127318 Eh

Convergence Acceleration:
 DIIS                   CNVDIIS         .... on
   Start iteration      DIISMaxIt       ....    12
   Startup error        DIISStart       ....  0.200000
   # of expansion vecs  DIISMaxEq       ....     5
   Bias factor          DIISBfac        ....   1.050
   Max. coefficient     DIISMaxC        ....  10.000
 Trust-Rad. Augm. Hess. CNVTRAH         .... auto
   Auto Start mean grad. ratio tolernc. ....  1.125000
   Auto Start start iteration           ....    20
   Auto Start num. interpolation iter.  ....    10
   Max. Number of Micro iterations      ....    16
   Max. Number of Macro iterations      .... Maxiter - #DIIS iter
   Number of Davidson start vectors     ....     2
   Converg. threshold I  (grad. norm)   ....   1.000e-05
   Converg. threshold II (energy diff.) ....   1.000e-08
   Grad. Scal. Fac. for Micro threshold ....   0.100
   Minimum threshold for Micro iter.    ....   0.010
   NR start threshold (gradient norm)   ....   0.001
   Initial trust radius                 ....   0.400
   Minimum AH scaling param. (alpha)    ....   1.000
   Maximum AH scaling param. (alpha)    .... 1000.000
   Orbital update algorithm             .... Taylor
   White noise on init. David. guess    .... on
   Maximum white noise                  ....   0.010
   Quad. conv. algorithm                .... NR
 SOSCF                  CNVSOSCF        .... on
   Start iteration      SOSCFMaxIt      ....   150
   Startup grad/error   SOSCFStart      ....  0.003300
 Level Shifting         CNVShift        .... on
   Level shift para.    LevelShift      ....    0.2500
   Turn off err/grad.   ShiftErr        ....    0.0010
 Zerner damping         CNVZerner       .... off
 Static damping         CNVDamp         .... on
   Fraction old density DampFac         ....    0.7000
   Max. Damping (<1)    DampMax         ....    0.9800
   Min. Damping (>=0)   DampMin         ....    0.0000
   Turn off err/grad.   DampErr         ....    0.1000
 Fernandez-Rico         CNVRico         .... off

SCF Procedure:
 Maximum # iterations   MaxIter         ....   150
 SCF integral mode      SCFMode         .... Direct
   Integral package                     .... SHARK and LIBINT hybrid scheme
 Reset frequency        DirectResetFreq ....    20
 Integral Threshold     Thresh          ....  2.500e-11 Eh
 Primitive CutOff       TCut            ....  2.500e-12 Eh

Convergence Tolerance:
 Convergence Check Mode ConvCheckMode   .... Total+1el-Energy
 Convergence forced     ConvForced      .... 0
 Energy Change          TolE            ....  1.000e-08 Eh
 1-El. energy change                    ....  1.000e-05 Eh
 Orbital Gradient       TolG            ....  1.000e-05
 Orbital Rotation angle TolX            ....  1.000e-05
 DIIS Error             TolErr          ....  5.000e-07


Diagonalization of the overlap matrix:
Smallest eigenvalue                        ... 1.290e-05
Time for diagonalization                   ...    0.011 sec
Threshold for overlap eigenvalues          ... 1.000e-08
Number of eigenvalues below threshold      ... 0
Time for construction of square roots      ...    0.007 sec
Total time needed                          ...    0.018 sec

Time for model grid setup =    0.058 sec

------------------------------
INITIAL GUESS: MODEL POTENTIAL
------------------------------
Loading Hartree-Fock densities                     ... done
Calculating cut-offs                               ... done
Initializing the effective Hamiltonian             ... done
Setting up the integral package (SHARK)            ... done
Starting the Coulomb interaction                   ... done (   0.0 sec)
Reading the grid                                   ... done
Mapping shells                                     ... done
Starting the XC term evaluation                    ... done (   0.1 sec)
  promolecular density results
     # of electrons  =     26.995751895
     EX              =    -19.284614558
     EC              =     -0.855257384
     EX+EC           =    -20.139871942
Transforming the Hamiltonian                       ... done (   0.0 sec)
Diagonalizing the Hamiltonian                      ... done (   0.0 sec)
Back transforming the eigenvectors                 ... done (   0.0 sec)
Now organizing SCF variables                       ... done
                      ------------------
                      INITIAL GUESS DONE (   0.2 sec)
                      ------------------
-------------------
DFT GRID GENERATION
-------------------

General Integration Accuracy     IntAcc      ... 4.388
Radial Grid Type                 RadialGrid  ... OptM3 with GC (2021)
Angular Grid (max. ang.)         AngularGrid ... 4 (Lebedev-302)
Angular grid pruning method      GridPruning ... 4 (adaptive)
Weight generation scheme         WeightScheme... Becke
Basis function cutoff            BFCut       ... 1.0000e-11
Integration weight cutoff        WCut        ... 1.0000e-14
Angular grids for H and He will be reduced by one unit
Partially contracted basis set               ... off
Rotationally invariant grid construction     ... off

Total number of grid points                  ...    46392
Total number of batches                      ...      731
Average number of points per batch           ...       63
Average number of grid points per atom       ...     4217
Time for grid setup =    0.286 sec

--------------------
COSX GRID GENERATION
--------------------

GRIDX 1
-------
General Integration Accuracy     IntAcc      ... 3.816
Radial Grid Type                 RadialGrid  ... OptM3 with GC (2021)
Angular Grid (max. ang.)         AngularGrid ... 1 (Lebedev-50)
Angular grid pruning method      GridPruning ... 4 (adaptive)
Weight generation scheme         WeightScheme... Becke
Basis function cutoff            BFCut       ... 1.0000e-11
Integration weight cutoff        WCut        ... 1.0000e-14
Angular grids for H and He will be reduced by one unit
Partially contracted basis set               ... on
Rotationally invariant grid construction     ... off

Total number of grid points                  ...     5817
Total number of batches                      ...       97
Average number of points per batch           ...       59
Average number of grid points per atom       ...      529
UseSFitting                                  ... on

GRIDX 2
-------
General Integration Accuracy     IntAcc      ... 4.020
Radial Grid Type                 RadialGrid  ... OptM3 with GC (2021)
Angular Grid (max. ang.)         AngularGrid ... 2 (Lebedev-110)
Angular grid pruning method      GridPruning ... 4 (adaptive)
Weight generation scheme         WeightScheme... Becke
Basis function cutoff            BFCut       ... 1.0000e-11
Integration weight cutoff        WCut        ... 1.0000e-14
Angular grids for H and He will be reduced by one unit
Partially contracted basis set               ... on
Rotationally invariant grid construction     ... off

Total number of grid points                  ...    13421
Total number of batches                      ...      216
Average number of points per batch           ...       62
Average number of grid points per atom       ...     1220
UseSFitting                                  ... on

GRIDX 3
-------
General Integration Accuracy     IntAcc      ... 4.338
Radial Grid Type                 RadialGrid  ... OptM3 with GC (2021)
Angular Grid (max. ang.)         AngularGrid ... 3 (Lebedev-194)
Angular grid pruning method      GridPruning ... 4 (adaptive)
Weight generation scheme         WeightScheme... Becke
Basis function cutoff            BFCut       ... 1.0000e-11
Integration weight cutoff        WCut        ... 1.0000e-14
Angular grids for H and He will be reduced by one unit
Partially contracted basis set               ... on
Rotationally invariant grid construction     ... off

Total number of grid points                  ...    30567
Total number of batches                      ...      485
Average number of points per batch           ...       63
Average number of grid points per atom       ...     2779
UseSFitting                                  ... on

Time for X-Grid setup             =    0.283 sec

--------------
SCF ITERATIONS
--------------
ITER       Energy         Delta-E        Max-DP      RMS-DP      [F,P]     Damp
               ***  Starting incremental Fock matrix formation  ***
  0   -135.3904736114   0.000000000000 0.12766623  0.00201035  0.1930216 0.7000
  1   -135.4381128683  -0.047639256873 0.09171472  0.00151149  0.0991334 0.7000
                               ***Turning on DIIS***
  2   -135.4582226939  -0.020109825625 0.12432948  0.00271024  0.0360012 0.0000
  3   -135.4875786810  -0.029355987049 0.06237989  0.00080523  0.0571404 0.0000
  4   -135.4950345178  -0.007455836812 0.00859979  0.00017647  0.0091994 0.0000
                      *** Initiating the SOSCF procedure ***
                           *** Shutting down DIIS ***
                      *** Re-Reading the Fockian *** 
                      *** Removing any level shift *** 
ITER      Energy       Delta-E        Grad      Rot      Max-DP    RMS-DP
  5   -135.49531486  -0.0002803461  0.000483  0.000483  0.003113  0.000067
               *** Restarting incremental Fock matrix formation ***
  6   -135.49534641  -0.0000315426  0.000268  0.000733  0.001944  0.000040
  7   -135.49534621   0.0000001991  0.000306  0.000214  0.001454  0.000018
  8   -135.49534966  -0.0000034493  0.000031  0.000036  0.000169  0.000003
  9   -135.49534966  -0.0000000004  0.000028  0.000017  0.000071  0.000001
                  ***Gradient check signals convergence***
              ***Rediagonalizing the Fockian in SOSCF/NRSCF***

               *****************************************************
               *                     SUCCESS                       *
               *           SCF CONVERGED AFTER  10 CYCLES          *
               *****************************************************

Old exchange energy                            =     -3.923229102 Eh
New exchange energy                            =     -3.923234304 Eh
Exchange energy change after final integration =     -0.000005202 Eh
Total energy after final integration           =   -135.495354880 Eh
Final COS-X integration done in                =     1.751 sec

----------------
TOTAL SCF ENERGY
----------------

Total Energy       :         -135.49535488 Eh           -3687.01605 eV

Components:
Nuclear Repulsion  :           90.64801273 Eh            2466.65783 eV
Electronic Energy  :         -226.14336761 Eh           -6153.67388 eV
One Electron Energy:         -354.25950017 Eh           -9639.89108 eV
Two Electron Energy:          128.11613255 Eh            3486.21720 eV
Max COSX asymmetry :            0.00000116 Eh               0.00003 eV

Virial components:
Potential Energy   :         -270.44028126 Eh           -7359.05418 eV
Kinetic Energy     :          134.94492638 Eh            3672.03813 eV
Virial Ratio       :            2.00407891


DFT components:
N(Alpha)           :       13.000022538283 electrons
N(Beta)            :       13.000022538283 electrons
N(Total)           :       26.000045076565 electrons
E(X)               :      -15.552181054437 Eh       
E(C)               :       -0.986689155272 Eh       
E(XC)              :      -16.538870209709 Eh       
DFET-embed. en.    :        0.000000000000 Eh       

---------------
SCF CONVERGENCE
---------------

  Last Energy change         ...   -2.1142e-08  Tolerance :   1.0000e-08
  Last MAX-Density change    ...    8.8818e-16  Tolerance :   1.0000e-07
  Last RMS-Density change    ...    1.4182e-17  Tolerance :   5.0000e-09
  Last Orbital Gradient      ...    2.4191e-06  Tolerance :   1.0000e-05
  Last Orbital Rotation      ...    4.0185e-06  Tolerance :   1.0000e-05

             **** THE GBW FILE WAS UPDATED (TZVPD_B3LYP_A_wt_dlpno_pos.gbw) ****
             **** DENSITY TZVPD_B3LYP_A_wt_dlpno_pos.scfp WAS UPDATED ****
             **** ENERGY FILE WAS UPDATED (TZVPD_B3LYP_A_wt_dlpno_pos.en.tmp) ****
             **** THE GBW FILE WAS UPDATED (TZVPD_B3LYP_A_wt_dlpno_pos.gbw) ****
             **** DENSITY TZVPD_B3LYP_A_wt_dlpno_pos.scfp WAS UPDATED ****
----------------
ORBITAL ENERGIES
----------------

  NO   OCC          E(Eh)            E(eV) 
   0   2.0000     -14.650136      -398.6505 
   1   2.0000     -10.422283      -283.6047 
   2   2.0000     -10.342691      -281.4389 
   3   2.0000      -1.217218       -33.1222 
   4   2.0000      -0.966244       -26.2928 
   5   2.0000      -0.845132       -22.9972 
   6   2.0000      -0.803864       -21.8743 
   7   2.0000      -0.785942       -21.3866 
   8   2.0000      -0.697795       -18.9880 
   9   2.0000      -0.643773       -17.5179 
  10   2.0000      -0.583863       -15.8877 
  11   2.0000      -0.569676       -15.5017 
  12   2.0000      -0.552859       -15.0441 
  13   0.0000      -0.203644        -5.5414 
  14   0.0000      -0.145566        -3.9610 
  15   0.0000      -0.141550        -3.8518 
  16   0.0000      -0.133950        -3.6450 
  17   0.0000      -0.103400        -2.8136 
  18   0.0000      -0.095364        -2.5950 
  19   0.0000      -0.078127        -2.1259 
  20   0.0000      -0.066820        -1.8183 
  21   0.0000      -0.054841        -1.4923 
  22   0.0000      -0.046266        -1.2589 
  23   0.0000      -0.035240        -0.9589 
  24   0.0000      -0.027551        -0.7497 
  25   0.0000      -0.017088        -0.4650 
  26   0.0000       0.000197         0.0054 
  27   0.0000       0.006719         0.1828 
  28   0.0000       0.013024         0.3544 
  29   0.0000       0.036709         0.9989 
  30   0.0000       0.047243         1.2855 
  31   0.0000       0.065331         1.7777 
  32   0.0000       0.069675         1.8960 
  33   0.0000       0.081811         2.2262 
  34   0.0000       0.087941         2.3930 
  35   0.0000       0.100247         2.7278 
  36   0.0000       0.109811         2.9881 
  37   0.0000       0.117169         3.1883 
  38   0.0000       0.120842         3.2883 
  39   0.0000       0.136366         3.7107 
  40   0.0000       0.141493         3.8502 
  41   0.0000       0.146141         3.9767 
  42   0.0000       0.156459         4.2575 
  43   0.0000       0.160890         4.3780 
  44   0.0000       0.170168         4.6305 
  45   0.0000       0.177950         4.8423 
  46   0.0000       0.187098         5.0912 
  47   0.0000       0.200765         5.4631 
  48   0.0000       0.211902         5.7661 
  49   0.0000       0.220619         6.0034 
  50   0.0000       0.223173         6.0729 
  51   0.0000       0.235641         6.4121 
  52   0.0000       0.239321         6.5123 
  53   0.0000       0.249413         6.7869 
  54   0.0000       0.259544         7.0626 
  55   0.0000       0.271994         7.4013 
  56   0.0000       0.274726         7.4757 
  57   0.0000       0.283910         7.7256 
  58   0.0000       0.290220         7.8973 
  59   0.0000       0.292713         7.9651 
  60   0.0000       0.315288         8.5794 
  61   0.0000       0.333855         9.0847 
  62   0.0000       0.340523         9.2661 
  63   0.0000       0.366674         9.9777 
  64   0.0000       0.393963        10.7203 
  65   0.0000       0.401283        10.9195 
  66   0.0000       0.446237        12.1427 
  67   0.0000       0.451255        12.2793 
  68   0.0000       0.464860        12.6495 
  69   0.0000       0.487166        13.2565 
  70   0.0000       0.499952        13.6044 
  71   0.0000       0.508834        13.8461 
  72   0.0000       0.523838        14.2544 
  73   0.0000       0.528795        14.3893 
  74   0.0000       0.543553        14.7908 
  75   0.0000       0.544295        14.8110 
  76   0.0000       0.562340        15.3021 
  77   0.0000       0.563646        15.3376 
  78   0.0000       0.574535        15.6339 
  79   0.0000       0.598144        16.2763 
  80   0.0000       0.620902        16.8956 
  81   0.0000       0.642523        17.4839 
  82   0.0000       0.689503        18.7623 
  83   0.0000       0.701983        19.1019 
  84   0.0000       0.748367        20.3641 
  85   0.0000       0.773121        21.0377 
  86   0.0000       0.783911        21.3313 
  87   0.0000       0.870051        23.6753 
  88   0.0000       0.891925        24.2705 
  89   0.0000       0.944825        25.7100 
  90   0.0000       0.961442        26.1622 
  91   0.0000       1.013793        27.5867 
  92   0.0000       1.043897        28.4059 
  93   0.0000       1.064742        28.9731 
  94   0.0000       1.113978        30.3129 
  95   0.0000       1.151964        31.3465 
  96   0.0000       1.216877        33.1129 
  97   0.0000       1.264097        34.3978 
  98   0.0000       1.330468        36.2039 
  99   0.0000       1.400056        38.0975 
 100   0.0000       1.415137        38.5078 
 101   0.0000       1.467738        39.9392 
 102   0.0000       1.557044        42.3693 
 103   0.0000       1.577367        42.9223 
 104   0.0000       1.592122        43.3238 
 105   0.0000       1.597175        43.4613 
 106   0.0000       1.611234        43.8439 
 107   0.0000       1.663906        45.2772 
 108   0.0000       1.684539        45.8386 
 109   0.0000       1.692022        46.0423 
 110   0.0000       1.698117        46.2081 
 111   0.0000       1.762224        47.9525 
 112   0.0000       1.802661        49.0529 
 113   0.0000       1.833174        49.8832 
 114   0.0000       1.877669        51.0940 
 115   0.0000       1.930724        52.5377 
 116   0.0000       1.977648        53.8145 
 117   0.0000       1.993312        54.2408 
 118   0.0000       2.043000        55.5929 
 119   0.0000       2.104557        57.2679 
 120   0.0000       2.149993        58.5043 
 121   0.0000       2.193178        59.6794 
 122   0.0000       2.203762        59.9674 
 123   0.0000       2.260610        61.5143 
 124   0.0000       2.307971        62.8031 
 125   0.0000       2.332133        63.4606 
 126   0.0000       2.345046        63.8119 
 127   0.0000       2.384793        64.8935 
 128   0.0000       2.427249        66.0488 
 129   0.0000       2.457883        66.8824 
 130   0.0000       2.485136        67.6240 
 131   0.0000       2.507389        68.2295 
 132   0.0000       2.529425        68.8291 
 133   0.0000       2.543197        69.2039 
 134   0.0000       2.586171        70.3733 
 135   0.0000       2.613540        71.1180 
 136   0.0000       2.635731        71.7219 
 137   0.0000       2.660707        72.4015 
 138   0.0000       2.743039        74.6419 
 139   0.0000       2.808802        76.4314 
 140   0.0000       2.842408        77.3458 
 141   0.0000       2.903895        79.0190 
 142   0.0000       2.934661        79.8562 
 143   0.0000       2.969836        80.8133 
 144   0.0000       2.989495        81.3483 
 145   0.0000       3.043437        82.8161 
 146   0.0000       3.080316        83.8197 
 147   0.0000       3.101283        84.3902 
 148   0.0000       3.155955        85.8779 
 149   0.0000       3.189849        86.8002 
 150   0.0000       3.234576        88.0173 
 151   0.0000       3.303469        89.8920 
 152   0.0000       3.317781        90.2814 
 153   0.0000       3.356473        91.3343 
 154   0.0000       3.467003        94.3419 
 155   0.0000       3.527782        95.9958 
 156   0.0000       3.621115        98.5356 
 157   0.0000       3.637806        98.9897 
 158   0.0000       3.722535       101.2953 
 159   0.0000       3.784376       102.9781 
 160   0.0000       3.867917       105.2514 
 161   0.0000       3.881103       105.6102 
 162   0.0000       4.056317       110.3780 
 163   0.0000       4.086159       111.1900 
 164   0.0000       4.174535       113.5949 
 165   0.0000       4.328671       117.7891 
 166   0.0000       4.345828       118.2560 
 167   0.0000       4.481864       121.9577 
 168   0.0000       4.537507       123.4718 
 169   0.0000       4.577660       124.5645 
 170   0.0000       4.615897       125.6050 
 171   0.0000       4.678379       127.3052 
 172   0.0000       4.710896       128.1900 
 173   0.0000       4.823765       131.2613 
 174   0.0000       4.869500       132.5058 
 175   0.0000       4.974371       135.3595 
 176   0.0000       5.086154       138.4013 
 177   0.0000       5.235114       142.4547 
 178   0.0000       5.340864       145.3323 
 179   0.0000       5.638693       153.4366 
 180   0.0000      22.323518       607.4538 
 181   0.0000      22.373906       608.8249 
 182   0.0000      31.917971       868.5322 

                    ********************************
                    * MULLIKEN POPULATION ANALYSIS *
                    ********************************

-----------------------
MULLIKEN ATOMIC CHARGES
-----------------------
   0 C :   -0.266613
   1 H :    0.292214
   2 N :   -0.254419
   3 C :   -1.077675
   4 H :    0.288460
   5 H :    0.338363
   6 H :    0.343487
   7 H :    0.314200
   8 H :    0.363656
   9 H :    0.347127
  10 H :    0.311202
Sum of atomic charges:    1.0000000

--------------------------------
MULLIKEN REDUCED ORBITAL CHARGES
--------------------------------
  0 C s       :     3.303921  s :     3.303921
      pz      :     1.063526  p :     2.951164
      px      :     1.199549
      py      :     0.688088
      dz2     :    -0.003901  d :     0.003422
      dxz     :    -0.035483
      dyz     :     0.009591
      dx2y2   :     0.022678
      dxy     :     0.010536
      f0      :     0.001649  f :     0.008107
      f+1     :     0.001018
      f-1     :     0.001667
      f+2     :     0.001033
      f-2     :     0.000110
      f+3     :     0.001167
      f-3     :     0.001463
  1 H s       :     0.661388  s :     0.661388
      pz      :     0.022286  p :     0.046398
      px      :     0.012612
      py      :     0.011500
  2 N s       :     3.420318  s :     3.420318
      pz      :     1.249941  p :     3.762668
      px      :     1.254589
      py      :     1.258138
      dz2     :     0.005691  d :     0.069298
      dxz     :     0.005365
      dyz     :     0.022030
      dx2y2   :     0.003618
      dxy     :     0.032594
      f0      :     0.000199  f :     0.002136
      f+1     :     0.000413
      f-1     :     0.000327
      f+2     :     0.000254
      f-2     :     0.000085
      f+3     :     0.000540
      f-3     :     0.000317
  3 C s       :     3.432112  s :     3.432112
      pz      :     0.892490  p :     3.588963
      px      :     1.360563
      py      :     1.335910
      dz2     :     0.005386  d :     0.052986
      dxz     :    -0.007655
      dyz     :    -0.006833
      dx2y2   :     0.029405
      dxy     :     0.032684
      f0      :     0.001082  f :     0.003614
      f+1     :     0.000859
      f-1     :     0.000733
      f+2     :     0.000171
      f-2     :     0.000030
      f+3     :     0.000048
      f-3     :     0.000691
  4 H s       :     0.661109  s :     0.661109
      pz      :     0.018692  p :     0.050431
      px      :     0.018395
      py      :     0.013344
  5 H s       :     0.622646  s :     0.622646
      pz      :     0.023677  p :     0.038991
      px      :     0.008882
      py      :     0.006431
  6 H s       :     0.622591  s :     0.622591
      pz      :     0.005391  p :     0.033922
      px      :     0.024629
      py      :     0.003902
  7 H s       :     0.644264  s :     0.644264
      pz      :     0.016688  p :     0.041536
      px      :     0.010911
      py      :     0.013937
  8 H s       :     0.568557  s :     0.568557
      pz      :     0.020831  p :     0.067787
      px      :     0.028536
      py      :     0.018421
  9 H s       :     0.584663  s :     0.584663
      pz      :     0.014403  p :     0.068210
      px      :     0.033659
      py      :     0.020149
 10 H s       :     0.609147  s :     0.609147
      pz      :    -0.000712  p :     0.079651
      px      :     0.037006
      py      :     0.043357


                     *******************************
                     * LOEWDIN POPULATION ANALYSIS *
                     *******************************

----------------------
LOEWDIN ATOMIC CHARGES
----------------------
   0 C :   -0.198090
   1 H :    0.134543
   2 N :    0.183760
   3 C :   -0.050562
   4 H :    0.134991
   5 H :    0.179353
   6 H :    0.182109
   7 H :    0.178939
   8 H :    0.081614
   9 H :    0.081735
  10 H :    0.091609

-------------------------------
LOEWDIN REDUCED ORBITAL CHARGES
-------------------------------
  0 C s       :     2.687843  s :     2.687843
      pz      :     0.980779  p :     2.709762
      px      :     0.971992
      py      :     0.756991
      dz2     :     0.151724  d :     0.747252
      dxz     :     0.159372
      dyz     :     0.189143
      dx2y2   :     0.137735
      dxy     :     0.109277
      f0      :     0.008650  f :     0.053234
      f+1     :     0.005656
      f-1     :     0.010845
      f+2     :     0.007378
      f-2     :     0.004653
      f+3     :     0.007408
      f-3     :     0.008644
  1 H s       :     0.676918  s :     0.676918
      pz      :     0.062375  p :     0.188539
      px      :     0.078327
      py      :     0.047837
  2 N s       :     2.909763  s :     2.909763
      pz      :     1.148340  p :     3.478228
      px      :     1.152824
      py      :     1.177064
      dz2     :     0.057524  d :     0.417553
      dxz     :     0.023744
      dyz     :     0.126212
      dx2y2   :     0.087290
      dxy     :     0.122783
      f0      :     0.000999  f :     0.010695
      f+1     :     0.001450
      f-1     :     0.001586
      f+2     :     0.001135
      f-2     :     0.001595
      f+3     :     0.002691
      f-3     :     0.001240
  3 C s       :     2.728712  s :     2.728712
      pz      :     0.920364  p :     2.883224
      px      :     0.982926
      py      :     0.979935
      dz2     :     0.116589  d :     0.411076
      dxz     :     0.130869
      dyz     :     0.072429
      dx2y2   :     0.061536
      dxy     :     0.029653
      f0      :     0.006504  f :     0.027551
      f+1     :     0.005074
      f-1     :     0.005766
      f+2     :     0.001891
      f-2     :     0.004027
      f+3     :     0.000547
      f-3     :     0.003742
  4 H s       :     0.677664  s :     0.677664
      pz      :     0.055354  p :     0.187345
      px      :     0.091503
      py      :     0.040489
  5 H s       :     0.596839  s :     0.596839
      pz      :     0.104669  p :     0.223808
      px      :     0.060885
      py      :     0.058255
  6 H s       :     0.593849  s :     0.593849
      pz      :     0.049390  p :     0.224041
      px      :     0.116713
      py      :     0.057939
  7 H s       :     0.591550  s :     0.591550
      pz      :     0.090835  p :     0.229511
      px      :     0.064263
      py      :     0.074413
  8 H s       :     0.700276  s :     0.700276
      pz      :     0.062257  p :     0.218110
      px      :     0.085387
      py      :     0.070466
  9 H s       :     0.701479  s :     0.701479
      pz      :     0.055562  p :     0.216786
      px      :     0.098067
      py      :     0.063157
 10 H s       :     0.693083  s :     0.693083
      pz      :     0.049039  p :     0.215308
      px      :     0.057541
      py      :     0.108729


                      *****************************
                      * MAYER POPULATION ANALYSIS *
                      *****************************

  NA   - Mulliken gross atomic population
  ZA   - Total nuclear charge
  QA   - Mulliken gross atomic charge
  VA   - Mayer's total valence
  BVA  - Mayer's bonded valence
  FA   - Mayer's free valence

  ATOM       NA         ZA         QA         VA         BVA        FA
  0 C      6.2666     6.0000    -0.2666     3.3355     3.3355     0.0000
  1 H      0.7078     1.0000     0.2922     0.9763     0.9763     0.0000
  2 N      7.2544     7.0000    -0.2544     3.5992     3.5992    -0.0000
  3 C      7.0777     6.0000    -1.0777     3.5631     3.5631     0.0000
  4 H      0.7115     1.0000     0.2885     0.9553     0.9553     0.0000
  5 H      0.6616     1.0000     0.3384     0.8776     0.8776    -0.0000
  6 H      0.6565     1.0000     0.3435     0.8580     0.8580    -0.0000
  7 H      0.6858     1.0000     0.3142     0.9183     0.9183    -0.0000
  8 H      0.6363     1.0000     0.3637     1.0008     1.0008     0.0000
  9 H      0.6529     1.0000     0.3471     1.0277     1.0277    -0.0000
 10 H      0.6888     1.0000     0.3112     1.0771     1.0771     0.0000

  Mayer bond orders larger than 0.100000
B(  0-C ,  1-H ) :   0.9316 B(  0-C ,  2-N ) :   0.9518 B(  0-C ,  3-C ) :   0.6583 
B(  0-C ,  4-H ) :   0.9252 B(  2-N ,  5-H ) :   0.8731 B(  2-N ,  6-H ) :   0.8641 
B(  2-N ,  7-H ) :   0.8779 B(  3-C ,  8-H ) :   0.9068 B(  3-C ,  9-H ) :   0.9476 
B(  3-C , 10-H ) :   0.9794 

-------
TIMINGS
-------

Total SCF time: 0 days 0 hours 0 min 12 sec 

Total time                  ....      12.829 sec
Sum of individual times     ....      12.646 sec  ( 98.6%)

Fock matrix formation       ....      11.776 sec  ( 91.8%)
  Split-RI-J                ....       0.766 sec  (  6.5% of F)
  Chain of spheres X        ....       8.498 sec  ( 72.2% of F)
  XC integration            ....       2.479 sec  ( 21.1% of F)
    Basis function eval.    ....       0.738 sec  ( 29.8% of XC)
    Density eval.           ....       0.580 sec  ( 23.4% of XC)
    XC-Functional eval.     ....       0.128 sec  (  5.2% of XC)
    XC-Potential eval.      ....       0.937 sec  ( 37.8% of XC)
Diagonalization             ....       0.052 sec  (  0.4%)
Density matrix formation    ....       0.004 sec  (  0.0%)
Population analysis         ....       0.007 sec  (  0.1%)
Initial guess               ....       0.122 sec  (  0.9%)
Orbital Transformation      ....       0.000 sec  (  0.0%)
Orbital Orthonormalization  ....       0.000 sec  (  0.0%)
DIIS solution               ....       0.028 sec  (  0.2%)
SOSCF solution              ....       0.029 sec  (  0.2%)
Grid generation             ....       0.627 sec  (  4.9%)

Maximum memory used throughout the entire SCF-calculation: 66.6 MB


-------------------------------------------------------------------------------
                          DFT DISPERSION CORRECTION                            
                                                                               
                              DFTD3 V3.1  Rev 1                                
                          USING Becke-Johnson damping                          
-------------------------------------------------------------------------------
The B3LYP functional is recognized
Active option DFTDOPT                   ...         4   

molecular C6(AA) [au] = 702.295133 


            DFT-D V3
 parameters
 s6 scaling factor         :     1.0000 
 a1 scaling factor         :     0.3981 
 s8 scaling factor         :     1.9889 
 a2 scaling factor         :     4.4211 
 ad hoc parameters k1-k3   :    16.0000     1.3333    -4.0000 

 Edisp/kcal,au: -6.299651399525  -0.010039132456 
 E6   /kcal   :  -3.233393454 
 E8   /kcal   :  -3.066257946 
 % E8         :  48.673454312 

-------------------------   ----------------
Dispersion correction           -0.010039132
-------------------------   ----------------


-------------------------   --------------------
FINAL SINGLE POINT ENERGY      -135.505394012814
-------------------------   --------------------


                            ***************************************
                            *     ORCA property calculations      *
                            ***************************************

                                    ---------------------
                                    Active property flags
                                    ---------------------
   (+) Dipole Moment


------------------------------------------------------------------------------
                       ORCA ELECTRIC PROPERTIES CALCULATION
------------------------------------------------------------------------------

Dipole Moment Calculation                       ... on
Quadrupole Moment Calculation                   ... off
Polarizability Calculation                      ... off
GBWName                                         ... TZVPD_B3LYP_A_wt_dlpno_pos.gbw
Electron density file                           ... TZVPD_B3LYP_A_wt_dlpno_pos.scfp
The origin for moment calculation is the CENTER OF MASS  = ( 7.298990,  1.750738 -1.463468)

-------------
DIPOLE MOMENT
-------------
                                X             Y             Z
Electronic contribution:     -0.01140       1.31819       1.24042
Nuclear contribution   :     -0.06214      -0.04120      -0.39947
                        -----------------------------------------
Total Dipole Moment    :     -0.07354       1.27699       0.84094
                        -----------------------------------------
Magnitude (a.u.)       :      1.53078
Magnitude (Debye)      :      3.89095



--------------------
Rotational spectrum 
--------------------
 
Rotational constants in cm-1:     1.011771     0.281435     0.249812 
Rotational constants in MHz : 30332.138762  8437.210602  7489.166323 

 Dipole components along the rotational axes: 
x,y,z [a.u.] :    -1.510287    -0.249554    -0.007716 
x,y,z [Debye]:    -3.838844    -0.634316    -0.019613 

 

Timings for individual modules:

Sum of individual times         ...       16.461 sec (=   0.274 min)
GTO integral calculation        ...        1.971 sec (=   0.033 min)  12.0 %
SCF iterations                  ...       14.490 sec (=   0.242 min)  88.0 %
                             ****ORCA TERMINATED NORMALLY****
TOTAL RUN TIME: 0 days 0 hours 0 minutes 16 seconds 968 msec
