
                                        *****************
                                        * O   R   C   A *
                                        *****************

                                            #,                                       
                                            ###                                      
                                            ####                                     
                                            #####                                    
                                            ######                                   
                                           ########,                                 
                                     ,,################,,,,,                         
                               ,,#################################,,                 
                          ,,##########################################,,             
                       ,#########################################, ''#####,          
                    ,#############################################,,   '####,        
                  ,##################################################,,,,####,       
                ,###########''''           ''''###############################       
              ,#####''   ,,,,##########,,,,          '''####'''          '####       
            ,##' ,,,,###########################,,,                        '##       
           ' ,,###''''                  '''############,,,                           
         ,,##''                                '''############,,,,        ,,,,,,###''
      ,#''                                            '''#######################'''  
     '                                                          ''''####''''         
             ,#######,   #######,   ,#######,      ##                                
            ,#'     '#,  ##    ##  ,#'     '#,    #''#        ######   ,####,        
            ##       ##  ##   ,#'  ##            #'  '#       #        #'  '#        
            ##       ##  #######   ##           ,######,      #####,   #    #        
            '#,     ,#'  ##    ##  '#,     ,#' ,#      #,         ##   #,  ,#        
             '#######'   ##     ##  '#######'  #'      '#     #####' # '####'        



                  #######################################################
                  #                        -***-                        #
                  #          Department of theory and spectroscopy      #
                  #    Directorship and core code : Frank Neese         #
                  #        Max Planck Institute fuer Kohlenforschung    #
                  #                Kaiser Wilhelm Platz 1               #
                  #                 D-45470 Muelheim/Ruhr               #
                  #                      Germany                        #
                  #                                                     #
                  #                  All rights reserved                #
                  #                        -***-                        #
                  #######################################################


                         Program Version 5.0.0 -  RELEASE  -
                                (SVN: $Rev: 19529$)
                ($Date: 2021-06-28 11:36:33 +0200 (Mo, 28 Jun 2021) $)


 With contributions from (in alphabetic order):
   Daniel Aravena         : Magnetic Suceptibility
   Michael Atanasov       : Ab Initio Ligand Field Theory (pilot matlab implementation)
   Alexander A. Auer      : GIAO ZORA, VPT2 properties, NMR spectrum
   Ute Becker             : Parallelization
   Giovanni Bistoni       : ED, misc. LED, open-shell LED, HFLD
   Martin Brehm           : Molecular dynamics
   Dmytro Bykov           : SCF Hessian
   Vijay G. Chilkuri      : MRCI spin determinant printing, contributions to CSF-ICE
   Dipayan Datta          : RHF DLPNO-CCSD density
   Achintya Kumar Dutta   : EOM-CC, STEOM-CC
   Dmitry Ganyushin       : Spin-Orbit,Spin-Spin,Magnetic field MRCI
   Miquel Garcia          : C-PCM Hessian, Gaussian charge scheme
   Yang Guo               : DLPNO-NEVPT2, F12-NEVPT2, CIM, IAO-localization
   Andreas Hansen         : Spin unrestricted coupled pair/coupled cluster methods
   Benjamin Helmich-Paris : MC-RPA, TRAH-SCF, COSX integrals
   Lee Huntington         : MR-EOM, pCC
   Robert Izsak           : Overlap fitted RIJCOSX, COSX-SCS-MP3, EOM
   Marcus Kettner         : VPT2
   Christian Kollmar      : KDIIS, OOCD, Brueckner-CCSD(T), CCSD density, CASPT2, CASPT2-K
   Simone Kossmann        : Meta GGA functionals, TD-DFT gradient, OOMP2, MP2 Hessian
   Martin Krupicka        : Initial AUTO-CI
   Lucas Lang             : DCDCAS
   Marvin Lechner         : AUTO-CI (C++ implementation), FIC-MRCC
   Dagmar Lenk            : GEPOL surface, SMD
   Dimitrios Liakos       : Extrapolation schemes; Compound Job, initial MDCI parallelization
   Dimitrios Manganas     : Further ROCIS development; embedding schemes
   Dimitrios Pantazis     : SARC Basis sets
   Anastasios Papadopoulos: AUTO-CI, single reference methods and gradients
   Taras Petrenko         : DFT Hessian,TD-DFT gradient, ASA, ECA, R-Raman, ABS, FL, XAS/XES, NRVS
   Peter Pinski           : DLPNO-MP2, DLPNO-MP2 Gradient
   Christoph Reimann      : Effective Core Potentials
   Marius Retegan         : Local ZFS, SOC
   Christoph Riplinger    : Optimizer, TS searches, QM/MM, DLPNO-CCSD(T), (RO)-DLPNO pert. Triples
   Tobias Risthaus        : Range-separated hybrids, TD-DFT gradient, RPA, STAB
   Michael Roemelt        : Original ROCIS implementation
   Masaaki Saitow         : Open-shell DLPNO-CCSD energy and density
   Barbara Sandhoefer     : DKH picture change effects
   Avijit Sen             : IP-ROCIS
   Kantharuban Sivalingam : CASSCF convergence, NEVPT2, FIC-MRCI
   Bernardo de Souza      : ESD, SOC TD-DFT
   Georgi Stoychev        : AutoAux, RI-MP2 NMR
   Willem Van den Heuvel  : Paramagnetic NMR
   Boris Wezisla          : Elementary symmetry handling
   Frank Wennmohs         : Technical directorship


 We gratefully acknowledge several colleagues who have allowed us to
 interface, adapt or use parts of their codes:
   Stefan Grimme, W. Hujo, H. Kruse, P. Pracht,  : VdW corrections, initial TS optimization,
                  C. Bannwarth, S. Ehlert          DFT functionals, gCP, sTDA/sTD-DF
   Ed Valeev, F. Pavosevic, A. Kumar             : LibInt (2-el integral package), F12 methods
   Garnet Chan, S. Sharma, J. Yang, R. Olivares  : DMRG
   Ulf Ekstrom                                   : XCFun DFT Library
   Mihaly Kallay                                 : mrcc  (arbitrary order and MRCC methods)
   Jiri Pittner, Ondrej Demel                    : Mk-CCSD
   Frank Weinhold                                : gennbo (NPA and NBO analysis)
   Christopher J. Cramer and Donald G. Truhlar   : smd solvation model
   Lars Goerigk                                  : TD-DFT with DH, B97 family of functionals
   V. Asgeirsson, H. Jonsson                     : NEB implementation
   FAccTs GmbH                                   : IRC, NEB, NEB-TS, DLPNO-Multilevel, CI-OPT
                                                   MM, QMMM, 2- and 3-layer-ONIOM, Crystal-QMMM,
                                                   LR-CPCM, SF, NACMEs, symmetry and pop. for TD-DFT,
                                                   nearIR, NL-DFT gradient (VV10), updates on ESD,
                                                   ML-optimized integration grids
   S Lehtola, MJT Oliveira, MAL Marques          : LibXC Library
   Liviu Ungur et al                             : ANISO software


 Your calculation uses the libint2 library for the computation of 2-el integrals
 For citations please refer to: http://libint.valeyev.net

 Your ORCA version has been built with support for libXC version: 5.1.0
 For citations please refer to: https://tddft.org/programs/libxc/

 This ORCA versions uses:
   CBLAS   interface :  Fast vector & matrix operations
   LAPACKE interface :  Fast linear algebra routines
   SCALAPACK package :  Parallel linear algebra routines
   Shared memory     :  Shared parallel matrices
   BLAS/LAPACK       :  OpenBLAS 0.3.15  USE64BITINT DYNAMIC_ARCH NO_AFFINITY Haswell SINGLE_THREADED
        Core in use  :  Haswell
   Copyright (c) 2011-2014, The OpenBLAS Project


Your calculation utilizes the atom-pairwise dispersion correction
with the Becke-Johnson damping scheme (D3BJ)
Cite in your paper:
S.Grimme, S.Ehrlich, L.Goerigk, J Comput Chem, (2011), 32, 1456–1465 
S.Grimme, J.Antony, S.Ehrlich and H.Krieg, J.Chem.Phys., 132, (2010), 154104 
   

================================================================================

----- Orbital basis set information -----
Your calculation utilizes the basis: def2-SVPD
   F. Weigend and R. Ahlrichs, Phys. Chem. Chem. Phys. 7, 3297 (2005).
   D. Rappoport and F. Furche, J. Chem. Phys. 133 134105 (2010).

----- AuxJ basis set information -----
Your calculation utilizes the auxiliary basis: def2/J
   F. Weigend, Phys. Chem. Chem. Phys. 8, 1057 (2006).

================================================================================
                                        WARNINGS
                       Please study these warnings very carefully!
================================================================================



WARNING: Found flag for RIJCOSX approximation but no HF exchange needed!
  ===> : RIJCOSX  will be disabled and Split-RI-J is turned on

INFO   : the flag for use of the SHARK integral package has been found!

================================================================================
                                       INPUT FILE
================================================================================
NAME = 18Feb_SVPD_BLYP_A_wt_wb97_typm1_pos.com
|  1> !BLYP D3BJ RIJCOSX def2-SVPD def2/J TightSCF 
|  2> *xyz 1 1
|  3> C          1.96337       -1.74915       -1.89689
|  4> N          2.73849       -2.01517       -3.09711
|  5> C          4.04974       -2.15472       -3.15204
|  6> N          4.65821       -1.98629       -4.31866
|  7> N          4.76423       -2.45444       -2.05049
|  8> H          4.28736       -2.77626       -1.21750
|  9> H          5.75082       -2.65835       -2.12599
| 10> H          2.34518       -1.69027       -3.97145
| 11> H          4.10900       -1.59268       -5.07176
| 12> H          5.64910       -2.15646       -4.42724
| 13> H          0.92556       -1.68522       -2.14942
| 14> H          2.28268       -0.82430       -1.46378
| 15> H          2.11118       -2.54207       -1.19381
| 16> *
| 17> %MaxCore 64000
| 18> 
| 19> %pal nprocs 8
| 20> end  
| 21> 
| 22> %scf
| 23>   MaxIter 150
| 24> end
| 25> 
| 26> 
| 27>                          ****END OF INPUT****
================================================================================

                       ****************************
                       * Single Point Calculation *
                       ****************************

---------------------------------
CARTESIAN COORDINATES (ANGSTROEM)
---------------------------------
  C      1.963370   -1.749150   -1.896890
  N      2.738490   -2.015170   -3.097110
  C      4.049740   -2.154720   -3.152040
  N      4.658210   -1.986290   -4.318660
  N      4.764230   -2.454440   -2.050490
  H      4.287360   -2.776260   -1.217500
  H      5.750820   -2.658350   -2.125990
  H      2.345180   -1.690270   -3.971450
  H      4.109000   -1.592680   -5.071760
  H      5.649100   -2.156460   -4.427240
  H      0.925560   -1.685220   -2.149420
  H      2.282680   -0.824300   -1.463780
  H      2.111180   -2.542070   -1.193810

----------------------------
CARTESIAN COORDINATES (A.U.)
----------------------------
  NO LB      ZA    FRAG     MASS         X           Y           Z
   0 C     6.0000    0    12.011    3.710232   -3.305414   -3.584603
   1 N     7.0000    0    14.007    5.174996   -3.808119   -5.852690
   2 C     6.0000    0    12.011    7.652900   -4.071831   -5.956492
   3 N     7.0000    0    14.007    8.802741   -3.753544   -8.161085
   4 N     7.0000    0    14.007    9.003090   -4.638219   -3.874865
   5 H     1.0000    0     1.008    8.101936   -5.246371   -2.300742
   6 H     1.0000    0     1.008   10.867475   -5.023553   -4.017539
   7 H     1.0000    0     1.008    4.431748   -3.194147   -7.504953
   8 H     1.0000    0     1.008    7.764885   -3.009729   -9.584237
   9 H     1.0000    0     1.008   10.675252   -4.075119   -8.366271
  10 H     1.0000    0     1.008    1.749055   -3.184604   -4.061815
  11 H     1.0000    0     1.008    4.313640   -1.557701   -2.766143
  12 H     1.0000    0     1.008    3.989552   -4.803816   -2.255974

--------------------------------
INTERNAL COORDINATES (ANGSTROEM)
--------------------------------
 C      0   0   0     0.000000000000     0.00000000     0.00000000
 N      1   0   0     1.453308536822     0.00000000     0.00000000
 C      2   1   0     1.319798495945   125.70558414     0.00000000
 N      3   2   1     1.326501651036   118.61421616   200.38175597
 N      3   2   1     1.346751811211   121.10321023    20.01727886
 H      5   3   2     1.012346506588   119.59453702    13.56866466
 H      5   3   2     1.010266977685   120.12495650   173.22985716
 H      2   1   3     1.012286126399   116.57303880   207.34688220
 H      4   3   2     1.011790524862   117.06612917    10.99918763
 H      4   3   2     1.011242027113   121.50248980   185.08027543
 H      1   2   3     1.070003757891   109.47098058   179.99987936
 H      1   2   3     1.069995640505   109.47152212    59.99999776
 H      1   2   3     1.069995985460   109.47133183   300.00016595

---------------------------
INTERNAL COORDINATES (A.U.)
---------------------------
 C      0   0   0     0.000000000000     0.00000000     0.00000000
 N      1   0   0     2.746355122684     0.00000000     0.00000000
 C      2   1   0     2.494057709298   125.70558414     0.00000000
 N      3   2   1     2.506724836652   118.61421616   200.38175597
 N      3   2   1     2.544992093551   121.10321023    20.01727886
 H      5   3   2     1.913057650082   119.59453702    13.56866466
 H      5   3   2     1.909127909968   120.12495650   173.22985716
 H      2   1   3     1.912943548062   116.57303880   207.34688220
 H      4   3   2     1.912006996885   117.06612917    10.99918763
 H      4   3   2     1.910970486355   121.50248980   185.08027543
 H      1   2   3     2.022014064680   109.47098058   179.99987936
 H      1   2   3     2.021998725044   109.47152212    59.99999776
 H      1   2   3     2.021999376914   109.47133183   300.00016595

---------------------
BASIS SET INFORMATION
---------------------
There are 3 groups of distinct atoms

 Group   1 Type C   : 8s4p2d contracted to 4s2p2d pattern {5111/31/11}
 Group   2 Type N   : 8s4p2d contracted to 4s2p2d pattern {5111/31/11}
 Group   3 Type H   : 4s2p contracted to 2s2p pattern {31/11}

Atom   0C    basis set group =>   1
Atom   1N    basis set group =>   2
Atom   2C    basis set group =>   1
Atom   3N    basis set group =>   2
Atom   4N    basis set group =>   2
Atom   5H    basis set group =>   3
Atom   6H    basis set group =>   3
Atom   7H    basis set group =>   3
Atom   8H    basis set group =>   3
Atom   9H    basis set group =>   3
Atom  10H    basis set group =>   3
Atom  11H    basis set group =>   3
Atom  12H    basis set group =>   3
---------------------------------
AUXILIARY/J BASIS SET INFORMATION
---------------------------------
There are 3 groups of distinct atoms

 Group   1 Type C   : 12s5p4d2f1g contracted to 6s4p3d1f1g pattern {711111/2111/211/2/1}
 Group   2 Type N   : 12s5p4d2f1g contracted to 6s4p3d1f1g pattern {711111/2111/211/2/1}
 Group   3 Type H   : 5s2p1d contracted to 3s1p1d pattern {311/2/1}

Atom   0C    basis set group =>   1
Atom   1N    basis set group =>   2
Atom   2C    basis set group =>   1
Atom   3N    basis set group =>   2
Atom   4N    basis set group =>   2
Atom   5H    basis set group =>   3
Atom   6H    basis set group =>   3
Atom   7H    basis set group =>   3
Atom   8H    basis set group =>   3
Atom   9H    basis set group =>   3
Atom  10H    basis set group =>   3
Atom  11H    basis set group =>   3
Atom  12H    basis set group =>   3


           ************************************************************
           *        Program running with 8 parallel MPI-processes     *
           *              working on a common directory               *
           ************************************************************
------------------------------------------------------------------------------
                           ORCA GTO INTEGRAL CALCULATION
                           -- RI-GTO INTEGRALS CHOSEN --
------------------------------------------------------------------------------
------------------------------------------------------------------------------
                   ___                                                        
                  /   \      - P O W E R E D   B Y -                         
                 /     \                                                     
                 |  |  |   _    _      __       _____    __    __             
                 |  |  |  | |  | |    /  \     |  _  \  |  |  /  |          
                  \  \/   | |  | |   /    \    | | | |  |  | /  /          
                 / \  \   | |__| |  /  /\  \   | |_| |  |  |/  /          
                |  |  |   |  __  | /  /__\  \  |    /   |      \           
                |  |  |   | |  | | |   __   |  |    \   |  |\   \          
                \     /   | |  | | |  |  |  |  | |\  \  |  | \   \       
                 \___/    |_|  |_| |__|  |__|  |_| \__\ |__|  \__/        
                                                                              
                      - O R C A' S   B I G   F R I E N D -                    
                                      &                                       
                       - I N T E G R A L  F E E D E R -                       
                                                                              
 v1 FN, 2020, v2 2021                                                         
------------------------------------------------------------------------------


Reading SHARK input file 18Feb_SVPD_BLYP_A_wt_wb97_typm1_pos.SHARKINP.tmp ... ok
----------------------
SHARK INTEGRAL PACKAGE
----------------------

Number of atoms                             ...     13
Number of basis functions                   ...    164
Number of shells                            ...     72
Maximum angular momentum                    ...      2
Integral batch strategy                     ... SHARK/LIBINT Hybrid
RI-J (if used) integral strategy            ... SPLIT-RIJ (Revised 2003 algorithm where possible)
Printlevel                                  ...      1
Contraction scheme used                     ... SEGMENTED contraction
Coulomb Range Separation                    ... NOT USED
Exchange Range Separation                   ... NOT USED
Finite Nucleus Model                        ... NOT USED
Auxiliary Coulomb fitting basis             ... AVAILABLE
   # of basis functions in Aux-J            ...    333
   # of shells in Aux-J                     ...    115
   Maximum angular momentum in Aux-J        ...      4
Auxiliary J/K fitting basis                 ... NOT available
Auxiliary Correlation fitting basis         ... NOT available
Auxiliary 'external' fitting basis          ... NOT available
Integral threshold                          ...     2.500000e-11
Primitive cut-off                           ...     2.500000e-12
Primitive pair pre-selection threshold      ...     2.500000e-12

Calculating pre-screening integrals         ... done (  0.0 sec) Dimension = 72
Organizing shell pair data                  ... done (  0.0 sec)
Shell pair information
Total number of shell pairs                 ...      2628
Shell pairs after pre-screening             ...      2604
Total number of primitive shell pairs       ...      7110
Primitive shell pairs kept                  ...      5996
          la=0 lb=0:    658 shell pairs
          la=1 lb=0:    926 shell pairs
          la=1 lb=1:    347 shell pairs
          la=2 lb=0:    358 shell pairs
          la=2 lb=1:    260 shell pairs
          la=2 lb=2:     55 shell pairs

Calculating one electron integrals          ... done (  0.0 sec)
Calculating RI/J V-Matrix + Cholesky decomp.... done (  0.0 sec)
Calculating Nuclear repulsion               ... done (  0.0 sec) ENN=    193.964583089587 Eh

SHARK setup successfully completed in   0.2 seconds

Maximum memory used throughout the entire GTOINT-calculation: 8.9 MB


           ************************************************************
           *        Program running with 8 parallel MPI-processes     *
           *              working on a common directory               *
           ************************************************************
-------------------------------------------------------------------------------
                                 ORCA SCF
-------------------------------------------------------------------------------

------------
SCF SETTINGS
------------
Hamiltonian:
 Density Functional     Method          .... DFT(GTOs)
 Exchange Functional    Exchange        .... B88
   X-Alpha parameter    XAlpha          ....  0.666667
   Becke's b parameter  XBeta           ....  0.004200
 Correlation Functional Correlation     .... LYP
 Gradients option       PostSCFGGA      .... off
   Density functional embedding theory  .... OFF
   NL short-range parameter             ....  4.000000
 RI-approximation to the Coulomb term is turned on
   Number of AuxJ basis functions       .... 333


General Settings:
 Integral files         IntName         .... 18Feb_SVPD_BLYP_A_wt_wb97_typm1_pos
 Hartree-Fock type      HFTyp           .... RHF
 Total Charge           Charge          ....    1
 Multiplicity           Mult            ....    1
 Number of Electrons    NEL             ....   40
 Basis Dimension        Dim             ....  164
 Nuclear Repulsion      ENuc            ....    193.9645830896 Eh

Convergence Acceleration:
 DIIS                   CNVDIIS         .... on
   Start iteration      DIISMaxIt       ....    12
   Startup error        DIISStart       ....  0.200000
   # of expansion vecs  DIISMaxEq       ....     5
   Bias factor          DIISBfac        ....   1.050
   Max. coefficient     DIISMaxC        ....  10.000
 Trust-Rad. Augm. Hess. CNVTRAH         .... auto
   Auto Start mean grad. ratio tolernc. ....  1.125000
   Auto Start start iteration           ....    20
   Auto Start num. interpolation iter.  ....    10
   Max. Number of Micro iterations      ....    16
   Max. Number of Macro iterations      .... Maxiter - #DIIS iter
   Number of Davidson start vectors     ....     2
   Converg. threshold I  (grad. norm)   ....   1.000e-05
   Converg. threshold II (energy diff.) ....   1.000e-08
   Grad. Scal. Fac. for Micro threshold ....   0.100
   Minimum threshold for Micro iter.    ....   0.010
   NR start threshold (gradient norm)   ....   0.001
   Initial trust radius                 ....   0.400
   Minimum AH scaling param. (alpha)    ....   1.000
   Maximum AH scaling param. (alpha)    .... 1000.000
   Orbital update algorithm             .... Taylor
   White noise on init. David. guess    .... on
   Maximum white noise                  ....   0.010
   Quad. conv. algorithm                .... NR
 SOSCF                  CNVSOSCF        .... on
   Start iteration      SOSCFMaxIt      ....   150
   Startup grad/error   SOSCFStart      ....  0.003300
 Level Shifting         CNVShift        .... on
   Level shift para.    LevelShift      ....    0.2500
   Turn off err/grad.   ShiftErr        ....    0.0010
 Zerner damping         CNVZerner       .... off
 Static damping         CNVDamp         .... on
   Fraction old density DampFac         ....    0.7000
   Max. Damping (<1)    DampMax         ....    0.9800
   Min. Damping (>=0)   DampMin         ....    0.0000
   Turn off err/grad.   DampErr         ....    0.1000
 Fernandez-Rico         CNVRico         .... off

SCF Procedure:
 Maximum # iterations   MaxIter         ....   150
 SCF integral mode      SCFMode         .... Direct
   Integral package                     .... SHARK and LIBINT hybrid scheme
 Reset frequency        DirectResetFreq ....    20
 Integral Threshold     Thresh          ....  2.500e-11 Eh
 Primitive CutOff       TCut            ....  2.500e-12 Eh

Convergence Tolerance:
 Convergence Check Mode ConvCheckMode   .... Total+1el-Energy
 Convergence forced     ConvForced      .... 0
 Energy Change          TolE            ....  1.000e-08 Eh
 1-El. energy change                    ....  1.000e-05 Eh
 Orbital Gradient       TolG            ....  1.000e-05
 Orbital Rotation angle TolX            ....  1.000e-05
 DIIS Error             TolErr          ....  5.000e-07


Diagonalization of the overlap matrix:
Smallest eigenvalue                        ... 7.585e-05
Time for diagonalization                   ...    0.008 sec
Threshold for overlap eigenvalues          ... 1.000e-08
Number of eigenvalues below threshold      ... 0
Time for construction of square roots      ...    0.007 sec
Total time needed                          ...    0.016 sec

Time for model grid setup =    0.054 sec

------------------------------
INITIAL GUESS: MODEL POTENTIAL
------------------------------
Loading Hartree-Fock densities                     ... done
Calculating cut-offs                               ... done
Initializing the effective Hamiltonian             ... done
Setting up the integral package (SHARK)            ... done
Starting the Coulomb interaction                   ... done (   0.0 sec)
Reading the grid                                   ... done
Mapping shells                                     ... done
Starting the XC term evaluation                    ... done (   0.0 sec)
  promolecular density results
     # of electrons  =     40.995145892
     EX              =    -32.479690513
     EC              =     -1.367356718
     EX+EC           =    -33.847047231
Transforming the Hamiltonian                       ... done (   0.0 sec)
Diagonalizing the Hamiltonian                      ... done (   0.0 sec)
Back transforming the eigenvectors                 ... done (   0.0 sec)
Now organizing SCF variables                       ... done
                      ------------------
                      INITIAL GUESS DONE (   0.1 sec)
                      ------------------
-------------------
DFT GRID GENERATION
-------------------

General Integration Accuracy     IntAcc      ... 4.388
Radial Grid Type                 RadialGrid  ... OptM3 with GC (2021)
Angular Grid (max. ang.)         AngularGrid ... 4 (Lebedev-302)
Angular grid pruning method      GridPruning ... 4 (adaptive)
Weight generation scheme         WeightScheme... Becke
Basis function cutoff            BFCut       ... 1.0000e-11
Integration weight cutoff        WCut        ... 1.0000e-14
Angular grids for H and He will be reduced by one unit
Partially contracted basis set               ... off
Rotationally invariant grid construction     ... off

Total number of grid points                  ...    57704
Total number of batches                      ...      907
Average number of points per batch           ...       63
Average number of grid points per atom       ...     4439
Time for grid setup =    0.307 sec

--------------
SCF ITERATIONS
--------------
ITER       Energy         Delta-E        Max-DP      RMS-DP      [F,P]     Damp
               ***  Starting incremental Fock matrix formation  ***
  0   -244.6520160854   0.000000000000 0.08578904  0.00282701  0.1976656 0.7000
  1   -244.7358705011  -0.083854415703 0.04355418  0.00160589  0.0824634 0.7000
                               ***Turning on DIIS***
  2   -244.7623963674  -0.026525866273 0.06146236  0.00204674  0.0184117 0.0000
  3   -244.8060213057  -0.043624938370 0.02910117  0.00101781  0.0503770 0.0000
  4   -244.8171109492  -0.011089643500 0.01065420  0.00030709  0.0097381 0.0000
                      *** Initiating the SOSCF procedure ***
                           *** Shutting down DIIS ***
                      *** Re-Reading the Fockian *** 
                      *** Removing any level shift *** 
ITER      Energy       Delta-E        Grad      Rot      Max-DP    RMS-DP
  5   -244.81761815  -0.0005072025  0.000970  0.000970  0.003379  0.000122
               *** Restarting incremental Fock matrix formation ***
  6   -244.81766492  -0.0000467680  0.000262  0.000814  0.002176  0.000078
  7   -244.81766398   0.0000009439  0.000475  0.000875  0.000980  0.000027
  8   -244.81766919  -0.0000052116  0.000187  0.000545  0.000706  0.000019
  9   -244.81766877   0.0000004130  0.000199  0.000263  0.000411  0.000010
 10   -244.81766957  -0.0000008004  0.000018  0.000085  0.000076  0.000003
 11   -244.81766958  -0.0000000007  0.000022  0.000050  0.000049  0.000001
 12   -244.81766958  -0.0000000076  0.000009  0.000019  0.000034  0.000001
 13   -244.81766958  -0.0000000016  0.000005  0.000006  0.000017  0.000001
 14   -244.81766959  -0.0000000004  0.000003  0.000006  0.000010  0.000001
                 **** Energy Check signals convergence ****
              ***Rediagonalizing the Fockian in SOSCF/NRSCF***

               *****************************************************
               *                     SUCCESS                       *
               *           SCF CONVERGED AFTER  15 CYCLES          *
               *****************************************************


----------------
TOTAL SCF ENERGY
----------------

Total Energy       :         -244.81766958 Eh           -6661.82747 eV

Components:
Nuclear Repulsion  :          193.96458309 Eh            5278.04464 eV
Electronic Energy  :         -438.78225267 Eh          -11939.87211 eV
One Electron Energy:         -705.47614698 Eh          -19196.98191 eV
Two Electron Energy:          266.69389430 Eh            7257.10981 eV

Virial components:
Potential Energy   :         -487.28127215 Eh          -13259.59752 eV
Kinetic Energy     :          242.46360256 Eh            6597.77005 eV
Virial Ratio       :            2.00970895


DFT components:
N(Alpha)           :       20.000003162129 electrons
N(Beta)            :       20.000003162129 electrons
N(Total)           :       40.000006324259 electrons
E(X)               :      -32.911828019572 Eh       
E(C)               :       -1.348540736490 Eh       
E(XC)              :      -34.260368756062 Eh       
DFET-embed. en.    :        0.000000000000 Eh       

---------------
SCF CONVERGENCE
---------------

  Last Energy change         ...    1.3067e-09  Tolerance :   1.0000e-08
  Last MAX-Density change    ...    7.4899e-06  Tolerance :   1.0000e-07
  Last RMS-Density change    ...    3.1853e-07  Tolerance :   5.0000e-09
  Last Orbital Gradient      ...    2.8882e-06  Tolerance :   1.0000e-05
  Last Orbital Rotation      ...    4.2178e-06  Tolerance :   1.0000e-05

             **** THE GBW FILE WAS UPDATED (18Feb_SVPD_BLYP_A_wt_wb97_typm1_pos.gbw) ****
             **** DENSITY 18Feb_SVPD_BLYP_A_wt_wb97_typm1_pos.scfp WAS UPDATED ****
             **** ENERGY FILE WAS UPDATED (18Feb_SVPD_BLYP_A_wt_wb97_typm1_pos.en.tmp) ****
             **** THE GBW FILE WAS UPDATED (18Feb_SVPD_BLYP_A_wt_wb97_typm1_pos.gbw) ****
             **** DENSITY 18Feb_SVPD_BLYP_A_wt_wb97_typm1_pos.scfp WAS UPDATED ****
----------------
ORBITAL ENERGIES
----------------

  NO   OCC          E(Eh)            E(eV) 
   0   2.0000     -14.252506      -387.8304 
   1   2.0000     -14.251753      -387.8099 
   2   2.0000     -14.250892      -387.7865 
   3   2.0000     -10.252252      -278.9779 
   4   2.0000     -10.129214      -275.6299 
   5   2.0000      -1.121539       -30.5186 
   6   2.0000      -1.017405       -27.6850 
   7   2.0000      -1.005668       -27.3656 
   8   2.0000      -0.834327       -22.7032 
   9   2.0000      -0.765416       -20.8280 
  10   2.0000      -0.729495       -19.8506 
  11   2.0000      -0.702257       -19.1094 
  12   2.0000      -0.646782       -17.5998 
  13   2.0000      -0.640058       -17.4169 
  14   2.0000      -0.602260       -16.3883 
  15   2.0000      -0.599219       -16.3056 
  16   2.0000      -0.543790       -14.7973 
  17   2.0000      -0.532374       -14.4866 
  18   2.0000      -0.437847       -11.9144 
  19   2.0000      -0.417963       -11.3733 
  20   0.0000      -0.204807        -5.5731 
  21   0.0000      -0.185224        -5.0402 
  22   0.0000      -0.147806        -4.0220 
  23   0.0000      -0.141274        -3.8443 
  24   0.0000      -0.116671        -3.1748 
  25   0.0000      -0.106259        -2.8914 
  26   0.0000      -0.086825        -2.3626 
  27   0.0000      -0.082539        -2.2460 
  28   0.0000      -0.055520        -1.5108 
  29   0.0000      -0.050463        -1.3732 
  30   0.0000      -0.039557        -1.0764 
  31   0.0000      -0.029159        -0.7934 
  32   0.0000      -0.026236        -0.7139 
  33   0.0000      -0.019696        -0.5359 
  34   0.0000      -0.004787        -0.1303 
  35   0.0000       0.001888         0.0514 
  36   0.0000       0.027134         0.7384 
  37   0.0000       0.037079         1.0090 
  38   0.0000       0.041640         1.1331 
  39   0.0000       0.049527         1.3477 
  40   0.0000       0.070800         1.9266 
  41   0.0000       0.073067         1.9882 
  42   0.0000       0.086038         2.3412 
  43   0.0000       0.092354         2.5131 
  44   0.0000       0.107035         2.9126 
  45   0.0000       0.122178         3.3246 
  46   0.0000       0.131195         3.5700 
  47   0.0000       0.137962         3.7541 
  48   0.0000       0.154630         4.2077 
  49   0.0000       0.162692         4.4271 
  50   0.0000       0.177606         4.8329 
  51   0.0000       0.178425         4.8552 
  52   0.0000       0.190810         5.1922 
  53   0.0000       0.199508         5.4289 
  54   0.0000       0.207199         5.6382 
  55   0.0000       0.213039         5.7971 
  56   0.0000       0.226832         6.1724 
  57   0.0000       0.237429         6.4608 
  58   0.0000       0.245911         6.6916 
  59   0.0000       0.252761         6.8780 
  60   0.0000       0.275001         7.4832 
  61   0.0000       0.281737         7.6665 
  62   0.0000       0.287502         7.8233 
  63   0.0000       0.293167         7.9775 
  64   0.0000       0.298895         8.1333 
  65   0.0000       0.303313         8.2536 
  66   0.0000       0.314277         8.5519 
  67   0.0000       0.335086         9.1182 
  68   0.0000       0.337483         9.1834 
  69   0.0000       0.353006         9.6058 
  70   0.0000       0.368505        10.0275 
  71   0.0000       0.373706        10.1691 
  72   0.0000       0.383384        10.4324 
  73   0.0000       0.393593        10.7102 
  74   0.0000       0.397251        10.8097 
  75   0.0000       0.423008        11.5106 
  76   0.0000       0.446990        12.1632 
  77   0.0000       0.455705        12.4004 
  78   0.0000       0.464188        12.6312 
  79   0.0000       0.473232        12.8773 
  80   0.0000       0.493965        13.4415 
  81   0.0000       0.503506        13.7011 
  82   0.0000       0.525586        14.3019 
  83   0.0000       0.538234        14.6461 
  84   0.0000       0.555459        15.1148 
  85   0.0000       0.558242        15.1905 
  86   0.0000       0.568458        15.4685 
  87   0.0000       0.587007        15.9733 
  88   0.0000       0.670784        18.2530 
  89   0.0000       0.689378        18.7589 
  90   0.0000       0.716544        19.4981 
  91   0.0000       0.744480        20.2583 
  92   0.0000       0.762230        20.7413 
  93   0.0000       0.786286        21.3959 
  94   0.0000       0.813945        22.1486 
  95   0.0000       0.829283        22.5659 
  96   0.0000       0.862163        23.4606 
  97   0.0000       0.893500        24.3134 
  98   0.0000       0.921980        25.0884 
  99   0.0000       0.929214        25.2852 
 100   0.0000       0.944342        25.6969 
 101   0.0000       0.967699        26.3324 
 102   0.0000       0.987169        26.8622 
 103   0.0000       1.004659        27.3382 
 104   0.0000       1.086089        29.5540 
 105   0.0000       1.124084        30.5879 
 106   0.0000       1.216514        33.1030 
 107   0.0000       1.294742        35.2317 
 108   0.0000       1.298947        35.3461 
 109   0.0000       1.328971        36.1631 
 110   0.0000       1.353391        36.8276 
 111   0.0000       1.382865        37.6297 
 112   0.0000       1.409365        38.3508 
 113   0.0000       1.419585        38.6289 
 114   0.0000       1.439809        39.1792 
 115   0.0000       1.466274        39.8993 
 116   0.0000       1.482609        40.3439 
 117   0.0000       1.492951        40.6253 
 118   0.0000       1.535727        41.7892 
 119   0.0000       1.566902        42.6376 
 120   0.0000       1.619456        44.0676 
 121   0.0000       1.623840        44.1869 
 122   0.0000       1.657678        45.1077 
 123   0.0000       1.678922        45.6858 
 124   0.0000       1.709166        46.5088 
 125   0.0000       1.730757        47.0963 
 126   0.0000       1.750606        47.6364 
 127   0.0000       1.774638        48.2904 
 128   0.0000       1.778990        48.4088 
 129   0.0000       1.808497        49.2117 
 130   0.0000       1.820426        49.5363 
 131   0.0000       1.828198        49.7478 
 132   0.0000       1.850486        50.3543 
 133   0.0000       1.892395        51.4947 
 134   0.0000       1.919894        52.2430 
 135   0.0000       1.936268        52.6885 
 136   0.0000       1.974740        53.7354 
 137   0.0000       2.045998        55.6744 
 138   0.0000       2.082474        56.6670 
 139   0.0000       2.126253        57.8583 
 140   0.0000       2.151759        58.5523 
 141   0.0000       2.184818        59.4519 
 142   0.0000       2.216066        60.3022 
 143   0.0000       2.257390        61.4267 
 144   0.0000       2.269464        61.7552 
 145   0.0000       2.306162        62.7539 
 146   0.0000       2.355098        64.0855 
 147   0.0000       2.414953        65.7142 
 148   0.0000       2.461463        66.9798 
 149   0.0000       2.464647        67.0664 
 150   0.0000       2.535713        69.0003 
 151   0.0000       2.583829        70.3096 
 152   0.0000       2.650279        72.1177 
 153   0.0000       2.780265        75.6549 
 154   0.0000       2.849976        77.5518 
 155   0.0000       2.891278        78.6757 
 156   0.0000       2.915327        79.3301 
 157   0.0000       2.962814        80.6223 
 158   0.0000       2.979690        81.0815 
 159   0.0000       3.044233        82.8378 
 160   0.0000       3.100570        84.3708 
 161   0.0000       3.142010        85.4984 
 162   0.0000       3.401955        92.5719 
 163   0.0000       3.448949        93.8507 

                    ********************************
                    * MULLIKEN POPULATION ANALYSIS *
                    ********************************

-----------------------
MULLIKEN ATOMIC CHARGES
-----------------------
   0 C :    1.472627
   1 N :   -0.328111
   2 C :    0.986461
   3 N :    0.205038
   4 N :    0.246824
   5 H :   -0.130296
   6 H :   -0.185951
   7 H :   -0.232364
   8 H :   -0.072226
   9 H :   -0.170913
  10 H :   -0.434303
  11 H :   -0.154314
  12 H :   -0.202470
Sum of atomic charges:    1.0000000

--------------------------------
MULLIKEN REDUCED ORBITAL CHARGES
--------------------------------
  0 C s       :     2.288352  s :     2.288352
      pz      :     0.764198  p :     2.290338
      px      :     0.693952
      py      :     0.832188
      dz2     :    -0.001722  d :    -0.051317
      dxz     :    -0.014663
      dyz     :     0.028925
      dx2y2   :    -0.032458
      dxy     :    -0.031399
  1 N s       :     3.438578  s :     3.438578
      pz      :     1.096766  p :     3.626115
      px      :     0.989606
      py      :     1.539744
      dz2     :     0.060435  d :     0.263418
      dxz     :     0.042617
      dyz     :     0.065986
      dx2y2   :     0.057043
      dxy     :     0.037337
  2 C s       :     3.012888  s :     3.012888
      pz      :     0.691808  p :     2.219304
      px      :     0.778885
      py      :     0.748611
      dz2     :    -0.112192  d :    -0.218653
      dxz     :    -0.126785
      dyz     :     0.025885
      dx2y2   :    -0.015772
      dxy     :     0.010212
  3 N s       :     3.320704  s :     3.320704
      pz      :     0.982918  p :     3.506187
      px      :     1.005751
      py      :     1.517517
      dz2     :    -0.013391  d :    -0.031929
      dxz     :    -0.022435
      dyz     :     0.005445
      dx2y2   :    -0.008966
      dxy     :     0.007418
  4 N s       :     3.292482  s :     3.292482
      pz      :     1.018980  p :     3.503011
      px      :     0.968203
      py      :     1.515828
      dz2     :    -0.023420  d :    -0.042317
      dxz     :    -0.012646
      dyz     :     0.010337
      dx2y2   :    -0.015794
      dxy     :    -0.000794
  5 H s       :     1.120514  s :     1.120514
      pz      :     0.010484  p :     0.009783
      px      :    -0.051677
      py      :     0.050976
  6 H s       :     1.168401  s :     1.168401
      pz      :    -0.017087  p :     0.017550
      px      :    -0.015073
      py      :     0.049710
  7 H s       :     1.194428  s :     1.194428
      pz      :     0.017422  p :     0.037936
      px      :    -0.019896
      py      :     0.040411
  8 H s       :     1.065208  s :     1.065208
      pz      :     0.005540  p :     0.007018
      px      :    -0.045809
      py      :     0.047287
  9 H s       :     1.140959  s :     1.140959
      pz      :    -0.013465  p :     0.029954
      px      :    -0.004629
      py      :     0.048048
 10 H s       :     1.387963  s :     1.387963
      pz      :     0.048798  p :     0.046340
      px      :     0.035214
      py      :    -0.037672
 11 H s       :     1.150523  s :     1.150523
      pz      :     0.000411  p :     0.003792
      px      :    -0.021323
      py      :     0.024703
 12 H s       :     1.151818  s :     1.151818
      pz      :    -0.003608  p :     0.050651
      px      :     0.014773
      py      :     0.039487


                     *******************************
                     * LOEWDIN POPULATION ANALYSIS *
                     *******************************

----------------------
LOEWDIN ATOMIC CHARGES
----------------------
   0 C :    0.264621
   1 N :    0.036676
   2 C :   -0.066531
   3 N :    0.284141
   4 N :    0.301383
   5 H :    0.018508
   6 H :    0.032096
   7 H :    0.048191
   8 H :    0.033465
   9 H :    0.038704
  10 H :    0.009944
  11 H :    0.005654
  12 H :   -0.006851

-------------------------------
LOEWDIN REDUCED ORBITAL CHARGES
-------------------------------
  0 C s       :     2.686534  s :     2.686534
      pz      :     0.818423  p :     2.648438
      px      :     0.892078
      py      :     0.937937
      dz2     :     0.088951  d :     0.400408
      dxz     :     0.075702
      dyz     :     0.126545
      dx2y2   :     0.077594
      dxy     :     0.031616
  1 N s       :     2.923299  s :     2.923299
      pz      :     1.072720  p :     3.449157
      px      :     1.059532
      py      :     1.316904
      dz2     :     0.133551  d :     0.590868
      dxz     :     0.166944
      dyz     :     0.091494
      dx2y2   :     0.106613
      dxy     :     0.092266
  2 C s       :     2.613175  s :     2.613175
      pz      :     0.858081  p :     2.432778
      px      :     0.873135
      py      :     0.701561
      dz2     :     0.234961  d :     1.020579
      dxz     :     0.273391
      dyz     :     0.185460
      dx2y2   :     0.140459
      dxy     :     0.186308
  3 N s       :     2.931755  s :     2.931755
      pz      :     1.078274  p :     3.485204
      px      :     1.075795
      py      :     1.331135
      dz2     :     0.088450  d :     0.298900
      dxz     :     0.085476
      dyz     :     0.058963
      dx2y2   :     0.041075
      dxy     :     0.024935
  4 N s       :     2.936889  s :     2.936889
      pz      :     1.083368  p :     3.477029
      px      :     1.065929
      py      :     1.327732
      dz2     :     0.087531  d :     0.284698
      dxz     :     0.076512
      dyz     :     0.051225
      dx2y2   :     0.042308
      dxy     :     0.027123
  5 H s       :     0.639449  s :     0.639449
      pz      :     0.121562  p :     0.342043
      px      :     0.108507
      py      :     0.111973
  6 H s       :     0.647495  s :     0.647495
      pz      :     0.071689  p :     0.320409
      px      :     0.144402
      py      :     0.104318
  7 H s       :     0.638054  s :     0.638054
      pz      :     0.128935  p :     0.313756
      px      :     0.085946
      py      :     0.098875
  8 H s       :     0.642554  s :     0.642554
      pz      :     0.112386  p :     0.323981
      px      :     0.100781
      py      :     0.110814
  9 H s       :     0.644694  s :     0.644694
      pz      :     0.069311  p :     0.316602
      px      :     0.145529
      py      :     0.101762
 10 H s       :     0.735026  s :     0.735026
      pz      :     0.061370  p :     0.255030
      px      :     0.121056
      py      :     0.072604
 11 H s       :     0.739144  s :     0.739144
      pz      :     0.063973  p :     0.255202
      px      :     0.073586
      py      :     0.117643
 12 H s       :     0.736561  s :     0.736561
      pz      :     0.079752  p :     0.270290
      px      :     0.081089
      py      :     0.109449


                      *****************************
                      * MAYER POPULATION ANALYSIS *
                      *****************************

  NA   - Mulliken gross atomic population
  ZA   - Total nuclear charge
  QA   - Mulliken gross atomic charge
  VA   - Mayer's total valence
  BVA  - Mayer's bonded valence
  FA   - Mayer's free valence

  ATOM       NA         ZA         QA         VA         BVA        FA
  0 C      4.5274     6.0000     1.4726     3.1336     3.1336    -0.0000
  1 N      7.3281     7.0000    -0.3281     4.3612     4.3612    -0.0000
  2 C      5.0135     6.0000     0.9865     2.2954     2.2954    -0.0000
  3 N      6.7950     7.0000     0.2050     3.8518     3.8518     0.0000
  4 N      6.7532     7.0000     0.2468     3.8176     3.8176     0.0000
  5 H      1.1303     1.0000    -0.1303     0.8688     0.8688     0.0000
  6 H      1.1860     1.0000    -0.1860     0.8526     0.8526    -0.0000
  7 H      1.2324     1.0000    -0.2324     0.9409     0.9409    -0.0000
  8 H      1.0722     1.0000    -0.0722     0.8405     0.8405     0.0000
  9 H      1.1709     1.0000    -0.1709     0.9020     0.9020    -0.0000
 10 H      1.4343     1.0000    -0.4343     0.8826     0.8826     0.0000
 11 H      1.1543     1.0000    -0.1543     0.9441     0.9441    -0.0000
 12 H      1.2025     1.0000    -0.2025     1.0219     1.0219    -0.0000

  Mayer bond orders larger than 0.100000
B(  0-C ,  1-N ) :   1.0327 B(  0-C ,  7-H ) :  -0.1062 B(  0-C , 10-H ) :   0.6685 
B(  0-C , 11-H ) :   0.7588 B(  0-C , 12-H ) :   0.7543 B(  1-N ,  2-C ) :   1.1018 
B(  1-N ,  3-N ) :   0.2760 B(  1-N ,  4-N ) :   0.2355 B(  1-N ,  7-H ) :   1.2002 
B(  1-N , 10-H ) :   0.2197 B(  1-N , 11-H ) :   0.1381 B(  1-N , 12-H ) :   0.1762 
B(  2-C ,  3-N ) :   0.9400 B(  2-C ,  4-N ) :   1.0578 B(  2-C ,  5-H ) :  -0.1692 
B(  2-C ,  6-H ) :  -0.1459 B(  2-C ,  7-H ) :  -0.2060 B(  2-C ,  8-H ) :  -0.1400 
B(  2-C ,  9-H ) :  -0.1768 B(  3-N ,  4-N ) :   0.1697 B(  3-N ,  8-H ) :   1.1517 
B(  3-N ,  9-H ) :   1.2810 B(  4-N ,  5-H ) :   1.1331 B(  4-N ,  6-H ) :   1.2302 
B(  5-H ,  6-H ) :  -0.2100 B(  8-H ,  9-H ) :  -0.1923 

-------
TIMINGS
-------

Total SCF time: 0 days 0 hours 0 min 3 sec 

Total time                  ....       3.285 sec
Sum of individual times     ....       3.116 sec  ( 94.8%)

Fock matrix formation       ....       2.559 sec  ( 77.9%)
  Split-RI-J                ....       0.586 sec  ( 22.9% of F)
  XC integration            ....       1.931 sec  ( 75.4% of F)
    Basis function eval.    ....       0.610 sec  ( 31.6% of XC)
    Density eval.           ....       0.399 sec  ( 20.7% of XC)
    XC-Functional eval.     ....       0.082 sec  (  4.3% of XC)
    XC-Potential eval.      ....       0.533 sec  ( 27.6% of XC)
Diagonalization             ....       0.042 sec  (  1.3%)
Density matrix formation    ....       0.006 sec  (  0.2%)
Population analysis         ....       0.007 sec  (  0.2%)
Initial guess               ....       0.066 sec  (  2.0%)
Orbital Transformation      ....       0.000 sec  (  0.0%)
Orbital Orthonormalization  ....       0.000 sec  (  0.0%)
DIIS solution               ....       0.025 sec  (  0.8%)
SOSCF solution              ....       0.050 sec  (  1.5%)
Grid generation             ....       0.361 sec  ( 11.0%)

Maximum memory used throughout the entire SCF-calculation: 18.2 MB


-------------------------------------------------------------------------------
                          DFT DISPERSION CORRECTION                            
                                                                               
                              DFTD3 V3.1  Rev 1                                
                          USING Becke-Johnson damping                          
-------------------------------------------------------------------------------
The BLYP functional is recognized
Active option DFTDOPT                   ...         4   

molecular C6(AA) [au] = 1234.392712 


            DFT-D V3
 parameters
 s6 scaling factor         :     1.0000 
 a1 scaling factor         :     0.4298 
 s8 scaling factor         :     2.6996 
 a2 scaling factor         :     4.2359 
 ad hoc parameters k1-k3   :    16.0000     1.3333    -4.0000 

 Edisp/kcal,au: -11.610210625761  -0.018502046371 
 E6   /kcal   :  -4.893239049 
 E8   /kcal   :  -6.716971577 
 % E8         :  57.854002770 

-------------------------   ----------------
Dispersion correction           -0.018502046
-------------------------   ----------------


-------------------------   --------------------
FINAL SINGLE POINT ENERGY      -244.836171630212
-------------------------   --------------------


                            ***************************************
                            *     ORCA property calculations      *
                            ***************************************

                                    ---------------------
                                    Active property flags
                                    ---------------------
   (+) Dipole Moment


------------------------------------------------------------------------------
                       ORCA ELECTRIC PROPERTIES CALCULATION
------------------------------------------------------------------------------

Dipole Moment Calculation                       ... on
Quadrupole Moment Calculation                   ... off
Polarizability Calculation                      ... off
GBWName                                         ... 18Feb_SVPD_BLYP_A_wt_wb97_typm1_pos.gbw
Electron density file                           ... 18Feb_SVPD_BLYP_A_wt_wb97_typm1_pos.scfp
The origin for moment calculation is the CENTER OF MASS  = ( 6.891167, -3.910935 -5.483271)

-------------
DIPOLE MOMENT
-------------
                                X             Y             Z
Electronic contribution:      2.03868      -0.55848      -1.79718
Nuclear contribution   :     -1.59972       0.59064       1.48941
                        -----------------------------------------
Total Dipole Moment    :      0.43896       0.03216      -0.30777
                        -----------------------------------------
Magnitude (a.u.)       :      0.53707
Magnitude (Debye)      :      1.36512



--------------------
Rotational spectrum 
--------------------
 
Rotational constants in cm-1:     0.309236     0.134358     0.096189 
Rotational constants in MHz :  9270.657746  4027.948155  2883.671905 

 Dipole components along the rotational axes: 
x,y,z [a.u.] :    -0.528130    -0.062360    -0.075041 
x,y,z [Debye]:    -1.342400    -0.158506    -0.190738 

 

Timings for individual modules:

Sum of individual times         ...        4.133 sec (=   0.069 min)
GTO integral calculation        ...        0.497 sec (=   0.008 min)  12.0 %
SCF iterations                  ...        3.636 sec (=   0.061 min)  88.0 %
                             ****ORCA TERMINATED NORMALLY****
TOTAL RUN TIME: 0 days 0 hours 0 minutes 4 seconds 661 msec
